; ITP file created by ByteFF-ML, 2026-02-21 07:50:20.342933

[ atomtypes ]
;name           bonded.type        at.num        mass        charge   ptype           sigma         epsilon
 c0bf                                   6      0.0000       0.00000       A     3.39799e-01     4.50095e-01
 o1bf                                   8      0.0000       0.00000       A     3.15802e-01     3.03422e-01
 c2bf                                   6      0.0000       0.00000       A     3.31494e-01     4.13273e-01
 c3bf                                   6      0.0000       0.00000       A     3.31460e-01     4.13344e-01
 c4bf                                   6      0.0000       0.00000       A     3.31371e-01     4.12570e-01
 c5bf                                   6      0.0000       0.00000       A     3.31310e-01     4.12073e-01
 n6bf                                   7      0.0000       0.00000       A     3.27838e-01     6.48901e-01
 c7bf                                   6      0.0000       0.00000       A     3.31293e-01     4.14462e-01
 n8bf                                   7      0.0000       0.00000       A     3.38649e-01     3.93216e-01
 c9bf                                   6      0.0000       0.00000       A     3.31522e-01     4.10865e-01
 c10bf                                  6      0.0000       0.00000       A     3.31493e-01     4.12755e-01
 n11bf                                  7      0.0000       0.00000       A     3.20544e-01     8.50304e-01
 c12bf                                  6      0.0000       0.00000       A     3.31513e-01     4.11963e-01
 c13bf                                  6      0.0000       0.00000       A     3.31488e-01     4.12482e-01
 n14bf                                  7      0.0000       0.00000       A     3.38571e-01     3.94678e-01
 c15bf                                  6      0.0000       0.00000       A     3.31524e-01     4.13157e-01
 c16bf                                  6      0.0000       0.00000       A     3.31461e-01     4.11588e-01
 c17bf                                  6      0.0000       0.00000       A     3.31472e-01     4.13428e-01
 c18bf                                  6      0.0000       0.00000       A     3.31460e-01     4.13119e-01
 c19bf                                  6      0.0000       0.00000       A     3.31407e-01     4.13706e-01
 c20bf                                  6      0.0000       0.00000       A     3.31448e-01     4.12969e-01
 c21bf                                  6      0.0000       0.00000       A     3.31585e-01     4.13117e-01
 c22bf                                  6      0.0000       0.00000       A     3.39786e-01     4.51426e-01
 c23bf                                  6      0.0000       0.00000       A     3.31601e-01     4.11183e-01
 o24bf                                  8      0.0000       0.00000       A     3.04728e-01     6.10490e-01
 n25bf                                  7      0.0000       0.00000       A     3.35960e-01     3.52979e-01
 c26bf                                  6      0.0000       0.00000       A     3.31426e-01     4.12512e-01
 c27bf                                  6      0.0000       0.00000       A     3.31334e-01     4.12096e-01
 o28bf                                  8      0.0000       0.00000       A     3.15839e-01     3.04251e-01
 c29bf                                  6      0.0000       0.00000       A     3.39799e-01     4.50095e-01
 h30bf                                  1      0.0000       0.00000       A     2.42080e-01     8.75859e-02
 h31bf                                  1      0.0000       0.00000       A     2.42080e-01     8.75859e-02
 h32bf                                  1      0.0000       0.00000       A     2.42080e-01     8.75859e-02
 h33bf                                  1      0.0000       0.00000       A     2.62545e-01     6.69663e-02
 h34bf                                  1      0.0000       0.00000       A     2.62478e-01     6.76031e-02
 h35bf                                  1      0.0000       0.00000       A     1.10437e-01     4.36637e-02
 h36bf                                  1      0.0000       0.00000       A     2.53936e-01     6.71690e-02
 h37bf                                  1      0.0000       0.00000       A     2.54157e-01     6.73717e-02
 h38bf                                  1      0.0000       0.00000       A     2.53844e-01     6.71387e-02
 h39bf                                  1      0.0000       0.00000       A     2.62515e-01     6.73350e-02
 h40bf                                  1      0.0000       0.00000       A     2.62477e-01     6.70876e-02
 h41bf                                  1      0.0000       0.00000       A     2.62508e-01     6.69631e-02
 h42bf                                  1      0.0000       0.00000       A     2.60028e-01     8.72826e-02
 h43bf                                  1      0.0000       0.00000       A     2.60028e-01     8.72826e-02
 h44bf                                  1      0.0000       0.00000       A     2.60028e-01     8.72826e-02
 h45bf                                  1      0.0000       0.00000       A     1.10424e-01     4.11499e-02
 h46bf                                  1      0.0000       0.00000       A     1.10424e-01     4.11499e-02
 h47bf                                  1      0.0000       0.00000       A     2.62385e-01     6.71291e-02
 h48bf                                  1      0.0000       0.00000       A     2.42080e-01     8.75859e-02
 h49bf                                  1      0.0000       0.00000       A     2.42080e-01     8.75859e-02
 h50bf                                  1      0.0000       0.00000       A     2.42080e-01     8.75859e-02

[ moleculetype ]
;name             nrexcl
 CHEMBL3265015_flip       3

[ atoms ]
;       nr            type      resi   res      atom      cgnr      charge          mass ; qtot
         1            c0bf         1   UNL        c0         1     0.14145       12.0110 ; qtot    0.141
         2            o1bf         1   UNL        o1         2    -0.33647       15.9990 ; qtot   -0.195
         3            c2bf         1   UNL        c2         3     0.08002       12.0110 ; qtot   -0.115
         4            c3bf         1   UNL        c3         4    -0.13937       12.0110 ; qtot   -0.254
         5            c4bf         1   UNL        c4         5    -0.13475       12.0110 ; qtot   -0.389
         6            c5bf         1   UNL        c5         6     0.30239       12.0110 ; qtot   -0.087
         7            n6bf         1   UNL        n6         7    -0.91203       14.0070 ; qtot   -0.999
         8            c7bf         1   UNL        c7         8     0.67909       12.0110 ; qtot   -0.320
         9            n8bf         1   UNL        n8         9    -0.75654       14.0070 ; qtot   -1.076
        10            c9bf         1   UNL        c9        10     0.37411       12.0110 ; qtot   -0.702
        11           c10bf         1   UNL       c10        11    -0.17282       12.0110 ; qtot   -0.875
        12           n11bf         1   UNL       n11        12     0.15753       14.0070 ; qtot   -0.717
        13           c12bf         1   UNL       c12        13    -0.26112       12.0110 ; qtot   -0.979
        14           c13bf         1   UNL       c13        14    -0.04248       12.0110 ; qtot   -1.021
        15           n14bf         1   UNL       n14        15    -0.27126       14.0070 ; qtot   -1.292
        16           c15bf         1   UNL       c15        16    -0.16948       12.0110 ; qtot   -1.462
        17           c16bf         1   UNL       c16        17    -0.10464       12.0110 ; qtot   -1.566
        18           c17bf         1   UNL       c17        18    -0.09672       12.0110 ; qtot   -1.663
        19           c18bf         1   UNL       c18        19    -0.07865       12.0110 ; qtot   -1.742
        20           c19bf         1   UNL       c19        20    -0.14039       12.0110 ; qtot   -1.882
        21           c20bf         1   UNL       c20        21    -0.08445       12.0110 ; qtot   -1.967
        22           c21bf         1   UNL       c21        22    -0.04534       12.0110 ; qtot   -2.012
        23           c22bf         1   UNL       c22        23    -0.05269       12.0110 ; qtot   -2.065
        24           c23bf         1   UNL       c23        24     0.60067       12.0110 ; qtot   -1.464
        25           o24bf         1   UNL       o24        25    -0.59424       15.9990 ; qtot   -2.058
        26           n25bf         1   UNL       n25        26    -0.58718       14.0070 ; qtot   -2.645
        27           c26bf         1   UNL       c26        27    -0.18949       12.0110 ; qtot   -2.835
        28           c27bf         1   UNL       c27        28     0.11411       12.0110 ; qtot   -2.721
        29           o28bf         1   UNL       o28        29    -0.33842       15.9990 ; qtot   -3.059
        30           c29bf         1   UNL       c29        30     0.14175       12.0110 ; qtot   -2.917
        31           h30bf         1   UNL       h30        31     0.04404        1.0080 ; qtot   -2.873
        32           h31bf         1   UNL       h31        32     0.04404        1.0080 ; qtot   -2.829
        33           h32bf         1   UNL       h32        33     0.04404        1.0080 ; qtot   -2.785
        34           h33bf         1   UNL       h33        34     0.12393        1.0080 ; qtot   -2.661
        35           h34bf         1   UNL       h34        35     0.13132        1.0080 ; qtot   -2.530
        36           h35bf         1   UNL       h35        36     0.50588        1.0080 ; qtot   -2.024
        37           h36bf         1   UNL       h36        37     0.15863        1.0080 ; qtot   -1.866
        38           h37bf         1   UNL       h37        38     0.22767        1.0080 ; qtot   -1.638
        39           h38bf         1   UNL       h38        39     0.22246        1.0080 ; qtot   -1.415
        40           h39bf         1   UNL       h39        40     0.12726        1.0080 ; qtot   -1.288
        41           h40bf         1   UNL       h40        41     0.13342        1.0080 ; qtot   -1.155
        42           h41bf         1   UNL       h41        42     0.13107        1.0080 ; qtot   -1.024
        43           h42bf         1   UNL       h42        43     0.05002        1.0080 ; qtot   -0.974
        44           h43bf         1   UNL       h43        44     0.05002        1.0080 ; qtot   -0.924
        45           h44bf         1   UNL       h44        45     0.05002        1.0080 ; qtot   -0.874
        46           h45bf         1   UNL       h45        46     0.30469        1.0080 ; qtot   -0.569
        47           h46bf         1   UNL       h46        47     0.30469        1.0080 ; qtot   -0.264
        48           h47bf         1   UNL       h47        48     0.13212        1.0080 ; qtot   -0.132
        49           h48bf         1   UNL       h48        49     0.04404        1.0080 ; qtot   -0.088
        50           h49bf         1   UNL       h49        50     0.04404        1.0080 ; qtot   -0.044
        51           h50bf         1   UNL       h50        51     0.04401        1.0080 ; qtot   -0.000

[ bonds ]
;       ai        aj funct               r               k
         1         2     1        0.142750   205228.507056
         1        31     1        0.109386   299034.366748
         1        32     1        0.109386   299034.366748
         1        33     1        0.109386   299034.366748
         2         3     1        0.137015   270782.100830
         3         4     1        0.139488   304008.331689
         3        28     1        0.141529   250914.434033
         4         5     1        0.140005   315466.551758
         4        34     1        0.108446   322299.133057
         5         6     1        0.140061   293503.054395
         5        35     1        0.108414   324178.051416
         6         7     1        0.141092   252182.734570
         6        27     1        0.140674   282765.542627
         7         8     1        0.136729   311607.817920
         7        36     1        0.101302   413497.768799
         8         9     1        0.132111   352877.242285
         8        16     1        0.143870   235848.075781
         9        10     1        0.137764   242331.666943
        10        11     1        0.137441   347820.409424
        10        17     1        0.148723   207910.146143
        11        12     1        0.137833   275976.476562
        11        37     1        0.108197   331837.013574
        12        13     1        0.137750   263209.071045
        12        16     1        0.138998   204565.857373
        13        14     1        0.138746   337814.101709
        13        38     1        0.107915   345078.311230
        14        15     1        0.136744   275913.399902
        14        39     1        0.108260   332273.212939
        15        16     1        0.133378   321390.292871
        17        18     1        0.140512   287258.669336
        17        22     1        0.141433   255880.763379
        18        19     1        0.139206   327797.962207
        18        40     1        0.108532   320869.591211
        19        20     1        0.140212   294394.376123
        19        41     1        0.108520   322196.116357
        20        21     1        0.140077   294569.381934
        20        24     1        0.150020   178270.921509
        21        22     1        0.139969   302522.403906
        21        42     1        0.108559   319207.687207
        22        23     1        0.151217   201144.714673
        23        43     1        0.109321   302358.404590
        23        44     1        0.109321   302358.404590
        23        45     1        0.109321   302358.404590
        24        25     1        0.123072   606309.967285
        24        26     1        0.138131   285989.551611
        26        46     1        0.101232   423823.928809
        26        47     1        0.101232   423823.928809
        27        28     1        0.139409   309212.462598
        27        48     1        0.108244   326136.952002
        28        29     1        0.136800   272579.862256
        29        30     1        0.142754   205101.357788
        30        49     1        0.109386   299034.341211
        30        50     1        0.109386   299034.341211
        30        51     1        0.109386   299034.341211

[ angles ]
;       ai        aj        ak funct           theta             cth
         1         2         3     1      117.082443      547.136590
         2         1        31     1      109.406631      448.806110
         2         1        32     1      109.406631      448.806110
         2         1        33     1      109.406631      448.806110
         2         3         4     1      124.061974      526.185244
         2         3        28     1      116.730186      403.093057
         3         4         5     1      121.105545      730.301061
         3         4        34     1      119.820435      430.270000
         3        28        27     1      119.959702      641.355245
         3        28        29     1      116.770729      382.344602
         4         3        28     1      118.961632      615.309053
         4         5         6     1      119.989258      692.295585
         4         5        35     1      119.981018      402.478985
         5         4        34     1      119.168861      430.731806
         5         6         7     1      121.161964      571.797075
         5         6        27     1      119.274185      562.540766
         6         5        35     1      119.993568      438.163871
         6         7         8     1      130.908600      390.906748
         6         7        36     1      115.466995      445.927919
         6        27        28     1      120.440468      771.725955
         6        27        48     1      119.557449      428.763885
         7         6        27     1      119.328491      531.273672
         7         8         9     1      121.377151      603.166541
         7         8        16     1      116.105576      347.689596
         8         7        36     1      112.198647      485.186500
         8         9        10     1      119.814316      668.673887
         8        16        12     1      117.476013      691.884693
         8        16        15     1      131.168365      328.267219
         9         8        16     1      121.161209      641.726107
         9        10        11     1      121.981529      391.998396
         9        10        17     1      116.374634      481.178036
        10        11        12     1      118.223976      861.000816
        10        11        37     1      124.610306      351.035436
        10        17        18     1      118.019531      572.448590
        10        17        22     1      122.805809      471.665558
        11        10        17     1      121.051331      445.633093
        11        12        13     1      132.354584      453.538360
        11        12        16     1      121.336502      772.584002
        12        11        37     1      117.465431      486.937420
        12        13        14     1      105.222717      375.667031
        12        13        38     1      122.391075      461.871917
        12        16        15     1      111.412987      167.360000
        13        12        16     1      106.439148      167.360000
        13        14        15     1      111.710022      296.607652
        13        14        39     1      126.932030      353.254674
        14        13        38     1      132.665771      296.979153
        14        15        16     1      105.148094      501.387338
        15        14        39     1      121.224686      373.698758
        17        18        19     1      121.427879      689.936339
        17        18        40     1      118.920753      424.235517
        17        22        21     1      118.206345      719.114785
        17        22        23     1      122.934853      441.851143
        18        17        22     1      119.397438      610.063029
        18        19        20     1      119.775040      690.892321
        18        19        41     1      120.083351      422.502473
        19        18        40     1      119.688232      425.794845
        19        20        21     1      118.942184      606.725009
        19        20        24     1      120.649460      561.481679
        20        19        41     1      120.049240      415.531768
        20        21        22     1      122.264038      666.427898
        20        21        42     1      118.916725      415.870294
        20        24        25     1      122.144852      578.573347
        20        24        26     1      116.038712      539.077717
        21        20        24     1      120.097862      545.460590
        21        22        23     1      118.947098      492.845845
        22        21        42     1      118.800926      396.691829
        22        23        43     1      111.212608      483.026603
        22        23        44     1      111.212608      483.026603
        22        23        45     1      111.212608      483.026603
        24        26        46     1      117.038818      451.297160
        24        26        47     1      117.038818      451.297160
        25        24        26     1      121.275673      672.352443
        27        28        29     1      123.114540      463.233875
        28        27        48     1      120.054489      415.811750
        28        29        30     1      117.278854      548.766496
        29        30        49     1      109.407082      448.359562
        29        30        50     1      109.407082      448.359562
        29        30        51     1      109.407082      448.359562
        31         1        32     1      109.654236      343.283135
        31         1        33     1      109.654236      343.283135
        32         1        33     1      109.654236      343.283135
        43        23        44     1      107.746437      359.273995
        43        23        45     1      107.746437      359.273995
        44        23        45     1      107.746437      359.273995
        46        26        47     1      116.238693      328.465196
        49        30        50     1      109.654236      343.283167
        49        30        51     1      109.654236      343.283167
        50        30        51     1      109.654236      343.283167

[ dihedrals ] ; propers for gromacs 4.5 or higher, use funct 9
;       ai        aj        ak        al funct           phase               k        pn
         1         2         3         4     9        0.000000       -0.020471         1
         1         2         3         4     9      180.000000        4.264586         2
         1         2         3         4     9        0.000000       -0.661221         3
         1         2         3         4     9      180.000000        0.423658         4
         1         2         3        28     9        0.000000        0.687110         1
         1         2         3        28     9      180.000000        3.031873         2
         1         2         3        28     9        0.000000        1.138396         3
         1         2         3        28     9      180.000000        0.057396         4
         2         3         4         5     9        0.000000        0.412383         1
         2         3         4         5     9      180.000000       18.405153         2
         2         3         4         5     9        0.000000        0.286762         3
         2         3         4         5     9      180.000000       -0.248269         4
         2         3         4        34     9        0.000000        0.002515         1
         2         3         4        34     9      180.000000       13.550908         2
         2         3         4        34     9        0.000000       -0.035816         3
         2         3         4        34     9      180.000000        0.307724         4
         2         3        28        27     9        0.000000        0.190228         1
         2         3        28        27     9      180.000000       12.913656         2
         2         3        28        27     9        0.000000       -0.036672         3
         2         3        28        27     9      180.000000        0.087435         4
         2         3        28        29     9        0.000000       -0.231151         1
         2         3        28        29     9      180.000000       16.200532         2
         2         3        28        29     9        0.000000       -0.225092         3
         2         3        28        29     9      180.000000       -0.129585         4
         3         2         1        31     9        0.000000       -0.002785         1
         3         2         1        31     9      180.000000       -0.013204         2
         3         2         1        31     9        0.000000        0.475747         3
         3         2         1        31     9      180.000000       -0.002909         4
         3         2         1        32     9        0.000000       -0.002785         1
         3         2         1        32     9      180.000000       -0.013204         2
         3         2         1        32     9        0.000000        0.475747         3
         3         2         1        32     9      180.000000       -0.002909         4
         3         2         1        33     9        0.000000       -0.002785         1
         3         2         1        33     9      180.000000       -0.013204         2
         3         2         1        33     9        0.000000        0.475747         3
         3         2         1        33     9      180.000000       -0.002909         4
         3         4         5         6     9        0.000000       -0.173495         1
         3         4         5         6     9      180.000000       17.663552         2
         3         4         5         6     9        0.000000       -1.660356         3
         3         4         5         6     9      180.000000       -0.412935         4
         3         4         5        35     9        0.000000        0.149237         1
         3         4         5        35     9      180.000000       14.141559         2
         3         4         5        35     9        0.000000       -0.494779         3
         3         4         5        35     9      180.000000        0.094379         4
         3        28        27         6     9        0.000000       -0.132619         1
         3        28        27         6     9      180.000000       16.584041         2
         3        28        27         6     9        0.000000       -1.316973         3
         3        28        27         6     9      180.000000       -0.328534         4
         3        28        27        48     9        0.000000        0.166400         1
         3        28        27        48     9      180.000000       12.784533         2
         3        28        27        48     9        0.000000       -0.336161         3
         3        28        27        48     9      180.000000        0.291888         4
         3        28        29        30     9        0.000000        0.802291         1
         3        28        29        30     9      180.000000        3.527079         2
         3        28        29        30     9        0.000000        1.195050         3
         3        28        29        30     9      180.000000        0.043134         4
         4         3        28        27     9        0.000000        0.246300         1
         4         3        28        27     9      180.000000       12.038167         2
         4         3        28        27     9        0.000000       -0.447743         3
         4         3        28        27     9      180.000000       -0.093295         4
         4         3        28        29     9        0.000000        0.312921         1
         4         3        28        29     9      180.000000       12.963699         2
         4         3        28        29     9        0.000000       -0.020336         3
         4         3        28        29     9      180.000000        0.087697         4
         4         5         6         7     9        0.000000        0.132129         1
         4         5         6         7     9      180.000000       17.832522         2
         4         5         6         7     9        0.000000        0.097463         3
         4         5         6         7     9      180.000000       -0.336845         4
         4         5         6        27     9        0.000000       -0.023969         1
         4         5         6        27     9      180.000000       17.298060         2
         4         5         6        27     9        0.000000       -1.297561         3
         4         5         6        27     9      180.000000       -0.244555         4
         5         4         3        28     9        0.000000        0.101367         1
         5         4         3        28     9      180.000000       16.812105         2
         5         4         3        28     9        0.000000       -1.160185         3
         5         4         3        28     9      180.000000       -0.311315         4
         5         6         7         8     9        0.000000        0.443064         1
         5         6         7         8     9      180.000000        3.120267         2
         5         6         7         8     9        0.000000       -0.198859         3
         5         6         7         8     9      180.000000        0.465134         4
         5         6         7        36     9        0.000000       -0.086586         1
         5         6         7        36     9      180.000000        3.309236         2
         5         6         7        36     9        0.000000        0.058468         3
         5         6         7        36     9      180.000000        0.892657         4
         5         6        27        28     9        0.000000        0.041058         1
         5         6        27        28     9      180.000000       15.861907         2
         5         6        27        28     9        0.000000       -1.469751         3
         5         6        27        28     9      180.000000       -0.131811         4
         5         6        27        48     9        0.000000        0.034995         1
         5         6        27        48     9      180.000000       12.257033         2
         5         6        27        48     9        0.000000       -0.533827         3
         5         6        27        48     9      180.000000        0.241321         4
         6         5         4        34     9        0.000000        0.111932         1
         6         5         4        34     9      180.000000       13.581334         2
         6         5         4        34     9        0.000000       -0.541303         3
         6         5         4        34     9      180.000000        0.103444         4
         6         7         8         9     9        0.000000       -0.063460         1
         6         7         8         9     9      180.000000        6.941862         2
         6         7         8         9     9        0.000000       -0.023426         3
         6         7         8         9     9      180.000000       -0.540130         4
         6         7         8        16     9        0.000000        2.326493         1
         6         7         8        16     9      180.000000        5.951173         2
         6         7         8        16     9        0.000000        0.374079         3
         6         7         8        16     9      180.000000       -0.366443         4
         6        27        28        29     9        0.000000        0.361152         1
         6        27        28        29     9      180.000000       18.377753         2
         6        27        28        29     9        0.000000        0.246867         3
         6        27        28        29     9      180.000000       -0.381467         4
         7         6         5        35     9        0.000000       -0.024104         1
         7         6         5        35     9      180.000000       14.277814         2
         7         6         5        35     9        0.000000       -0.040262         3
         7         6         5        35     9      180.000000        0.129898         4
         7         6        27        28     9        0.000000       -0.012406         1
         7         6        27        28     9      180.000000       16.138685         2
         7         6        27        28     9        0.000000       -0.036311         3
         7         6        27        28     9      180.000000       -0.361374         4
         7         6        27        48     9        0.000000       -0.145209         1
         7         6        27        48     9      180.000000       13.428408         2
         7         6        27        48     9        0.000000       -0.139710         3
         7         6        27        48     9      180.000000        0.230595         4
         7         8         9        10     9        0.000000        1.951509         1
         7         8         9        10     9      180.000000       24.652783         2
         7         8         9        10     9        0.000000        0.715070         3
         7         8         9        10     9      180.000000       -1.032910         4
         7         8        16        12     9        0.000000        0.532707         1
         7         8        16        12     9      180.000000       12.023478         2
         7         8        16        12     9        0.000000        0.177021         3
         7         8        16        12     9      180.000000       -0.593144         4
         7         8        16        15     9        0.000000       -0.356301         1
         7         8        16        15     9      180.000000       10.853867         2
         7         8        16        15     9        0.000000       -0.107328         3
         7         8        16        15     9      180.000000       -0.464327         4
         8         7         6        27     9        0.000000       -0.444928         1
         8         7         6        27     9      180.000000        3.391439         2
         8         7         6        27     9        0.000000       -0.254058         3
         8         7         6        27     9      180.000000        0.430933         4
         8         9        10        11     9        0.000000        0.719165         1
         8         9        10        11     9      180.000000       14.039441         2
         8         9        10        11     9        0.000000       -0.314494         3
         8         9        10        11     9      180.000000        0.008929         4
         8         9        10        17     9        0.000000        1.445542         1
         8         9        10        17     9      180.000000       19.229603         2
         8         9        10        17     9        0.000000        0.786845         3
         8         9        10        17     9      180.000000       -1.071440         4
         8        16        12        11     9        0.000000        0.336094         1
         8        16        12        11     9      180.000000        5.818601         2
         8        16        12        11     9        0.000000       -0.152114         3
         8        16        12        11     9      180.000000        0.132156         4
         8        16        12        13     9        0.000000       -0.529939         1
         8        16        12        13     9      180.000000        7.254573         2
         8        16        12        13     9        0.000000       -2.285934         3
         8        16        12        13     9      180.000000        0.374903         4
         8        16        15        14     9        0.000000        1.546001         1
         8        16        15        14     9      180.000000       16.470755         2
         8        16        15        14     9        0.000000       -0.373495         3
         8        16        15        14     9      180.000000        0.010417         4
         9         8         7        36     9        0.000000       11.523807         1
         9         8         7        36     9      180.000000        6.631591         2
         9         8         7        36     9        0.000000       -0.396116         3
         9         8         7        36     9      180.000000        0.130891         4
         9         8        16        12     9        0.000000        0.074465         1
         9         8        16        12     9      180.000000        9.225927         2
         9         8        16        12     9        0.000000       -0.506602         3
         9         8        16        12     9      180.000000       -0.319551         4
         9         8        16        15     9        0.000000       -1.876350         1
         9         8        16        15     9      180.000000        6.439925         2
         9         8        16        15     9        0.000000       -0.083074         3
         9         8        16        15     9      180.000000       -0.429493         4
         9        10        11        12     9        0.000000       -0.675783         1
         9        10        11        12     9      180.000000       29.985444         2
         9        10        11        12     9        0.000000       -1.169962         3
         9        10        11        12     9      180.000000       -1.656421         4
         9        10        11        37     9        0.000000        0.200694         1
         9        10        11        37     9      180.000000       18.199238         2
         9        10        11        37     9        0.000000        0.235601         3
         9        10        11        37     9      180.000000       -0.569365         4
         9        10        17        18     9        0.000000        0.110047         1
         9        10        17        18     9      180.000000        4.174425         2
         9        10        17        18     9        0.000000       -0.266030         3
         9        10        17        18     9      180.000000        0.228146         4
         9        10        17        22     9        0.000000       -0.600839         1
         9        10        17        22     9      180.000000        3.925342         2
         9        10        17        22     9        0.000000        0.582899         3
         9        10        17        22     9      180.000000       -0.007585         4
        10         9         8        16     9        0.000000        1.310109         1
        10         9         8        16     9      180.000000       21.929358         2
        10         9         8        16     9        0.000000        0.580845         3
        10         9         8        16     9      180.000000       -0.600486         4
        10        11        12        13     9        0.000000        0.281989         1
        10        11        12        13     9      180.000000        4.769347         2
        10        11        12        13     9        0.000000        0.163024         3
        10        11        12        13     9      180.000000        0.116975         4
        10        11        12        16     9        0.000000       -0.800355         1
        10        11        12        16     9      180.000000        8.889284         2
        10        11        12        16     9        0.000000       -1.045694         3
        10        11        12        16     9      180.000000       -0.029784         4
        10        17        18        19     9        0.000000        0.367306         1
        10        17        18        19     9      180.000000       15.701891         2
        10        17        18        19     9        0.000000        0.024827         3
        10        17        18        19     9      180.000000       -0.195600         4
        10        17        18        40     9        0.000000       -0.100697         1
        10        17        18        40     9      180.000000       12.745403         2
        10        17        18        40     9        0.000000       -0.097837         3
        10        17        18        40     9      180.000000        0.274558         4
        10        17        22        21     9        0.000000        0.080641         1
        10        17        22        21     9      180.000000       14.260605         2
        10        17        22        21     9        0.000000       -0.017717         3
        10        17        22        21     9      180.000000       -0.266607         4
        10        17        22        23     9        0.000000       -0.096116         1
        10        17        22        23     9      180.000000       14.270330         2
        10        17        22        23     9        0.000000        0.005675         3
        10        17        22        23     9      180.000000       -0.279650         4
        11        10        17        18     9        0.000000       -0.321667         1
        11        10        17        18     9      180.000000        3.876251         2
        11        10        17        18     9        0.000000        0.743442         3
        11        10        17        18     9      180.000000       -0.014137         4
        11        10        17        22     9        0.000000       -0.267986         1
        11        10        17        22     9      180.000000        3.430291         2
        11        10        17        22     9        0.000000       -0.999703         3
        11        10        17        22     9      180.000000        0.338504         4
        11        12        13        14     9        0.000000        0.895419         1
        11        12        13        14     9      180.000000        5.328467         2
        11        12        13        14     9        0.000000        0.754329         3
        11        12        13        14     9      180.000000       -0.043317         4
        11        12        13        38     9        0.000000        0.154014         1
        11        12        13        38     9      180.000000        3.700532         2
        11        12        13        38     9        0.000000        0.395780         3
        11        12        13        38     9      180.000000        0.065139         4
        11        12        16        15     9        0.000000        0.552645         1
        11        12        16        15     9      180.000000        7.796993         2
        11        12        16        15     9        0.000000       -0.698396         3
        11        12        16        15     9      180.000000        0.135413         4
        12        11        10        17     9        0.000000        0.157151         1
        12        11        10        17     9      180.000000       26.837112         2
        12        11        10        17     9        0.000000        0.471166         3
        12        11        10        17     9      180.000000       -1.700545         4
        12        13        14        15     9        0.000000       -0.258793         1
        12        13        14        15     9      180.000000       36.323027         2
        12        13        14        15     9        0.000000       -7.442937         3
        12        13        14        15     9      180.000000       -0.839992         4
        12        13        14        39     9        0.000000        0.279819         1
        12        13        14        39     9      180.000000       18.770133         2
        12        13        14        39     9        0.000000       -0.507968         3
        12        13        14        39     9      180.000000       -0.564047         4
        12        16        15        14     9        0.000000       -0.172777         1
        12        16        15        14     9      180.000000       37.627789         2
        12        16        15        14     9        0.000000       -7.120096         3
        12        16        15        14     9      180.000000        0.116816         4
        13        12        11        37     9        0.000000       -0.220887         1
        13        12        11        37     9      180.000000        3.436218         2
        13        12        11        37     9        0.000000        0.286108         3
        13        12        11        37     9      180.000000        0.060276         4
        13        12        16        15     9        0.000000        0.131710         1
        13        12        16        15     9      180.000000       15.566772         2
        13        12        16        15     9        0.000000       -7.866552         3
        13        12        16        15     9      180.000000        0.257373         4
        13        14        15        16     9        0.000000       -0.255849         1
        13        14        15        16     9      180.000000       31.025341         2
        13        14        15        16     9        0.000000       -4.653101         3
        13        14        15        16     9      180.000000        0.341646         4
        14        13        12        16     9        0.000000        0.086044         1
        14        13        12        16     9      180.000000       25.283693         2
        14        13        12        16     9        0.000000       -9.272059         3
        14        13        12        16     9      180.000000        0.296509         4
        15        14        13        38     9        0.000000        0.292780         1
        15        14        13        38     9      180.000000       15.681647         2
        15        14        13        38     9        0.000000       -0.422048         3
        15        14        13        38     9      180.000000       -0.479005         4
        16         8         7        36     9        0.000000        3.047131         1
        16         8         7        36     9      180.000000        7.216451         2
        16         8         7        36     9        0.000000       -0.156869         3
        16         8         7        36     9      180.000000        0.486791         4
        16        12        11        37     9        0.000000        0.526837         1
        16        12        11        37     9      180.000000        4.408696         2
        16        12        11        37     9        0.000000        0.413474         3
        16        12        11        37     9      180.000000        0.109353         4
        16        12        13        38     9        0.000000        1.026521         1
        16        12        13        38     9      180.000000        6.099846         2
        16        12        13        38     9        0.000000        0.349087         3
        16        12        13        38     9      180.000000        0.232409         4
        16        15        14        39     9        0.000000        2.009587         1
        16        15        14        39     9      180.000000       22.682230         2
        16        15        14        39     9        0.000000        0.566970         3
        16        15        14        39     9      180.000000       -0.265560         4
        17        10        11        37     9        0.000000        0.000755         1
        17        10        11        37     9      180.000000       15.412563         2
        17        10        11        37     9        0.000000        0.327147         3
        17        10        11        37     9      180.000000       -0.053015         4
        17        18        19        20     9        0.000000        0.019674         1
        17        18        19        20     9      180.000000       19.491522         2
        17        18        19        20     9        0.000000       -1.795181         3
        17        18        19        20     9      180.000000       -0.453195         4
        17        18        19        41     9        0.000000       -0.028329         1
        17        18        19        41     9      180.000000       15.241071         2
        17        18        19        41     9        0.000000       -0.695765         3
        17        18        19        41     9      180.000000        0.068948         4
        17        22        21        20     9        0.000000        0.115035         1
        17        22        21        20     9      180.000000       19.298429         2
        17        22        21        20     9        0.000000       -1.291028         3
        17        22        21        20     9      180.000000       -0.548722         4
        17        22        21        42     9        0.000000        0.022072         1
        17        22        21        42     9      180.000000       14.453211         2
        17        22        21        42     9        0.000000       -0.487548         3
        17        22        21        42     9      180.000000        0.183834         4
        17        22        23        43     9        0.000000        0.011100         1
        17        22        23        43     9      180.000000        0.018373         2
        17        22        23        43     9        0.000000        0.515967         3
        17        22        23        43     9      180.000000        0.015182         4
        17        22        23        44     9        0.000000        0.011100         1
        17        22        23        44     9      180.000000        0.018373         2
        17        22        23        44     9        0.000000        0.515967         3
        17        22        23        44     9      180.000000        0.015182         4
        17        22        23        45     9        0.000000        0.011100         1
        17        22        23        45     9      180.000000        0.018373         2
        17        22        23        45     9        0.000000        0.515967         3
        17        22        23        45     9      180.000000        0.015182         4
        18        17        22        21     9        0.000000       -0.020699         1
        18        17        22        21     9      180.000000       17.391276         2
        18        17        22        21     9        0.000000       -0.894677         3
        18        17        22        21     9      180.000000       -0.402870         4
        18        17        22        23     9        0.000000       -0.023254         1
        18        17        22        23     9      180.000000       14.492786         2
        18        17        22        23     9        0.000000       -0.061693         3
        18        17        22        23     9      180.000000       -0.310936         4
        18        19        20        21     9        0.000000       -0.001468         1
        18        19        20        21     9      180.000000       18.239154         2
        18        19        20        21     9        0.000000       -1.381669         3
        18        19        20        21     9      180.000000       -0.413498         4
        18        19        20        24     9        0.000000        0.155267         1
        18        19        20        24     9      180.000000       13.504004         2
        18        19        20        24     9        0.000000       -0.238400         3
        18        19        20        24     9      180.000000       -0.280448         4
        19        18        17        22     9        0.000000        0.053479         1
        19        18        17        22     9      180.000000       17.610650         2
        19        18        17        22     9        0.000000       -1.294925         3
        19        18        17        22     9      180.000000       -0.306554         4
        19        20        21        22     9        0.000000       -0.055422         1
        19        20        21        22     9      180.000000       18.053593         2
        19        20        21        22     9        0.000000       -1.369414         3
        19        20        21        22     9      180.000000       -0.430690         4
        19        20        21        42     9        0.000000       -0.038849         1
        19        20        21        42     9      180.000000       13.834724         2
        19        20        21        42     9        0.000000       -0.650490         3
        19        20        21        42     9      180.000000        0.115217         4
        19        20        24        25     9        0.000000       -0.240236         1
        19        20        24        25     9      180.000000        3.093101         2
        19        20        24        25     9        0.000000        0.095831         3
        19        20        24        25     9      180.000000       -0.094028         4
        19        20        24        26     9        0.000000        0.483593         1
        19        20        24        26     9      180.000000        2.765249         2
        19        20        24        26     9        0.000000        0.454454         3
        19        20        24        26     9      180.000000       -0.348855         4
        20        19        18        40     9        0.000000       -0.006223         1
        20        19        18        40     9      180.000000       15.338739         2
        20        19        18        40     9        0.000000       -0.560555         3
        20        19        18        40     9      180.000000        0.134206         4
        20        21        22        23     9        0.000000        0.092333         1
        20        21        22        23     9      180.000000       17.549163         2
        20        21        22        23     9        0.000000       -0.068755         3
        20        21        22        23     9      180.000000       -0.394444         4
        20        24        26        46     9        0.000000       -1.001501         1
        20        24        26        46     9      180.000000        9.452862         2
        20        24        26        46     9        0.000000        0.964837         3
        20        24        26        46     9      180.000000       -1.277596         4
        20        24        26        47     9        0.000000       -1.001501         1
        20        24        26        47     9      180.000000        9.452862         2
        20        24        26        47     9        0.000000        0.964837         3
        20        24        26        47     9      180.000000       -1.277596         4
        21        20        19        41     9        0.000000        0.022343         1
        21        20        19        41     9      180.000000       13.837187         2
        21        20        19        41     9        0.000000       -0.603987         3
        21        20        19        41     9      180.000000        0.054568         4
        21        20        24        25     9        0.000000       -0.287591         1
        21        20        24        25     9      180.000000        3.169308         2
        21        20        24        25     9        0.000000        0.110283         3
        21        20        24        25     9      180.000000       -0.082270         4
        21        20        24        26     9        0.000000        0.597477         1
        21        20        24        26     9      180.000000        2.775394         2
        21        20        24        26     9        0.000000        0.480166         3
        21        20        24        26     9      180.000000       -0.345449         4
        21        22        23        43     9        0.000000       -0.041539         1
        21        22        23        43     9      180.000000        0.014697         2
        21        22        23        43     9        0.000000        0.065899         3
        21        22        23        43     9      180.000000        0.004854         4
        21        22        23        44     9        0.000000       -0.041539         1
        21        22        23        44     9      180.000000        0.014697         2
        21        22        23        44     9        0.000000        0.065899         3
        21        22        23        44     9      180.000000        0.004854         4
        21        22        23        45     9        0.000000       -0.041539         1
        21        22        23        45     9      180.000000        0.014697         2
        21        22        23        45     9        0.000000        0.065899         3
        21        22        23        45     9      180.000000        0.004854         4
        22        17        18        40     9        0.000000       -0.305379         1
        22        17        18        40     9      180.000000       13.856452         2
        22        17        18        40     9        0.000000       -0.564202         3
        22        17        18        40     9      180.000000        0.142268         4
        22        21        20        24     9        0.000000        0.025820         1
        22        21        20        24     9      180.000000       13.610476         2
        22        21        20        24     9        0.000000       -0.234846         3
        22        21        20        24     9      180.000000       -0.258658         4
        23        22        21        42     9        0.000000       -0.181141         1
        23        22        21        42     9      180.000000       13.575873         2
        23        22        21        42     9        0.000000       -0.374765         3
        23        22        21        42     9      180.000000        0.299022         4
        24        20        19        41     9        0.000000        0.112248         1
        24        20        19        41     9      180.000000       12.019381         2
        24        20        19        41     9        0.000000       -0.305282         3
        24        20        19        41     9      180.000000        0.033925         4
        24        20        21        42     9        0.000000        0.091121         1
        24        20        21        42     9      180.000000       12.185274         2
        24        20        21        42     9        0.000000       -0.319691         3
        24        20        21        42     9      180.000000        0.097324         4
        25        24        26        46     9        0.000000        1.493138         1
        25        24        26        46     9      180.000000       10.359282         2
        25        24        26        46     9        0.000000       -0.073973         3
        25        24        26        46     9      180.000000       -0.759783         4
        25        24        26        47     9        0.000000        1.493138         1
        25        24        26        47     9      180.000000       10.359282         2
        25        24        26        47     9        0.000000       -0.073973         3
        25        24        26        47     9      180.000000       -0.759783         4
        27         6         5        35     9        0.000000        0.074273         1
        27         6         5        35     9      180.000000       12.990241         2
        27         6         5        35     9        0.000000       -0.520768         3
        27         6         5        35     9      180.000000        0.132469         4
        27         6         7        36     9        0.000000        1.575093         1
        27         6         7        36     9      180.000000        3.198189         2
        27         6         7        36     9        0.000000        0.467524         3
        27         6         7        36     9      180.000000        0.863764         4
        27        28        29        30     9        0.000000        0.123069         1
        27        28        29        30     9      180.000000        4.737590         2
        27        28        29        30     9        0.000000       -0.815850         3
        27        28        29        30     9      180.000000        0.427563         4
        28         3         4        34     9        0.000000        0.222424         1
        28         3         4        34     9      180.000000       12.890975         2
        28         3         4        34     9        0.000000       -0.414499         3
        28         3         4        34     9      180.000000        0.189834         4
        28        29        30        49     9        0.000000       -0.006341         1
        28        29        30        49     9      180.000000       -0.005041         2
        28        29        30        49     9        0.000000        0.433370         3
        28        29        30        49     9      180.000000       -0.009039         4
        28        29        30        50     9        0.000000       -0.006341         1
        28        29        30        50     9      180.000000       -0.005041         2
        28        29        30        50     9        0.000000        0.433370         3
        28        29        30        50     9      180.000000       -0.009039         4
        28        29        30        51     9        0.000000       -0.006341         1
        28        29        30        51     9      180.000000       -0.005041         2
        28        29        30        51     9        0.000000        0.433370         3
        28        29        30        51     9      180.000000       -0.009039         4
        29        28        27        48     9        0.000000        0.102563         1
        29        28        27        48     9      180.000000       13.836839         2
        29        28        27        48     9        0.000000       -0.050823         3
        29        28        27        48     9      180.000000        0.307531         4
        34         4         5        35     9        0.000000       -0.192420         1
        34         4         5        35     9      180.000000       11.734676         2
        34         4         5        35     9        0.000000       -0.700233         3
        34         4         5        35     9      180.000000        0.222006         4
        38        13        14        39     9        0.000000       -0.357707         1
        38        13        14        39     9      180.000000        9.061502         2
        38        13        14        39     9        0.000000       -0.277918         3
        38        13        14        39     9      180.000000        0.193706         4
        40        18        19        41     9        0.000000       -0.191889         1
        40        18        19        41     9      180.000000       12.634772         2
        40        18        19        41     9        0.000000       -0.743144         3
        40        18        19        41     9      180.000000        0.369569         4

[ dihedrals ] ; impropers
;       ai        aj        ak        al funct           phase               k        pn
         8         7         9        16     4      180.000000        0.133298         2
         8         9        16         7     4      180.000000        0.133298         2
         8        16         7         9     4      180.000000        0.133298         2
        24        20        25        26     4      180.000000       25.228315         2
        24        25        26        20     4      180.000000       25.228315         2
        24        26        20        25     4      180.000000       25.228315         2

[ pairs ]
;       ai        aj funct
         1         4     1
         1        28     1
         2         5     1
         2        27     1
         2        29     1
         2        34     1
         3         6     1
         3        30     1
         3        31     1
         3        32     1
         3        33     1
         3        35     1
         3        48     1
         4         7     1
         4        27     1
         4        29     1
         5         8     1
         5        28     1
         5        36     1
         5        48     1
         6         9     1
         6        16     1
         6        29     1
         6        34     1
         7        10     1
         7        12     1
         7        15     1
         7        28     1
         7        35     1
         7        48     1
         8        11     1
         8        13     1
         8        14     1
         8        17     1
         8        27     1
         9        12     1
         9        15     1
         9        18     1
         9        22     1
         9        36     1
         9        37     1
        10        13     1
        10        16     1
        10        19     1
        10        21     1
        10        23     1
        10        40     1
        11        14     1
        11        15     1
        11        18     1
        11        22     1
        11        38     1
        12        17     1
        12        39     1
        13        37     1
        15        38     1
        16        36     1
        16        37     1
        16        38     1
        16        39     1
        17        20     1
        17        37     1
        17        41     1
        17        42     1
        17        43     1
        17        44     1
        17        45     1
        18        21     1
        18        23     1
        18        24     1
        19        22     1
        19        25     1
        19        26     1
        19        42     1
        20        23     1
        20        40     1
        20        46     1
        20        47     1
        21        25     1
        21        26     1
        21        41     1
        21        43     1
        21        44     1
        21        45     1
        22        24     1
        22        40     1
        23        42     1
        24        41     1
        24        42     1
        25        46     1
        25        47     1
        27        30     1
        27        35     1
        27        36     1
        28        34     1
        28        49     1
        28        50     1
        28        51     1
        29        48     1
        34        35     1
        38        39     1
        40        41     1
