; ITP file created by ByteFF-ML, 2026-02-21 07:49:55.241136

[ atomtypes ]
;name           bonded.type        at.num        mass        charge   ptype           sigma         epsilon
 c0bf                                   6      0.0000       0.00000       A     3.39799e-01     4.50095e-01
 o1bf                                   8      0.0000       0.00000       A     3.15802e-01     3.03422e-01
 c2bf                                   6      0.0000       0.00000       A     3.31494e-01     4.13273e-01
 c3bf                                   6      0.0000       0.00000       A     3.31460e-01     4.13344e-01
 c4bf                                   6      0.0000       0.00000       A     3.31371e-01     4.12570e-01
 c5bf                                   6      0.0000       0.00000       A     3.31310e-01     4.12073e-01
 n6bf                                   7      0.0000       0.00000       A     3.27838e-01     6.48901e-01
 c7bf                                   6      0.0000       0.00000       A     3.31293e-01     4.14462e-01
 n8bf                                   7      0.0000       0.00000       A     3.38681e-01     3.94196e-01
 c9bf                                   6      0.0000       0.00000       A     3.31466e-01     4.10308e-01
 c10bf                                  6      0.0000       0.00000       A     3.31502e-01     4.12996e-01
 n11bf                                  7      0.0000       0.00000       A     3.20544e-01     8.50304e-01
 c12bf                                  6      0.0000       0.00000       A     3.31513e-01     4.11963e-01
 c13bf                                  6      0.0000       0.00000       A     3.31488e-01     4.12482e-01
 n14bf                                  7      0.0000       0.00000       A     3.38571e-01     3.94678e-01
 c15bf                                  6      0.0000       0.00000       A     3.31524e-01     4.13157e-01
 c16bf                                  6      0.0000       0.00000       A     3.31408e-01     4.11111e-01
 c17bf                                  6      0.0000       0.00000       A     3.31457e-01     4.12731e-01
 c18bf                                  6      0.0000       0.00000       A     3.31566e-01     4.13885e-01
 c19bf                                  6      0.0000       0.00000       A     3.31430e-01     4.14033e-01
 o20bf                                  8      0.0000       0.00000       A     3.15684e-01     3.03011e-01
 c21bf                                  6      0.0000       0.00000       A     3.39729e-01     4.50594e-01
 c22bf                                  6      0.0000       0.00000       A     3.31559e-01     4.15272e-01
 c23bf                                  6      0.0000       0.00000       A     3.31810e-01     4.14571e-01
 c24bf                                  6      0.0000       0.00000       A     3.31398e-01     4.11529e-01
 o25bf                                  8      0.0000       0.00000       A     3.04663e-01     6.10710e-01
 n26bf                                  7      0.0000       0.00000       A     3.36105e-01     3.55253e-01
 c27bf                                  6      0.0000       0.00000       A     3.31426e-01     4.12512e-01
 c28bf                                  6      0.0000       0.00000       A     3.31334e-01     4.12096e-01
 o29bf                                  8      0.0000       0.00000       A     3.15839e-01     3.04251e-01
 c30bf                                  6      0.0000       0.00000       A     3.39799e-01     4.50095e-01
 h31bf                                  1      0.0000       0.00000       A     2.42080e-01     8.75859e-02
 h32bf                                  1      0.0000       0.00000       A     2.42080e-01     8.75859e-02
 h33bf                                  1      0.0000       0.00000       A     2.42080e-01     8.75859e-02
 h34bf                                  1      0.0000       0.00000       A     2.62545e-01     6.69663e-02
 h35bf                                  1      0.0000       0.00000       A     2.62478e-01     6.76031e-02
 h36bf                                  1      0.0000       0.00000       A     1.10437e-01     4.36637e-02
 h37bf                                  1      0.0000       0.00000       A     2.53936e-01     6.71690e-02
 h38bf                                  1      0.0000       0.00000       A     2.54157e-01     6.73717e-02
 h39bf                                  1      0.0000       0.00000       A     2.53844e-01     6.71387e-02
 h40bf                                  1      0.0000       0.00000       A     2.62497e-01     6.75281e-02
 h41bf                                  1      0.0000       0.00000       A     2.62624e-01     6.73062e-02
 h42bf                                  1      0.0000       0.00000       A     2.42080e-01     8.75859e-02
 h43bf                                  1      0.0000       0.00000       A     2.42080e-01     8.75859e-02
 h44bf                                  1      0.0000       0.00000       A     2.42080e-01     8.75859e-02
 h45bf                                  1      0.0000       0.00000       A     2.62773e-01     6.79910e-02
 h46bf                                  1      0.0000       0.00000       A     1.10424e-01     4.11499e-02
 h47bf                                  1      0.0000       0.00000       A     1.10424e-01     4.11499e-02
 h48bf                                  1      0.0000       0.00000       A     2.62385e-01     6.71291e-02
 h49bf                                  1      0.0000       0.00000       A     2.42080e-01     8.75859e-02
 h50bf                                  1      0.0000       0.00000       A     2.42080e-01     8.75859e-02
 h51bf                                  1      0.0000       0.00000       A     2.42080e-01     8.75859e-02

[ moleculetype ]
;name             nrexcl
 CHEMBL3265010         3

[ atoms ]
;       nr            type      resi   res      atom      cgnr      charge          mass ; qtot
         1            c0bf         1   UNL        c0         1     0.14145       12.0110 ; qtot    0.141
         2            o1bf         1   UNL        o1         2    -0.33647       15.9990 ; qtot   -0.195
         3            c2bf         1   UNL        c2         3     0.08002       12.0110 ; qtot   -0.115
         4            c3bf         1   UNL        c3         4    -0.13937       12.0110 ; qtot   -0.254
         5            c4bf         1   UNL        c4         5    -0.13475       12.0110 ; qtot   -0.389
         6            c5bf         1   UNL        c5         6     0.30239       12.0110 ; qtot   -0.087
         7            n6bf         1   UNL        n6         7    -0.91203       14.0070 ; qtot   -0.999
         8            c7bf         1   UNL        c7         8     0.67905       12.0110 ; qtot   -0.320
         9            n8bf         1   UNL        n8         9    -0.75823       14.0070 ; qtot   -1.078
        10            c9bf         1   UNL        c9        10     0.39042       12.0110 ; qtot   -0.688
        11           c10bf         1   UNL       c10        11    -0.18080       12.0110 ; qtot   -0.868
        12           n11bf         1   UNL       n11        12     0.16114       14.0070 ; qtot   -0.707
        13           c12bf         1   UNL       c12        13    -0.26112       12.0110 ; qtot   -0.968
        14           c13bf         1   UNL       c13        14    -0.04248       12.0110 ; qtot   -1.011
        15           n14bf         1   UNL       n14        15    -0.27126       14.0070 ; qtot   -1.282
        16           c15bf         1   UNL       c15        16    -0.16948       12.0110 ; qtot   -1.452
        17           c16bf         1   UNL       c16        17    -0.15072       12.0110 ; qtot   -1.602
        18           c17bf         1   UNL       c17        18    -0.04227       12.0110 ; qtot   -1.645
        19           c18bf         1   UNL       c18        19    -0.19276       12.0110 ; qtot   -1.837
        20           c19bf         1   UNL       c19        20     0.17028       12.0110 ; qtot   -1.667
        21           o20bf         1   UNL       o20        21    -0.36062       15.9990 ; qtot   -2.028
        22           c21bf         1   UNL       c21        22     0.14403       12.0110 ; qtot   -1.884
        23           c22bf         1   UNL       c22        23    -0.18984       12.0110 ; qtot   -2.073
        24           c23bf         1   UNL       c23        24    -0.00574       12.0110 ; qtot   -2.079
        25           c24bf         1   UNL       c24        25     0.61723       12.0110 ; qtot   -1.462
        26           o25bf         1   UNL       o25        26    -0.60154       15.9990 ; qtot   -2.063
        27           n26bf         1   UNL       n26        27    -0.59446       14.0070 ; qtot   -2.658
        28           c27bf         1   UNL       c27        28    -0.18949       12.0110 ; qtot   -2.847
        29           c28bf         1   UNL       c28        29     0.11411       12.0110 ; qtot   -2.733
        30           o29bf         1   UNL       o29        30    -0.33842       15.9990 ; qtot   -3.072
        31           c30bf         1   UNL       c30        31     0.14175       12.0110 ; qtot   -2.930
        32           h31bf         1   UNL       h31        32     0.04404        1.0080 ; qtot   -2.886
        33           h32bf         1   UNL       h32        33     0.04404        1.0080 ; qtot   -2.842
        34           h33bf         1   UNL       h33        34     0.04404        1.0080 ; qtot   -2.798
        35           h34bf         1   UNL       h34        35     0.12393        1.0080 ; qtot   -2.674
        36           h35bf         1   UNL       h35        36     0.13132        1.0080 ; qtot   -2.543
        37           h36bf         1   UNL       h36        37     0.50588        1.0080 ; qtot   -2.037
        38           h37bf         1   UNL       h37        38     0.15431        1.0080 ; qtot   -1.882
        39           h38bf         1   UNL       h38        39     0.22767        1.0080 ; qtot   -1.655
        40           h39bf         1   UNL       h39        40     0.22246        1.0080 ; qtot   -1.432
        41           h40bf         1   UNL       h40        41     0.12745        1.0080 ; qtot   -1.305
        42           h41bf         1   UNL       h41        42     0.12670        1.0080 ; qtot   -1.178
        43           h42bf         1   UNL       h42        43     0.04576        1.0080 ; qtot   -1.132
        44           h43bf         1   UNL       h43        44     0.04576        1.0080 ; qtot   -1.087
        45           h44bf         1   UNL       h44        45     0.04576        1.0080 ; qtot   -1.041
        46           h45bf         1   UNL       h45        46     0.14369        1.0080 ; qtot   -0.897
        47           h46bf         1   UNL       h46        47     0.31648        1.0080 ; qtot   -0.581
        48           h47bf         1   UNL       h47        48     0.31648        1.0080 ; qtot   -0.264
        49           h48bf         1   UNL       h48        49     0.13212        1.0080 ; qtot   -0.132
        50           h49bf         1   UNL       h49        50     0.04404        1.0080 ; qtot   -0.088
        51           h50bf         1   UNL       h50        51     0.04404        1.0080 ; qtot   -0.044
        52           h51bf         1   UNL       h51        52     0.04401        1.0080 ; qtot   -0.000

[ bonds ]
;       ai        aj funct               r               k
         1         2     1        0.142750   205228.507056
         1        32     1        0.109386   299034.366748
         1        33     1        0.109386   299034.366748
         1        34     1        0.109386   299034.366748
         2         3     1        0.137015   270782.100830
         3         4     1        0.139488   304008.331689
         3        29     1        0.141529   250914.434033
         4         5     1        0.140005   315466.551758
         4        35     1        0.108446   322299.133057
         5         6     1        0.140061   293503.054395
         5        36     1        0.108414   324178.051416
         6         7     1        0.141092   252182.734570
         6        28     1        0.140674   282765.542627
         7         8     1        0.136729   311607.817920
         7        37     1        0.101302   413497.768799
         8         9     1        0.132079   353344.852295
         8        16     1        0.143870   235848.075781
         9        10     1        0.137702   243451.392578
        10        11     1        0.137534   346710.055908
        10        17     1        0.148190   210153.491821
        11        12     1        0.137841   276178.679395
        11        38     1        0.108180   332005.354199
        12        13     1        0.137750   263209.071045
        12        16     1        0.138998   204565.857373
        13        14     1        0.138746   337814.101709
        13        39     1        0.107915   345078.311230
        14        15     1        0.136744   275913.399902
        14        40     1        0.108260   332273.212939
        15        16     1        0.133378   321390.292871
        17        18     1        0.140304   291892.224609
        17        24     1        0.140149   291489.300098
        18        19     1        0.139448   326619.679980
        18        41     1        0.108494   321746.944141
        19        20     1        0.140140   287731.693213
        19        42     1        0.108399   323147.858887
        20        21     1        0.137172   260722.395020
        20        23     1        0.141463   259519.801465
        21        22     1        0.142948   202664.581274
        22        43     1        0.109362   299816.491797
        22        44     1        0.109362   299816.491797
        22        45     1        0.109362   299816.491797
        23        24     1        0.139900   301199.964697
        23        25     1        0.150818   165441.064990
        24        46     1        0.108446   322884.111621
        25        26     1        0.123128   602635.585840
        25        27     1        0.137303   303257.106543
        27        47     1        0.101244   424351.219043
        27        48     1        0.101244   424351.219043
        28        29     1        0.139409   309212.462598
        28        49     1        0.108244   326136.952002
        29        30     1        0.136800   272579.862256
        30        31     1        0.142754   205101.357788
        31        50     1        0.109386   299034.341211
        31        51     1        0.109386   299034.341211
        31        52     1        0.109386   299034.341211

[ angles ]
;       ai        aj        ak funct           theta             cth
         1         2         3     1      117.082443      547.136590
         2         1        32     1      109.406631      448.806110
         2         1        33     1      109.406631      448.806110
         2         1        34     1      109.406631      448.806110
         2         3         4     1      124.061974      526.185244
         2         3        29     1      116.730186      403.093057
         3         4         5     1      121.105545      730.301061
         3         4        35     1      119.820435      430.270000
         3        29        28     1      119.959702      641.355245
         3        29        30     1      116.770729      382.344602
         4         3        29     1      118.961632      615.309053
         4         5         6     1      119.989258      692.295585
         4         5        36     1      119.981018      402.478985
         5         4        35     1      119.168861      430.731806
         5         6         7     1      121.161964      571.797075
         5         6        28     1      119.274185      562.540766
         6         5        36     1      119.993568      438.163871
         6         7         8     1      130.908600      390.906748
         6         7        37     1      115.466995      445.927919
         6        28        29     1      120.440468      771.725955
         6        28        49     1      119.557449      428.763885
         7         6        28     1      119.328491      531.273672
         7         8         9     1      121.356186      603.895561
         7         8        16     1      116.105576      347.689596
         8         7        37     1      112.198647      485.186500
         8         9        10     1      119.723656      660.395075
         8        16        12     1      117.476013      691.884693
         8        16        15     1      131.168365      328.267219
         9         8        16     1      121.162231      641.675161
         9        10        11     1      122.073318      386.369698
         9        10        17     1      116.205124      503.191279
        10        11        12     1      118.140015      872.310500
        10        11        38     1      124.923790      345.661438
        10        17        18     1      121.355209      551.902262
        10        17        24     1      120.890846      481.478288
        11        10        17     1      121.507812      452.594956
        11        12        13     1      132.322876      451.336998
        11        12        16     1      121.408890      768.949816
        12        11        38     1      117.425148      489.799204
        12        13        14     1      105.222717      375.667031
        12        13        39     1      122.391075      461.871917
        12        16        15     1      111.412987      167.360000
        13        12        16     1      106.439148      167.360000
        13        14        15     1      111.710022      296.607652
        13        14        40     1      126.932030      353.254706
        14        13        39     1      132.665771      296.979153
        14        15        16     1      105.148094      501.387338
        15        14        40     1      121.224686      373.698758
        17        18        19     1      120.902649      670.396046
        17        18        41     1      119.781113      423.278162
        17        24        23     1      122.163857      642.480793
        17        24        46     1      119.551353      411.232021
        18        17        24     1      117.934311      628.816779
        18        19        20     1      120.292862      739.760644
        18        19        42     1      119.627731      438.523944
        19        18        41     1      119.271927      414.975122
        19        20        21     1      122.078568      540.365043
        19        20        23     1      119.834801      602.986121
        20        19        42     1      120.122635      433.476247
        20        21        22     1      118.219482      514.205275
        20        23        24     1      118.110214      717.497073
        20        23        25     1      124.776123      663.833391
        21        20        23     1      118.102982      560.360919
        21        22        43     1      109.314148      450.587036
        21        22        44     1      109.314133      450.587068
        21        22        45     1      109.314133      450.587068
        23        24        46     1      117.173134      397.522392
        23        25        26     1      121.698532      531.455177
        23        25        27     1      116.462936      543.627089
        24        23        25     1      116.913803      524.417246
        25        27        47     1      118.200485      449.269098
        25        27        48     1      118.200485      449.269098
        26        25        27     1      121.643227      687.904032
        28        29        30     1      123.114540      463.233875
        29        28        49     1      120.054489      415.811750
        29        30        31     1      117.278854      548.766496
        30        31        50     1      109.407082      448.359562
        30        31        51     1      109.407082      448.359562
        30        31        52     1      109.407082      448.359562
        32         1        33     1      109.654236      343.283135
        32         1        34     1      109.654236      343.283135
        33         1        34     1      109.654236      343.283135
        43        22        44     1      109.694801      343.549966
        43        22        45     1      109.694801      343.549966
        44        22        45     1      109.694801      343.549966
        47        27        48     1      118.240128      301.160248
        50        31        51     1      109.654236      343.283167
        50        31        52     1      109.654236      343.283167
        51        31        52     1      109.654236      343.283167

[ dihedrals ] ; propers for gromacs 4.5 or higher, use funct 9
;       ai        aj        ak        al funct           phase               k        pn
         1         2         3         4     9        0.000000       -0.020471         1
         1         2         3         4     9      180.000000        4.264586         2
         1         2         3         4     9        0.000000       -0.661221         3
         1         2         3         4     9      180.000000        0.423658         4
         1         2         3        29     9        0.000000        0.687110         1
         1         2         3        29     9      180.000000        3.031873         2
         1         2         3        29     9        0.000000        1.138396         3
         1         2         3        29     9      180.000000        0.057396         4
         2         3         4         5     9        0.000000        0.412383         1
         2         3         4         5     9      180.000000       18.405153         2
         2         3         4         5     9        0.000000        0.286762         3
         2         3         4         5     9      180.000000       -0.248269         4
         2         3         4        35     9        0.000000        0.002515         1
         2         3         4        35     9      180.000000       13.550908         2
         2         3         4        35     9        0.000000       -0.035816         3
         2         3         4        35     9      180.000000        0.307724         4
         2         3        29        28     9        0.000000        0.190228         1
         2         3        29        28     9      180.000000       12.913656         2
         2         3        29        28     9        0.000000       -0.036672         3
         2         3        29        28     9      180.000000        0.087435         4
         2         3        29        30     9        0.000000       -0.231151         1
         2         3        29        30     9      180.000000       16.200532         2
         2         3        29        30     9        0.000000       -0.225092         3
         2         3        29        30     9      180.000000       -0.129585         4
         3         2         1        32     9        0.000000       -0.002785         1
         3         2         1        32     9      180.000000       -0.013204         2
         3         2         1        32     9        0.000000        0.475747         3
         3         2         1        32     9      180.000000       -0.002909         4
         3         2         1        33     9        0.000000       -0.002785         1
         3         2         1        33     9      180.000000       -0.013204         2
         3         2         1        33     9        0.000000        0.475747         3
         3         2         1        33     9      180.000000       -0.002909         4
         3         2         1        34     9        0.000000       -0.002785         1
         3         2         1        34     9      180.000000       -0.013204         2
         3         2         1        34     9        0.000000        0.475747         3
         3         2         1        34     9      180.000000       -0.002909         4
         3         4         5         6     9        0.000000       -0.173495         1
         3         4         5         6     9      180.000000       17.663552         2
         3         4         5         6     9        0.000000       -1.660356         3
         3         4         5         6     9      180.000000       -0.412935         4
         3         4         5        36     9        0.000000        0.149237         1
         3         4         5        36     9      180.000000       14.141559         2
         3         4         5        36     9        0.000000       -0.494779         3
         3         4         5        36     9      180.000000        0.094379         4
         3        29        28         6     9        0.000000       -0.132619         1
         3        29        28         6     9      180.000000       16.584041         2
         3        29        28         6     9        0.000000       -1.316973         3
         3        29        28         6     9      180.000000       -0.328534         4
         3        29        28        49     9        0.000000        0.166400         1
         3        29        28        49     9      180.000000       12.784533         2
         3        29        28        49     9        0.000000       -0.336161         3
         3        29        28        49     9      180.000000        0.291888         4
         3        29        30        31     9        0.000000        0.802291         1
         3        29        30        31     9      180.000000        3.527079         2
         3        29        30        31     9        0.000000        1.195050         3
         3        29        30        31     9      180.000000        0.043134         4
         4         3        29        28     9        0.000000        0.246300         1
         4         3        29        28     9      180.000000       12.038167         2
         4         3        29        28     9        0.000000       -0.447743         3
         4         3        29        28     9      180.000000       -0.093295         4
         4         3        29        30     9        0.000000        0.312921         1
         4         3        29        30     9      180.000000       12.963699         2
         4         3        29        30     9        0.000000       -0.020336         3
         4         3        29        30     9      180.000000        0.087697         4
         4         5         6         7     9        0.000000        0.132129         1
         4         5         6         7     9      180.000000       17.832522         2
         4         5         6         7     9        0.000000        0.097463         3
         4         5         6         7     9      180.000000       -0.336845         4
         4         5         6        28     9        0.000000       -0.023969         1
         4         5         6        28     9      180.000000       17.298060         2
         4         5         6        28     9        0.000000       -1.297561         3
         4         5         6        28     9      180.000000       -0.244555         4
         5         4         3        29     9        0.000000        0.101367         1
         5         4         3        29     9      180.000000       16.812105         2
         5         4         3        29     9        0.000000       -1.160185         3
         5         4         3        29     9      180.000000       -0.311315         4
         5         6         7         8     9        0.000000        0.443064         1
         5         6         7         8     9      180.000000        3.120267         2
         5         6         7         8     9        0.000000       -0.198859         3
         5         6         7         8     9      180.000000        0.465134         4
         5         6         7        37     9        0.000000       -0.086586         1
         5         6         7        37     9      180.000000        3.309236         2
         5         6         7        37     9        0.000000        0.058468         3
         5         6         7        37     9      180.000000        0.892657         4
         5         6        28        29     9        0.000000        0.041058         1
         5         6        28        29     9      180.000000       15.861907         2
         5         6        28        29     9        0.000000       -1.469751         3
         5         6        28        29     9      180.000000       -0.131811         4
         5         6        28        49     9        0.000000        0.034995         1
         5         6        28        49     9      180.000000       12.257033         2
         5         6        28        49     9        0.000000       -0.533827         3
         5         6        28        49     9      180.000000        0.241321         4
         6         5         4        35     9        0.000000        0.111932         1
         6         5         4        35     9      180.000000       13.581334         2
         6         5         4        35     9        0.000000       -0.541303         3
         6         5         4        35     9      180.000000        0.103444         4
         6         7         8         9     9        0.000000       -0.142316         1
         6         7         8         9     9      180.000000        7.089439         2
         6         7         8         9     9        0.000000        0.006697         3
         6         7         8         9     9      180.000000       -0.538883         4
         6         7         8        16     9        0.000000        2.326493         1
         6         7         8        16     9      180.000000        5.951173         2
         6         7         8        16     9        0.000000        0.374079         3
         6         7         8        16     9      180.000000       -0.366443         4
         6        28        29        30     9        0.000000        0.361152         1
         6        28        29        30     9      180.000000       18.377753         2
         6        28        29        30     9        0.000000        0.246867         3
         6        28        29        30     9      180.000000       -0.381467         4
         7         6         5        36     9        0.000000       -0.024104         1
         7         6         5        36     9      180.000000       14.277814         2
         7         6         5        36     9        0.000000       -0.040262         3
         7         6         5        36     9      180.000000        0.129898         4
         7         6        28        29     9        0.000000       -0.012406         1
         7         6        28        29     9      180.000000       16.138685         2
         7         6        28        29     9        0.000000       -0.036311         3
         7         6        28        29     9      180.000000       -0.361374         4
         7         6        28        49     9        0.000000       -0.145209         1
         7         6        28        49     9      180.000000       13.428408         2
         7         6        28        49     9        0.000000       -0.139710         3
         7         6        28        49     9      180.000000        0.230595         4
         7         8         9        10     9        0.000000        1.964182         1
         7         8         9        10     9      180.000000       24.409540         2
         7         8         9        10     9        0.000000        0.721435         3
         7         8         9        10     9      180.000000       -0.981985         4
         7         8        16        12     9        0.000000        0.532707         1
         7         8        16        12     9      180.000000       12.023478         2
         7         8        16        12     9        0.000000        0.177021         3
         7         8        16        12     9      180.000000       -0.593144         4
         7         8        16        15     9        0.000000       -0.356301         1
         7         8        16        15     9      180.000000       10.853867         2
         7         8        16        15     9        0.000000       -0.107328         3
         7         8        16        15     9      180.000000       -0.464327         4
         8         7         6        28     9        0.000000       -0.444928         1
         8         7         6        28     9      180.000000        3.391439         2
         8         7         6        28     9        0.000000       -0.254058         3
         8         7         6        28     9      180.000000        0.430933         4
         8         9        10        11     9        0.000000        0.932419         1
         8         9        10        11     9      180.000000       13.725350         2
         8         9        10        11     9        0.000000       -0.291373         3
         8         9        10        11     9      180.000000       -0.023212         4
         8         9        10        17     9        0.000000        1.448398         1
         8         9        10        17     9      180.000000       18.120816         2
         8         9        10        17     9        0.000000        0.632175         3
         8         9        10        17     9      180.000000       -1.027661         4
         8        16        12        11     9        0.000000        0.337956         1
         8        16        12        11     9      180.000000        5.783879         2
         8        16        12        11     9        0.000000       -0.143386         3
         8        16        12        11     9      180.000000        0.124531         4
         8        16        12        13     9        0.000000       -0.529939         1
         8        16        12        13     9      180.000000        7.254573         2
         8        16        12        13     9        0.000000       -2.285934         3
         8        16        12        13     9      180.000000        0.374903         4
         8        16        15        14     9        0.000000        1.546001         1
         8        16        15        14     9      180.000000       16.470755         2
         8        16        15        14     9        0.000000       -0.373495         3
         8        16        15        14     9      180.000000        0.010417         4
         9         8         7        37     9        0.000000       11.455044         1
         9         8         7        37     9      180.000000        6.774556         2
         9         8         7        37     9        0.000000       -0.382910         3
         9         8         7        37     9      180.000000        0.129606         4
         9         8        16        12     9        0.000000       -0.061703         1
         9         8        16        12     9      180.000000        9.290064         2
         9         8        16        12     9        0.000000       -0.534588         3
         9         8        16        12     9      180.000000       -0.340850         4
         9         8        16        15     9        0.000000       -1.860286         1
         9         8        16        15     9      180.000000        6.551764         2
         9         8        16        15     9        0.000000       -0.109909         3
         9         8        16        15     9      180.000000       -0.440551         4
         9        10        11        12     9        0.000000       -0.644093         1
         9        10        11        12     9      180.000000       29.876525         2
         9        10        11        12     9        0.000000       -1.098483         3
         9        10        11        12     9      180.000000       -1.727717         4
         9        10        11        38     9        0.000000        0.308596         1
         9        10        11        38     9      180.000000       17.753438         2
         9        10        11        38     9        0.000000        0.220188         3
         9        10        11        38     9      180.000000       -0.557954         4
         9        10        17        18     9        0.000000       -0.205026         1
         9        10        17        18     9      180.000000        4.149982         2
         9        10        17        18     9        0.000000        0.009049         3
         9        10        17        18     9      180.000000        0.065088         4
         9        10        17        24     9        0.000000       -0.208226         1
         9        10        17        24     9      180.000000        4.188624         2
         9        10        17        24     9        0.000000       -0.133440         3
         9        10        17        24     9      180.000000        0.075088         4
        10         9         8        16     9        0.000000        0.950280         1
        10         9         8        16     9      180.000000       22.114476         2
        10         9         8        16     9        0.000000        0.588585         3
        10         9         8        16     9      180.000000       -0.565663         4
        10        11        12        13     9        0.000000        0.471966         1
        10        11        12        13     9      180.000000        4.973018         2
        10        11        12        13     9        0.000000        0.246173         3
        10        11        12        13     9      180.000000        0.108343         4
        10        11        12        16     9        0.000000       -0.637452         1
        10        11        12        16     9      180.000000        9.281699         2
        10        11        12        16     9        0.000000       -1.036307         3
        10        11        12        16     9      180.000000       -0.051108         4
        10        17        18        19     9        0.000000        0.088410         1
        10        17        18        19     9      180.000000       15.463962         2
        10        17        18        19     9        0.000000       -0.238196         3
        10        17        18        19     9      180.000000       -0.211884         4
        10        17        18        41     9        0.000000       -0.049224         1
        10        17        18        41     9      180.000000       12.443014         2
        10        17        18        41     9        0.000000       -0.180627         3
        10        17        18        41     9      180.000000        0.186169         4
        10        17        24        23     9        0.000000       -0.025735         1
        10        17        24        23     9      180.000000       15.815824         2
        10        17        24        23     9        0.000000       -0.222272         3
        10        17        24        23     9      180.000000       -0.394648         4
        10        17        24        46     9        0.000000       -0.108186         1
        10        17        24        46     9      180.000000       12.273160         2
        10        17        24        46     9        0.000000       -0.171476         3
        10        17        24        46     9      180.000000        0.207895         4
        11        10        17        18     9        0.000000       -0.415241         1
        11        10        17        18     9      180.000000        3.454696         2
        11        10        17        18     9        0.000000        0.250703         3
        11        10        17        18     9      180.000000       -0.206859         4
        11        10        17        24     9        0.000000       -0.597085         1
        11        10        17        24     9      180.000000        3.471045         2
        11        10        17        24     9        0.000000        0.300203         3
        11        10        17        24     9      180.000000       -0.227689         4
        11        12        13        14     9        0.000000        0.965502         1
        11        12        13        14     9      180.000000        5.223294         2
        11        12        13        14     9        0.000000        0.739375         3
        11        12        13        14     9      180.000000       -0.040295         4
        11        12        13        39     9        0.000000        0.156545         1
        11        12        13        39     9      180.000000        3.679925         2
        11        12        13        39     9        0.000000        0.374385         3
        11        12        13        39     9      180.000000        0.064056         4
        11        12        16        15     9        0.000000        0.555178         1
        11        12        16        15     9      180.000000        7.752461         2
        11        12        16        15     9        0.000000       -0.729377         3
        11        12        16        15     9      180.000000        0.134979         4
        12        11        10        17     9        0.000000        0.176986         1
        12        11        10        17     9      180.000000       26.734421         2
        12        11        10        17     9        0.000000        0.383342         3
        12        11        10        17     9      180.000000       -1.845323         4
        12        13        14        15     9        0.000000       -0.258793         1
        12        13        14        15     9      180.000000       36.323027         2
        12        13        14        15     9        0.000000       -7.442937         3
        12        13        14        15     9      180.000000       -0.839992         4
        12        13        14        40     9        0.000000        0.279818         1
        12        13        14        40     9      180.000000       18.770131         2
        12        13        14        40     9        0.000000       -0.507968         3
        12        13        14        40     9      180.000000       -0.564047         4
        12        16        15        14     9        0.000000       -0.172777         1
        12        16        15        14     9      180.000000       37.627789         2
        12        16        15        14     9        0.000000       -7.120096         3
        12        16        15        14     9      180.000000        0.116816         4
        13        12        11        38     9        0.000000       -0.211391         1
        13        12        11        38     9      180.000000        3.543757         2
        13        12        11        38     9        0.000000        0.304368         3
        13        12        11        38     9      180.000000        0.067334         4
        13        12        16        15     9        0.000000        0.131710         1
        13        12        16        15     9      180.000000       15.566772         2
        13        12        16        15     9        0.000000       -7.866552         3
        13        12        16        15     9      180.000000        0.257373         4
        13        14        15        16     9        0.000000       -0.255849         1
        13        14        15        16     9      180.000000       31.025341         2
        13        14        15        16     9        0.000000       -4.653101         3
        13        14        15        16     9      180.000000        0.341646         4
        14        13        12        16     9        0.000000        0.086044         1
        14        13        12        16     9      180.000000       25.283693         2
        14        13        12        16     9        0.000000       -9.272059         3
        14        13        12        16     9      180.000000        0.296509         4
        15        14        13        39     9        0.000000        0.292780         1
        15        14        13        39     9      180.000000       15.681647         2
        15        14        13        39     9        0.000000       -0.422048         3
        15        14        13        39     9      180.000000       -0.479005         4
        16         8         7        37     9        0.000000        3.047131         1
        16         8         7        37     9      180.000000        7.216451         2
        16         8         7        37     9        0.000000       -0.156869         3
        16         8         7        37     9      180.000000        0.486791         4
        16        12        11        38     9        0.000000        0.560809         1
        16        12        11        38     9      180.000000        4.562283         2
        16        12        11        38     9        0.000000        0.396933         3
        16        12        11        38     9      180.000000        0.102239         4
        16        12        13        39     9        0.000000        1.026521         1
        16        12        13        39     9      180.000000        6.099846         2
        16        12        13        39     9        0.000000        0.349087         3
        16        12        13        39     9      180.000000        0.232409         4
        16        15        14        40     9        0.000000        2.009586         1
        16        15        14        40     9      180.000000       22.682232         2
        16        15        14        40     9        0.000000        0.566971         3
        16        15        14        40     9      180.000000       -0.265561         4
        17        10        11        38     9        0.000000       -0.045351         1
        17        10        11        38     9      180.000000       14.958070         2
        17        10        11        38     9        0.000000        0.265291         3
        17        10        11        38     9      180.000000       -0.023886         4
        17        18        19        20     9        0.000000       -0.180898         1
        17        18        19        20     9      180.000000       18.810886         2
        17        18        19        20     9        0.000000       -1.815246         3
        17        18        19        20     9      180.000000       -0.554833         4
        17        18        19        42     9        0.000000       -0.000668         1
        17        18        19        42     9      180.000000       14.405771         2
        17        18        19        42     9        0.000000       -0.562775         3
        17        18        19        42     9      180.000000        0.059881         4
        17        24        23        20     9        0.000000       -0.262159         1
        17        24        23        20     9      180.000000       18.567290         2
        17        24        23        20     9        0.000000       -1.539071         3
        17        24        23        20     9      180.000000       -0.476349         4
        17        24        23        25     9        0.000000        0.187515         1
        17        24        23        25     9      180.000000       14.380210         2
        17        24        23        25     9        0.000000       -0.085535         3
        17        24        23        25     9      180.000000       -0.323808         4
        18        17        24        23     9        0.000000       -0.154045         1
        18        17        24        23     9      180.000000       17.869908         2
        18        17        24        23     9        0.000000       -1.562239         3
        18        17        24        23     9      180.000000       -0.397663         4
        18        17        24        46     9        0.000000       -0.020463         1
        18        17        24        46     9      180.000000       13.717857         2
        18        17        24        46     9        0.000000       -0.649109         3
        18        17        24        46     9      180.000000        0.057096         4
        18        19        20        21     9        0.000000        0.691309         1
        18        19        20        21     9      180.000000       18.786177         2
        18        19        20        21     9        0.000000        0.563520         3
        18        19        20        21     9      180.000000       -0.350775         4
        18        19        20        23     9        0.000000        0.143189         1
        18        19        20        23     9      180.000000       15.783854         2
        18        19        20        23     9        0.000000       -0.935539         3
        18        19        20        23     9      180.000000       -0.212112         4
        19        18        17        24     9        0.000000       -0.045902         1
        19        18        17        24     9      180.000000       18.374986         2
        19        18        17        24     9        0.000000       -1.476756         3
        19        18        17        24     9      180.000000       -0.338336         4
        19        20        21        22     9        0.000000       -0.090973         1
        19        20        21        22     9      180.000000        4.562389         2
        19        20        21        22     9        0.000000       -0.636909         3
        19        20        21        22     9      180.000000        0.584689         4
        19        20        23        24     9        0.000000        0.058211         1
        19        20        23        24     9      180.000000       13.074754         2
        19        20        23        24     9        0.000000       -0.533626         3
        19        20        23        24     9      180.000000       -0.187243         4
        19        20        23        25     9        0.000000       -0.053742         1
        19        20        23        25     9      180.000000       10.780764         2
        19        20        23        25     9        0.000000       -0.061416         3
        19        20        23        25     9      180.000000       -0.299410         4
        20        19        18        41     9        0.000000        0.206531         1
        20        19        18        41     9      180.000000       15.111678         2
        20        19        18        41     9        0.000000       -0.548818         3
        20        19        18        41     9      180.000000        0.015463         4
        20        21        22        43     9        0.000000        0.006758         1
        20        21        22        43     9      180.000000        0.021828         2
        20        21        22        43     9        0.000000        0.045489         3
        20        21        22        43     9      180.000000       -0.045871         4
        20        21        22        44     9        0.000000        0.006758         1
        20        21        22        44     9      180.000000        0.021828         2
        20        21        22        44     9        0.000000        0.045489         3
        20        21        22        44     9      180.000000       -0.045871         4
        20        21        22        45     9        0.000000        0.006758         1
        20        21        22        45     9      180.000000        0.021828         2
        20        21        22        45     9        0.000000        0.045489         3
        20        21        22        45     9      180.000000       -0.045871         4
        20        23        24        46     9        0.000000        0.175345         1
        20        23        24        46     9      180.000000       14.450734         2
        20        23        24        46     9        0.000000       -0.646176         3
        20        23        24        46     9      180.000000        0.104439         4
        20        23        25        26     9        0.000000       -4.492907         1
        20        23        25        26     9      180.000000        3.305253         2
        20        23        25        26     9        0.000000        0.693764         3
        20        23        25        26     9      180.000000       -0.072479         4
        20        23        25        27     9        0.000000        0.360301         1
        20        23        25        27     9      180.000000        2.849460         2
        20        23        25        27     9        0.000000       -0.463588         3
        20        23        25        27     9      180.000000        0.064488         4
        21        20        19        42     9        0.000000        0.109524         1
        21        20        19        42     9      180.000000       14.133132         2
        21        20        19        42     9        0.000000        0.065292         3
        21        20        19        42     9      180.000000        0.297928         4
        21        20        23        24     9        0.000000        0.488536         1
        21        20        23        24     9      180.000000       14.326709         2
        21        20        23        24     9        0.000000        0.297079         3
        21        20        23        24     9      180.000000       -0.131428         4
        21        20        23        25     9        0.000000        0.098683         1
        21        20        23        25     9      180.000000       13.179183         2
        21        20        23        25     9        0.000000        0.471261         3
        21        20        23        25     9      180.000000       -0.498160         4
        22        21        20        23     9        0.000000        0.204275         1
        22        21        20        23     9      180.000000        4.183471         2
        22        21        20        23     9        0.000000        0.129087         3
        22        21        20        23     9      180.000000        0.454228         4
        23        20        19        42     9        0.000000        0.200252         1
        23        20        19        42     9      180.000000       12.378705         2
        23        20        19        42     9        0.000000       -0.466847         3
        23        20        19        42     9      180.000000        0.238437         4
        23        25        27        47     9        0.000000        0.329723         1
        23        25        27        47     9      180.000000        9.165549         2
        23        25        27        47     9        0.000000        0.759311         3
        23        25        27        47     9      180.000000       -1.677855         4
        23        25        27        48     9        0.000000        0.329723         1
        23        25        27        48     9      180.000000        9.165549         2
        23        25        27        48     9        0.000000        0.759311         3
        23        25        27        48     9      180.000000       -1.677855         4
        24        17        18        41     9        0.000000       -0.084184         1
        24        17        18        41     9      180.000000       14.038952         2
        24        17        18        41     9        0.000000       -0.720303         3
        24        17        18        41     9      180.000000        0.076438         4
        24        23        25        26     9        0.000000        1.006745         1
        24        23        25        26     9      180.000000        2.809659         2
        24        23        25        26     9        0.000000       -0.327948         3
        24        23        25        26     9      180.000000        0.086555         4
        24        23        25        27     9        0.000000        0.773788         1
        24        23        25        27     9      180.000000        2.448270         2
        24        23        25        27     9        0.000000        0.822541         3
        24        23        25        27     9      180.000000       -0.292026         4
        25        23        24        46     9        0.000000       -0.046552         1
        25        23        24        46     9      180.000000       12.457395         2
        25        23        24        46     9        0.000000       -0.374272         3
        25        23        24        46     9      180.000000        0.178961         4
        26        25        27        47     9        0.000000        1.212711         1
        26        25        27        47     9      180.000000       12.198563         2
        26        25        27        47     9        0.000000       -0.082428         3
        26        25        27        47     9      180.000000       -1.026191         4
        26        25        27        48     9        0.000000        1.212711         1
        26        25        27        48     9      180.000000       12.198563         2
        26        25        27        48     9        0.000000       -0.082428         3
        26        25        27        48     9      180.000000       -1.026191         4
        28         6         5        36     9        0.000000        0.074273         1
        28         6         5        36     9      180.000000       12.990241         2
        28         6         5        36     9        0.000000       -0.520768         3
        28         6         5        36     9      180.000000        0.132469         4
        28         6         7        37     9        0.000000        1.575093         1
        28         6         7        37     9      180.000000        3.198189         2
        28         6         7        37     9        0.000000        0.467524         3
        28         6         7        37     9      180.000000        0.863764         4
        28        29        30        31     9        0.000000        0.123069         1
        28        29        30        31     9      180.000000        4.737590         2
        28        29        30        31     9        0.000000       -0.815850         3
        28        29        30        31     9      180.000000        0.427563         4
        29         3         4        35     9        0.000000        0.222424         1
        29         3         4        35     9      180.000000       12.890975         2
        29         3         4        35     9        0.000000       -0.414499         3
        29         3         4        35     9      180.000000        0.189834         4
        29        30        31        50     9        0.000000       -0.006341         1
        29        30        31        50     9      180.000000       -0.005041         2
        29        30        31        50     9        0.000000        0.433370         3
        29        30        31        50     9      180.000000       -0.009039         4
        29        30        31        51     9        0.000000       -0.006341         1
        29        30        31        51     9      180.000000       -0.005041         2
        29        30        31        51     9        0.000000        0.433370         3
        29        30        31        51     9      180.000000       -0.009039         4
        29        30        31        52     9        0.000000       -0.006341         1
        29        30        31        52     9      180.000000       -0.005041         2
        29        30        31        52     9        0.000000        0.433370         3
        29        30        31        52     9      180.000000       -0.009039         4
        30        29        28        49     9        0.000000        0.102563         1
        30        29        28        49     9      180.000000       13.836841         2
        30        29        28        49     9        0.000000       -0.050823         3
        30        29        28        49     9      180.000000        0.307531         4
        35         4         5        36     9        0.000000       -0.192420         1
        35         4         5        36     9      180.000000       11.734676         2
        35         4         5        36     9        0.000000       -0.700233         3
        35         4         5        36     9      180.000000        0.222006         4
        39        13        14        40     9        0.000000       -0.357707         1
        39        13        14        40     9      180.000000        9.061504         2
        39        13        14        40     9        0.000000       -0.277918         3
        39        13        14        40     9      180.000000        0.193706         4
        41        18        19        42     9        0.000000       -0.158159         1
        41        18        19        42     9      180.000000       12.051001         2
        41        18        19        42     9        0.000000       -0.741591         3
        41        18        19        42     9      180.000000        0.343731         4

[ pairs ]
;       ai        aj funct
         1         4     1
         1        29     1
         2         5     1
         2        28     1
         2        30     1
         2        35     1
         3         6     1
         3        31     1
         3        32     1
         3        33     1
         3        34     1
         3        36     1
         3        49     1
         4         7     1
         4        28     1
         4        30     1
         5         8     1
         5        29     1
         5        37     1
         5        49     1
         6         9     1
         6        16     1
         6        30     1
         6        35     1
         7        10     1
         7        12     1
         7        15     1
         7        29     1
         7        36     1
         7        49     1
         8        11     1
         8        13     1
         8        14     1
         8        17     1
         8        28     1
         9        12     1
         9        15     1
         9        18     1
         9        24     1
         9        37     1
         9        38     1
        10        13     1
        10        16     1
        10        19     1
        10        23     1
        10        41     1
        10        46     1
        11        14     1
        11        15     1
        11        18     1
        11        24     1
        11        39     1
        12        17     1
        12        40     1
        13        38     1
        15        39     1
        16        37     1
        16        38     1
        16        39     1
        16        40     1
        17        20     1
        17        25     1
        17        38     1
        17        42     1
        18        21     1
        18        23     1
        18        46     1
        19        22     1
        19        24     1
        19        25     1
        20        26     1
        20        27     1
        20        41     1
        20        43     1
        20        44     1
        20        45     1
        20        46     1
        21        24     1
        21        25     1
        21        42     1
        22        23     1
        23        42     1
        23        47     1
        23        48     1
        24        26     1
        24        27     1
        24        41     1
        25        46     1
        26        47     1
        26        48     1
        28        31     1
        28        36     1
        28        37     1
        29        35     1
        29        50     1
        29        51     1
        29        52     1
        30        49     1
        35        36     1
        39        40     1
        41        42     1
