; ITP file created by ByteFF-ML, 2026-02-21 07:49:21.440999

[ atomtypes ]
;name           bonded.type        at.num        mass        charge   ptype           sigma         epsilon
 c0bf                                   6      0.0000       0.00000       A     3.39677e-01     4.50703e-01
 c1bf                                   6      0.0000       0.00000       A     3.39732e-01     4.51017e-01
 n2bf                                   7      0.0000       0.00000       A     3.18949e-01     9.04304e-01
 c3bf                                   6      0.0000       0.00000       A     3.39732e-01     4.51017e-01
 c4bf                                   6      0.0000       0.00000       A     3.39677e-01     4.50703e-01
 o5bf                                   8      0.0000       0.00000       A     3.15600e-01     3.02985e-01
 c6bf                                   6      0.0000       0.00000       A     3.31540e-01     4.14276e-01
 c7bf                                   6      0.0000       0.00000       A     3.31442e-01     4.11963e-01
 c8bf                                   6      0.0000       0.00000       A     3.31466e-01     4.12771e-01
 c9bf                                   6      0.0000       0.00000       A     3.31256e-01     4.11187e-01
 n10bf                                  7      0.0000       0.00000       A     3.27803e-01     6.49204e-01
 c11bf                                  6      0.0000       0.00000       A     3.31293e-01     4.14462e-01
 n12bf                                  7      0.0000       0.00000       A     3.38671e-01     3.94073e-01
 c13bf                                  6      0.0000       0.00000       A     3.31501e-01     4.11066e-01
 c14bf                                  6      0.0000       0.00000       A     3.31499e-01     4.12954e-01
 n15bf                                  7      0.0000       0.00000       A     3.20544e-01     8.50304e-01
 c16bf                                  6      0.0000       0.00000       A     3.31513e-01     4.11963e-01
 c17bf                                  6      0.0000       0.00000       A     3.31488e-01     4.12482e-01
 n18bf                                  7      0.0000       0.00000       A     3.38571e-01     3.94678e-01
 c19bf                                  6      0.0000       0.00000       A     3.31524e-01     4.13157e-01
 c20bf                                  6      0.0000       0.00000       A     3.31318e-01     4.13275e-01
 c21bf                                  6      0.0000       0.00000       A     3.31459e-01     4.13269e-01
 c22bf                                  6      0.0000       0.00000       A     3.31493e-01     4.13770e-01
 c23bf                                  6      0.0000       0.00000       A     3.31459e-01     4.13510e-01
 c24bf                                  6      0.0000       0.00000       A     3.31378e-01     4.12493e-01
 n25bf                                  7      0.0000       0.00000       A     3.38246e-01     3.92809e-01
 n26bf                                  7      0.0000       0.00000       A     3.20449e-01     8.56124e-01
 c27bf                                  6      0.0000       0.00000       A     3.31534e-01     4.12212e-01
 c28bf                                  6      0.0000       0.00000       A     3.31394e-01     4.12724e-01
 c29bf                                  6      0.0000       0.00000       A     3.31466e-01     4.12772e-01
 c30bf                                  6      0.0000       0.00000       A     3.31442e-01     4.11963e-01
 h31bf                                  1      0.0000       0.00000       A     2.42018e-01     8.71709e-02
 h32bf                                  1      0.0000       0.00000       A     2.42018e-01     8.71709e-02
 h33bf                                  1      0.0000       0.00000       A     2.42121e-01     8.72763e-02
 h34bf                                  1      0.0000       0.00000       A     2.42121e-01     8.72763e-02
 h35bf                                  1      0.0000       0.00000       A     2.42121e-01     8.72763e-02
 h36bf                                  1      0.0000       0.00000       A     2.42121e-01     8.72763e-02
 h37bf                                  1      0.0000       0.00000       A     2.42018e-01     8.71709e-02
 h38bf                                  1      0.0000       0.00000       A     2.42018e-01     8.71709e-02
 h39bf                                  1      0.0000       0.00000       A     2.62376e-01     6.80229e-02
 h40bf                                  1      0.0000       0.00000       A     2.62508e-01     6.74802e-02
 h41bf                                  1      0.0000       0.00000       A     1.10437e-01     4.36637e-02
 h42bf                                  1      0.0000       0.00000       A     2.53936e-01     6.71690e-02
 h43bf                                  1      0.0000       0.00000       A     2.54157e-01     6.73717e-02
 h44bf                                  1      0.0000       0.00000       A     2.53844e-01     6.71387e-02
 h45bf                                  1      0.0000       0.00000       A     2.62540e-01     6.75377e-02
 h46bf                                  1      0.0000       0.00000       A     2.62573e-01     6.68386e-02
 h47bf                                  1      0.0000       0.00000       A     2.53797e-01     6.68737e-02
 h48bf                                  1      0.0000       0.00000       A     1.10610e-01     4.13941e-02
 h49bf                                  1      0.0000       0.00000       A     2.62479e-01     6.75951e-02
 h50bf                                  1      0.0000       0.00000       A     2.62508e-01     6.74802e-02
 h51bf                                  1      0.0000       0.00000       A     2.62376e-01     6.80229e-02

[ moleculetype ]
;name             nrexcl
 CHEMBL3265032         3

[ atoms ]
;       nr            type      resi   res      atom      cgnr      charge          mass ; qtot
         1            c0bf         1   UNL        c0         1     0.13944       12.0110 ; qtot    0.139
         2            c1bf         1   UNL        c1         2     0.17299       12.0110 ; qtot    0.312
         3            n2bf         1   UNL        n2         3    -0.81756       14.0070 ; qtot   -0.505
         4            c3bf         1   UNL        c3         4     0.17299       12.0110 ; qtot   -0.332
         5            c4bf         1   UNL        c4         5     0.13944       12.0110 ; qtot   -0.193
         6            o5bf         1   UNL        o5         6    -0.45750       15.9990 ; qtot   -0.650
         7            c6bf         1   UNL        c6         7     0.29001       12.0110 ; qtot   -0.360
         8            c7bf         1   UNL        c7         8    -0.15618       12.0110 ; qtot   -0.516
         9            c8bf         1   UNL        c8         9    -0.11397       12.0110 ; qtot   -0.630
        10            c9bf         1   UNL        c9        10     0.27805       12.0110 ; qtot   -0.352
        11           n10bf         1   UNL       n10        11    -0.91367       14.0070 ; qtot   -1.266
        12           c11bf         1   UNL       c11        12     0.67832       12.0110 ; qtot   -0.588
        13           n12bf         1   UNL       n12        13    -0.75880       14.0070 ; qtot   -1.346
        14           c13bf         1   UNL       c13        14     0.39367       12.0110 ; qtot   -0.953
        15           c14bf         1   UNL       c14        15    -0.18305       12.0110 ; qtot   -1.136
        16           n15bf         1   UNL       n15        16     0.16185       14.0070 ; qtot   -0.974
        17           c16bf         1   UNL       c16        17    -0.26112       12.0110 ; qtot   -1.235
        18           c17bf         1   UNL       c17        18    -0.04248       12.0110 ; qtot   -1.278
        19           n18bf         1   UNL       n18        19    -0.27126       14.0070 ; qtot   -1.549
        20           c19bf         1   UNL       c19        20    -0.16948       12.0110 ; qtot   -1.718
        21           c20bf         1   UNL       c20        21    -0.09700       12.0110 ; qtot   -1.815
        22           c21bf         1   UNL       c21        22    -0.12311       12.0110 ; qtot   -1.938
        23           c22bf         1   UNL       c22        23    -0.03392       12.0110 ; qtot   -1.972
        24           c23bf         1   UNL       c23        24    -0.22776       12.0110 ; qtot   -2.200
        25           c24bf         1   UNL       c24        25     0.35866       12.0110 ; qtot   -1.841
        26           n25bf         1   UNL       n25        26    -0.50917       14.0070 ; qtot   -2.351
        27           n26bf         1   UNL       n26        27    -0.08410       14.0070 ; qtot   -2.435
        28           c27bf         1   UNL       c27        28    -0.02985       12.0110 ; qtot   -2.465
        29           c28bf         1   UNL       c28        29    -0.10271       12.0110 ; qtot   -2.567
        30           c29bf         1   UNL       c29        30    -0.11397       12.0110 ; qtot   -2.681
        31           c30bf         1   UNL       c30        31    -0.15618       12.0110 ; qtot   -2.837
        32           h31bf         1   UNL       h31        32     0.05407        1.0080 ; qtot   -2.783
        33           h32bf         1   UNL       h32        33     0.05407        1.0080 ; qtot   -2.729
        34           h33bf         1   UNL       h33        34     0.05501        1.0080 ; qtot   -2.674
        35           h34bf         1   UNL       h34        35     0.05501        1.0080 ; qtot   -2.619
        36           h35bf         1   UNL       h35        36     0.05501        1.0080 ; qtot   -2.564
        37           h36bf         1   UNL       h36        37     0.05501        1.0080 ; qtot   -2.509
        38           h37bf         1   UNL       h37        38     0.05407        1.0080 ; qtot   -2.455
        39           h38bf         1   UNL       h38        39     0.05407        1.0080 ; qtot   -2.401
        40           h39bf         1   UNL       h39        40     0.11627        1.0080 ; qtot   -2.285
        41           h40bf         1   UNL       h40        41     0.12456        1.0080 ; qtot   -2.160
        42           h41bf         1   UNL       h41        42     0.50487        1.0080 ; qtot   -1.655
        43           h42bf         1   UNL       h42        43     0.15334        1.0080 ; qtot   -1.502
        44           h43bf         1   UNL       h43        44     0.22767        1.0080 ; qtot   -1.274
        45           h44bf         1   UNL       h44        45     0.22246        1.0080 ; qtot   -1.052
        46           h45bf         1   UNL       h45        46     0.12542        1.0080 ; qtot   -0.927
        47           h46bf         1   UNL       h46        47     0.12504        1.0080 ; qtot   -0.801
        48           h47bf         1   UNL       h47        48     0.05082        1.0080 ; qtot   -0.751
        49           h48bf         1   UNL       h48        49     0.37661        1.0080 ; qtot   -0.374
        50           h49bf         1   UNL       h49        50     0.13324        1.0080 ; qtot   -0.241
        51           h50bf         1   UNL       h50        51     0.12456        1.0080 ; qtot   -0.116
        52           h51bf         1   UNL       h51        52     0.11624        1.0080 ; qtot   -0.000

[ bonds ]
;       ai        aj funct               r               k
         1         2     1        0.152756   184323.727173
         1         6     1        0.142960   198821.476147
         1        32     1        0.109608   292184.828809
         1        33     1        0.109608   292184.828809
         2         3     1        0.146331   194424.713721
         2        34     1        0.109633   289653.437305
         2        35     1        0.109633   289653.437305
         3         4     1        0.146331   194424.713721
         3         7     1        0.140059   262967.106934
         4         5     1        0.152756   184323.727173
         4        36     1        0.109633   289653.437305
         4        37     1        0.109633   289653.437305
         5         6     1        0.142960   198821.476147
         5        38     1        0.109608   292184.828809
         5        39     1        0.109608   292184.828809
         7         8     1        0.141147   270023.623145
         7        31     1        0.141147   270023.623145
         8         9     1        0.139463   328934.261426
         8        40     1        0.108406   322368.542920
         9        10     1        0.140426   285587.316602
         9        41     1        0.108503   321217.457715
        10        11     1        0.140898   254174.935547
        10        30     1        0.140426   285587.316602
        11        12     1        0.136705   312202.219678
        11        42     1        0.101301   413472.487061
        12        13     1        0.132061   353646.930762
        12        20     1        0.143870   235848.075781
        13        14     1        0.137731   242889.474023
        14        15     1        0.137592   344983.108887
        14        21     1        0.148350   208057.444189
        15        16     1        0.137846   276179.573193
        15        43     1        0.108178   332012.657812
        16        17     1        0.137750   263209.071045
        16        20     1        0.138998   204565.831836
        17        18     1        0.138746   337814.127246
        17        44     1        0.107915   345078.311230
        18        19     1        0.136744   275913.425439
        18        45     1        0.108260   332273.212939
        19        20     1        0.133378   321390.292871
        21        22     1        0.142433   254268.222607
        21        29     1        0.139561   307101.999268
        22        23     1        0.138513   345982.120605
        22        46     1        0.108464   321585.677295
        23        24     1        0.140977   299472.200488
        23        47     1        0.108610   319899.819482
        24        25     1        0.143230   248711.168848
        24        28     1        0.142098   249269.716504
        25        26     1        0.132469   384599.541699
        25        48     1        0.108275   331411.463184
        26        27     1        0.136225   242542.935449
        27        28     1        0.137146   283722.188281
        27        49     1        0.100944   434666.372559
        28        29     1        0.140152   304627.402295
        29        50     1        0.108507   321591.014551
        30        31     1        0.139463   328934.261426
        30        51     1        0.108503   321217.457715
        31        52     1        0.108406   322368.542920

[ angles ]
;       ai        aj        ak funct           theta             cth
         1         2         3     1      110.124313      667.895388
         1         2        34     1      109.277199      505.990753
         1         2        35     1      109.277199      505.990753
         1         6         5     1      112.349747      591.221366
         2         1         6     1      112.167519      651.447510
         2         1        32     1      109.802879      504.434521
         2         1        33     1      109.802879      504.434521
         2         3         4     1      113.991722      475.552753
         2         3         7     1      119.367935      542.072262
         3         2        34     1      110.365662      418.970818
         3         2        35     1      110.365662      418.970818
         3         4         5     1      110.124313      667.895388
         3         4        36     1      110.365662      418.970786
         3         4        37     1      110.365662      418.970818
         3         7         8     1      121.299522      567.881597
         3         7        31     1      121.299522      567.881597
         4         3         7     1      119.367935      542.072262
         4         5         6     1      112.167519      651.447510
         4         5        38     1      109.802879      504.434521
         4         5        39     1      109.802879      504.434521
         5         4        36     1      109.277199      505.990753
         5         4        37     1      109.277199      505.990753
         6         1        32     1      108.186844      459.912295
         6         1        33     1      108.186844      459.912295
         6         5        38     1      108.186844      459.912295
         6         5        39     1      108.186844      459.912295
         7         8         9     1      121.489647      740.785959
         7         8        40     1      120.278587      422.354134
         7        31        30     1      121.489647      740.785895
         7        31        52     1      120.278580      422.354134
         8         7        31     1      117.197678      548.319725
         8         9        10     1      120.703323      707.233262
         8         9        41     1      119.562973      401.335146
         9         8        40     1      118.379135      430.376394
         9        10        11     1      120.667297      557.707166
         9        10        30     1      118.452194      568.429177
        10         9        41     1      119.695213      434.398552
        10        11        12     1      130.988190      388.535181
        10        11        42     1      115.506020      444.983205
        10        30        31     1      120.703323      707.233262
        10        30        51     1      119.695213      434.398552
        11        10        30     1      120.667297      557.707166
        11        12        13     1      121.343933      603.141131
        11        12        20     1      116.160477      347.852905
        12        11        42     1      112.183823      485.604830
        12        13        14     1      119.793762      659.281466
        12        20        16     1      117.476013      691.884693
        12        20        19     1      131.168365      328.267219
        13        12        20     1      121.163086      641.590825
        13        14        15     1      121.966331      389.510187
        13        14        21     1      116.263992      505.959789
        14        15        16     1      118.184242      872.211990
        14        15        43     1      124.892982      345.345800
        14        21        22     1      119.968796      596.169245
        14        21        29     1      120.006363      462.288651
        15        14        21     1      121.468979      451.185722
        15        16        17     1      132.324738      451.412524
        15        16        20     1      121.398743      769.110508
        16        15        43     1      117.429405      489.573775
        16        17        18     1      105.222717      375.667031
        16        17        44     1      122.391075      461.871917
        16        20        19     1      111.412987      167.360000
        17        16        20     1      106.439148      167.360000
        17        18        19     1      111.710022      296.607652
        17        18        45     1      126.932030      353.254706
        18        17        44     1      132.665771      296.979121
        18        19        20     1      105.148094      501.387338
        19        18        45     1      121.224686      373.698758
        21        22        23     1      121.768967      637.524678
        21        22        46     1      118.821877      437.177245
        21        29        28     1      117.575485      752.943475
        21        29        50     1      120.740341      417.152991
        22        21        29     1      120.215416      565.096584
        22        23        24     1      118.718689      667.878789
        22        23        47     1      120.630470      435.954975
        23        22        46     1      119.666855      423.052606
        23        24        25     1      136.517990      472.986497
        23        24        28     1      119.114426      702.113072
        24        23        47     1      120.868912      437.569878
        24        25        26     1      111.479248      389.645023
        24        25        48     1      128.954620      353.879567
        24        28        27     1      105.629051      167.360000
        24        28        29     1      122.444931      646.521977
        25        24        28     1      104.386375      456.099828
        25        26        27     1      105.968918      513.160392
        26        25        48     1      119.559181      397.470551
        26        27        28     1      112.587364      425.755262
        26        27        49     1      118.749695      478.428710
        27        28        29     1      132.012619      439.872176
        28        27        49     1      128.703522      382.976358
        28        29        50     1      121.796425      432.612870
        30        31        52     1      118.379135      430.376394
        31        30        51     1      119.562973      401.335146
        32         1        33     1      108.373306      337.630081
        34         2        35     1      107.557419      346.545054
        36         4        37     1      107.557419      346.545054
        38         5        39     1      108.373306      337.630081

[ dihedrals ] ; propers for gromacs 4.5 or higher, use funct 9
;       ai        aj        ak        al funct           phase               k        pn
         1         2         3         4     9        0.000000        3.422778         1
         1         2         3         4     9      180.000000       -3.939900         2
         1         2         3         4     9        0.000000        0.650407         3
         1         2         3         4     9      180.000000        0.503404         4
         1         2         3         7     9        0.000000        0.855904         1
         1         2         3         7     9      180.000000        0.296138         2
         1         2         3         7     9        0.000000        0.455752         3
         1         2         3         7     9      180.000000        0.166224         4
         1         6         5         4     9        0.000000        1.367320         1
         1         6         5         4     9      180.000000       -1.884892         2
         1         6         5         4     9        0.000000        0.469940         3
         1         6         5         4     9      180.000000        0.042846         4
         1         6         5        38     9        0.000000       -0.079354         1
         1         6         5        38     9      180.000000        0.068416         2
         1         6         5        38     9        0.000000        0.353765         3
         1         6         5        38     9      180.000000        0.017368         4
         1         6         5        39     9        0.000000       -0.079354         1
         1         6         5        39     9      180.000000        0.068416         2
         1         6         5        39     9        0.000000        0.353765         3
         1         6         5        39     9      180.000000        0.017368         4
         2         1         6         5     9        0.000000        1.367320         1
         2         1         6         5     9      180.000000       -1.884892         2
         2         1         6         5     9        0.000000        0.469940         3
         2         1         6         5     9      180.000000        0.042846         4
         2         3         4         5     9        0.000000        3.422778         1
         2         3         4         5     9      180.000000       -3.939900         2
         2         3         4         5     9        0.000000        0.650407         3
         2         3         4         5     9      180.000000        0.503404         4
         2         3         4        36     9        0.000000       -0.086767         1
         2         3         4        36     9      180.000000        0.123435         2
         2         3         4        36     9        0.000000        0.829611         3
         2         3         4        36     9      180.000000       -0.023777         4
         2         3         4        37     9        0.000000       -0.086767         1
         2         3         4        37     9      180.000000        0.123435         2
         2         3         4        37     9        0.000000        0.829611         3
         2         3         4        37     9      180.000000       -0.023777         4
         2         3         7         8     9        0.000000        0.039789         1
         2         3         7         8     9      180.000000        5.188972         2
         2         3         7         8     9        0.000000        0.016024         3
         2         3         7         8     9      180.000000        0.391740         4
         2         3         7        31     9        0.000000        0.039789         1
         2         3         7        31     9      180.000000        5.188972         2
         2         3         7        31     9        0.000000        0.016024         3
         2         3         7        31     9      180.000000        0.391740         4
         3         2         1         6     9        0.000000       -0.768670         1
         3         2         1         6     9      180.000000       -1.038743         2
         3         2         1         6     9        0.000000        0.309572         3
         3         2         1         6     9      180.000000       -0.233974         4
         3         2         1        32     9        0.000000       -0.034338         1
         3         2         1        32     9      180.000000        0.088654         2
         3         2         1        32     9        0.000000        0.452736         3
         3         2         1        32     9      180.000000       -0.014837         4
         3         2         1        33     9        0.000000       -0.034338         1
         3         2         1        33     9      180.000000        0.088654         2
         3         2         1        33     9        0.000000        0.452736         3
         3         2         1        33     9      180.000000       -0.014837         4
         3         4         5         6     9        0.000000       -0.768670         1
         3         4         5         6     9      180.000000       -1.038743         2
         3         4         5         6     9        0.000000        0.309572         3
         3         4         5         6     9      180.000000       -0.233974         4
         3         4         5        38     9        0.000000       -0.034338         1
         3         4         5        38     9      180.000000        0.088654         2
         3         4         5        38     9        0.000000        0.452736         3
         3         4         5        38     9      180.000000       -0.014837         4
         3         4         5        39     9        0.000000       -0.034338         1
         3         4         5        39     9      180.000000        0.088654         2
         3         4         5        39     9        0.000000        0.452736         3
         3         4         5        39     9      180.000000       -0.014837         4
         3         7         8         9     9        0.000000        0.256285         1
         3         7         8         9     9      180.000000       16.265139         2
         3         7         8         9     9        0.000000        0.068853         3
         3         7         8         9     9      180.000000       -0.299076         4
         3         7         8        40     9        0.000000       -0.013776         1
         3         7         8        40     9      180.000000       13.280829         2
         3         7         8        40     9        0.000000       -0.106543         3
         3         7         8        40     9      180.000000        0.157560         4
         3         7        31        30     9        0.000000        0.256284         1
         3         7        31        30     9      180.000000       16.265138         2
         3         7        31        30     9        0.000000        0.068853         3
         3         7        31        30     9      180.000000       -0.299076         4
         3         7        31        52     9        0.000000       -0.013776         1
         3         7        31        52     9      180.000000       13.280831         2
         3         7        31        52     9        0.000000       -0.106543         3
         3         7        31        52     9      180.000000        0.157561         4
         4         3         2        34     9        0.000000       -0.086767         1
         4         3         2        34     9      180.000000        0.123435         2
         4         3         2        34     9        0.000000        0.829611         3
         4         3         2        34     9      180.000000       -0.023777         4
         4         3         2        35     9        0.000000       -0.086767         1
         4         3         2        35     9      180.000000        0.123435         2
         4         3         2        35     9        0.000000        0.829611         3
         4         3         2        35     9      180.000000       -0.023777         4
         4         3         7         8     9        0.000000        0.039789         1
         4         3         7         8     9      180.000000        5.188972         2
         4         3         7         8     9        0.000000        0.016024         3
         4         3         7         8     9      180.000000        0.391740         4
         4         3         7        31     9        0.000000        0.039789         1
         4         3         7        31     9      180.000000        5.188972         2
         4         3         7        31     9        0.000000        0.016024         3
         4         3         7        31     9      180.000000        0.391740         4
         5         4         3         7     9        0.000000        0.855904         1
         5         4         3         7     9      180.000000        0.296138         2
         5         4         3         7     9        0.000000        0.455752         3
         5         4         3         7     9      180.000000        0.166224         4
         5         6         1        32     9        0.000000       -0.079354         1
         5         6         1        32     9      180.000000        0.068416         2
         5         6         1        32     9        0.000000        0.353765         3
         5         6         1        32     9      180.000000        0.017368         4
         5         6         1        33     9        0.000000       -0.079354         1
         5         6         1        33     9      180.000000        0.068416         2
         5         6         1        33     9        0.000000        0.353765         3
         5         6         1        33     9      180.000000        0.017368         4
         6         1         2        34     9        0.000000       -0.043256         1
         6         1         2        34     9      180.000000        0.082909         2
         6         1         2        34     9        0.000000        0.332120         3
         6         1         2        34     9      180.000000        0.034895         4
         6         1         2        35     9        0.000000       -0.043256         1
         6         1         2        35     9      180.000000        0.082909         2
         6         1         2        35     9        0.000000        0.332120         3
         6         1         2        35     9      180.000000        0.034895         4
         6         5         4        36     9        0.000000       -0.043256         1
         6         5         4        36     9      180.000000        0.082909         2
         6         5         4        36     9        0.000000        0.332120         3
         6         5         4        36     9      180.000000        0.034895         4
         6         5         4        37     9        0.000000       -0.043256         1
         6         5         4        37     9      180.000000        0.082909         2
         6         5         4        37     9        0.000000        0.332120         3
         6         5         4        37     9      180.000000        0.034895         4
         7         3         2        34     9        0.000000       -0.044325         1
         7         3         2        34     9      180.000000       -0.145479         2
         7         3         2        34     9        0.000000        0.585091         3
         7         3         2        34     9      180.000000       -0.039140         4
         7         3         2        35     9        0.000000       -0.044325         1
         7         3         2        35     9      180.000000       -0.145479         2
         7         3         2        35     9        0.000000        0.585091         3
         7         3         2        35     9      180.000000       -0.039140         4
         7         3         4        36     9        0.000000       -0.044325         1
         7         3         4        36     9      180.000000       -0.145479         2
         7         3         4        36     9        0.000000        0.585091         3
         7         3         4        36     9      180.000000       -0.039140         4
         7         3         4        37     9        0.000000       -0.044325         1
         7         3         4        37     9      180.000000       -0.145479         2
         7         3         4        37     9        0.000000        0.585091         3
         7         3         4        37     9      180.000000       -0.039140         4
         7         8         9        10     9        0.000000       -0.133082         1
         7         8         9        10     9      180.000000       18.034973         2
         7         8         9        10     9        0.000000       -1.535285         3
         7         8         9        10     9      180.000000       -0.378100         4
         7         8         9        41     9        0.000000        0.031378         1
         7         8         9        41     9      180.000000       13.959186         2
         7         8         9        41     9        0.000000       -0.407407         3
         7         8         9        41     9      180.000000        0.177483         4
         7        31        30        10     9        0.000000       -0.133082         1
         7        31        30        10     9      180.000000       18.034973         2
         7        31        30        10     9        0.000000       -1.535285         3
         7        31        30        10     9      180.000000       -0.378100         4
         7        31        30        51     9        0.000000        0.031378         1
         7        31        30        51     9      180.000000       13.959185         2
         7        31        30        51     9        0.000000       -0.407408         3
         7        31        30        51     9      180.000000        0.177483         4
         8         7        31        30     9        0.000000        0.038910         1
         8         7        31        30     9      180.000000       15.336263         2
         8         7        31        30     9        0.000000       -0.837453         3
         8         7        31        30     9      180.000000       -0.114997         4
         8         7        31        52     9        0.000000       -0.046660         1
         8         7        31        52     9      180.000000       12.147175         2
         8         7        31        52     9        0.000000       -0.510417         3
         8         7        31        52     9      180.000000        0.174854         4
         8         9        10        11     9        0.000000        0.064803         1
         8         9        10        11     9      180.000000       16.799440         2
         8         9        10        11     9        0.000000        0.121712         3
         8         9        10        11     9      180.000000       -0.266592         4
         8         9        10        30     9        0.000000        0.076370         1
         8         9        10        30     9      180.000000       16.658229         2
         8         9        10        30     9        0.000000       -1.083584         3
         8         9        10        30     9      180.000000       -0.170148         4
         9         8         7        31     9        0.000000        0.038910         1
         9         8         7        31     9      180.000000       15.336261         2
         9         8         7        31     9        0.000000       -0.837454         3
         9         8         7        31     9      180.000000       -0.114996         4
         9        10        11        12     9        0.000000        0.251131         1
         9        10        11        12     9      180.000000        3.224598         2
         9        10        11        12     9        0.000000       -0.183414         3
         9        10        11        12     9      180.000000        0.443491         4
         9        10        11        42     9        0.000000        0.228457         1
         9        10        11        42     9      180.000000        3.382225         2
         9        10        11        42     9        0.000000        0.164156         3
         9        10        11        42     9      180.000000        0.869142         4
         9        10        30        31     9        0.000000        0.076369         1
         9        10        30        31     9      180.000000       16.658230         2
         9        10        30        31     9        0.000000       -1.083584         3
         9        10        30        31     9      180.000000       -0.170148         4
         9        10        30        51     9        0.000000        0.081437         1
         9        10        30        51     9      180.000000       12.619824         2
         9        10        30        51     9        0.000000       -0.483784         3
         9        10        30        51     9      180.000000        0.187452         4
        10         9         8        40     9        0.000000        0.049126         1
        10         9         8        40     9      180.000000       14.149897         2
        10         9         8        40     9        0.000000       -0.556706         3
        10         9         8        40     9      180.000000        0.165360         4
        10        11        12        13     9        0.000000       -0.158244         1
        10        11        12        13     9      180.000000        6.764795         2
        10        11        12        13     9        0.000000       -0.022379         3
        10        11        12        13     9      180.000000       -0.534140         4
        10        11        12        20     9        0.000000        2.489293         1
        10        11        12        20     9      180.000000        5.665450         2
        10        11        12        20     9        0.000000        0.347850         3
        10        11        12        20     9      180.000000       -0.321951         4
        10        30        31        52     9        0.000000        0.049126         1
        10        30        31        52     9      180.000000       14.149895         2
        10        30        31        52     9        0.000000       -0.556706         3
        10        30        31        52     9      180.000000        0.165360         4
        11        10         9        41     9        0.000000       -0.105182         1
        11        10         9        41     9      180.000000       14.172029         2
        11        10         9        41     9        0.000000       -0.013037         3
        11        10         9        41     9      180.000000        0.096238         4
        11        10        30        31     9        0.000000        0.064803         1
        11        10        30        31     9      180.000000       16.799440         2
        11        10        30        31     9        0.000000        0.121712         3
        11        10        30        31     9      180.000000       -0.266592         4
        11        10        30        51     9        0.000000       -0.105181         1
        11        10        30        51     9      180.000000       14.172028         2
        11        10        30        51     9        0.000000       -0.013037         3
        11        10        30        51     9      180.000000        0.096238         4
        11        12        13        14     9        0.000000        1.943371         1
        11        12        13        14     9      180.000000       24.477186         2
        11        12        13        14     9        0.000000        0.699624         3
        11        12        13        14     9      180.000000       -1.007331         4
        11        12        20        16     9        0.000000        0.517582         1
        11        12        20        16     9      180.000000       12.000454         2
        11        12        20        16     9        0.000000        0.165513         3
        11        12        20        16     9      180.000000       -0.596021         4
        11        12        20        19     9        0.000000       -0.373541         1
        11        12        20        19     9      180.000000       10.813194         2
        11        12        20        19     9        0.000000       -0.126761         3
        11        12        20        19     9      180.000000       -0.468506         4
        12        11        10        30     9        0.000000        0.251129         1
        12        11        10        30     9      180.000000        3.224599         2
        12        11        10        30     9        0.000000       -0.183414         3
        12        11        10        30     9      180.000000        0.443491         4
        12        13        14        15     9        0.000000        1.012028         1
        12        13        14        15     9      180.000000       13.620728         2
        12        13        14        15     9        0.000000       -0.226826         3
        12        13        14        15     9      180.000000       -0.061795         4
        12        13        14        21     9        0.000000        1.551272         1
        12        13        14        21     9      180.000000       18.137816         2
        12        13        14        21     9        0.000000        0.656586         3
        12        13        14        21     9      180.000000       -1.048878         4
        12        20        16        15     9        0.000000        0.337947         1
        12        20        16        15     9      180.000000        5.781634         2
        12        20        16        15     9        0.000000       -0.134535         3
        12        20        16        15     9      180.000000        0.122361         4
        12        20        16        17     9        0.000000       -0.529939         1
        12        20        16        17     9      180.000000        7.254573         2
        12        20        16        17     9        0.000000       -2.285934         3
        12        20        16        17     9      180.000000        0.374903         4
        12        20        19        18     9        0.000000        1.546001         1
        12        20        19        18     9      180.000000       16.470755         2
        12        20        19        18     9        0.000000       -0.373495         3
        12        20        19        18     9      180.000000        0.010417         4
        13        12        11        42     9        0.000000       11.436749         1
        13        12        11        42     9      180.000000        6.771778         2
        13        12        11        42     9        0.000000       -0.402793         3
        13        12        11        42     9      180.000000        0.118547         4
        13        12        20        16     9        0.000000       -0.070283         1
        13        12        20        16     9      180.000000        9.274434         2
        13        12        20        16     9        0.000000       -0.539211         3
        13        12        20        16     9      180.000000       -0.339003         4
        13        12        20        19     9        0.000000       -1.871942         1
        13        12        20        19     9      180.000000        6.551413         2
        13        12        20        19     9        0.000000       -0.111201         3
        13        12        20        19     9      180.000000       -0.440309         4
        13        14        15        16     9        0.000000       -0.615167         1
        13        14        15        16     9      180.000000       29.692546         2
        13        14        15        16     9        0.000000       -1.048838         3
        13        14        15        16     9      180.000000       -1.730461         4
        13        14        15        43     9        0.000000        0.287259         1
        13        14        15        43     9      180.000000       17.653570         2
        13        14        15        43     9        0.000000        0.213044         3
        13        14        15        43     9      180.000000       -0.531463         4
        13        14        21        22     9        0.000000       -0.478480         1
        13        14        21        22     9      180.000000        4.213459         2
        13        14        21        22     9        0.000000        0.158819         3
        13        14        21        22     9      180.000000        0.023849         4
        13        14        21        29     9        0.000000       -0.249697         1
        13        14        21        29     9      180.000000        4.070625         2
        13        14        21        29     9        0.000000       -0.122232         3
        13        14        21        29     9      180.000000        0.044803         4
        14        13        12        20     9        0.000000        0.893690         1
        14        13        12        20     9      180.000000       22.117335         2
        14        13        12        20     9        0.000000        0.584990         3
        14        13        12        20     9      180.000000       -0.568744         4
        14        15        16        17     9        0.000000        0.496724         1
        14        15        16        17     9      180.000000        4.951623         2
        14        15        16        17     9        0.000000        0.249348         3
        14        15        16        17     9      180.000000        0.108870         4
        14        15        16        20     9        0.000000       -0.634424         1
        14        15        16        20     9      180.000000        9.291540         2
        14        15        16        20     9        0.000000       -1.054575         3
        14        15        16        20     9      180.000000       -0.058807         4
        14        21        22        23     9        0.000000        0.236000         1
        14        21        22        23     9      180.000000       14.368995         2
        14        21        22        23     9        0.000000       -0.147065         3
        14        21        22        23     9      180.000000       -0.199062         4
        14        21        22        46     9        0.000000       -0.132256         1
        14        21        22        46     9      180.000000       12.075877         2
        14        21        22        46     9        0.000000       -0.206751         3
        14        21        22        46     9      180.000000        0.138572         4
        14        21        29        28     9        0.000000        0.253657         1
        14        21        29        28     9      180.000000       18.931391         2
        14        21        29        28     9        0.000000        0.007612         3
        14        21        29        28     9      180.000000       -0.761701         4
        14        21        29        50     9        0.000000       -0.016970         1
        14        21        29        50     9      180.000000       12.777234         2
        14        21        29        50     9        0.000000       -0.099454         3
        14        21        29        50     9      180.000000        0.149938         4
        15        14        21        22     9        0.000000       -0.325306         1
        15        14        21        22     9      180.000000        3.533701         2
        15        14        21        22     9        0.000000       -0.028931         3
        15        14        21        22     9      180.000000       -0.107973         4
        15        14        21        29     9        0.000000       -0.318428         1
        15        14        21        29     9      180.000000        3.394260         2
        15        14        21        29     9        0.000000        0.363761         3
        15        14        21        29     9      180.000000       -0.261941         4
        15        16        17        18     9        0.000000        0.967452         1
        15        16        17        18     9      180.000000        5.219958         2
        15        16        17        18     9        0.000000        0.738494         3
        15        16        17        18     9      180.000000       -0.038282         4
        15        16        17        44     9        0.000000        0.151014         1
        15        16        17        44     9      180.000000        3.680096         2
        15        16        17        44     9        0.000000        0.373012         3
        15        16        17        44     9      180.000000        0.067587         4
        15        16        20        19     9        0.000000        0.545807         1
        15        16        20        19     9      180.000000        7.748301         2
        15        16        20        19     9        0.000000       -0.729831         3
        15        16        20        19     9      180.000000        0.136710         4
        16        15        14        21     9        0.000000        0.167931         1
        16        15        14        21     9      180.000000       26.604066         2
        16        15        14        21     9        0.000000        0.428746         3
        16        15        14        21     9      180.000000       -1.876920         4
        16        17        18        19     9        0.000000       -0.258793         1
        16        17        18        19     9      180.000000       36.323027         2
        16        17        18        19     9        0.000000       -7.442937         3
        16        17        18        19     9      180.000000       -0.839992         4
        16        17        18        45     9        0.000000        0.279818         1
        16        17        18        45     9      180.000000       18.770131         2
        16        17        18        45     9        0.000000       -0.507968         3
        16        17        18        45     9      180.000000       -0.564047         4
        16        20        19        18     9        0.000000       -0.172777         1
        16        20        19        18     9      180.000000       37.627789         2
        16        20        19        18     9        0.000000       -7.120096         3
        16        20        19        18     9      180.000000        0.116816         4
        17        16        15        43     9        0.000000       -0.200405         1
        17        16        15        43     9      180.000000        3.566462         2
        17        16        15        43     9        0.000000        0.306552         3
        17        16        15        43     9      180.000000        0.065874         4
        17        16        20        19     9        0.000000        0.131710         1
        17        16        20        19     9      180.000000       15.566772         2
        17        16        20        19     9        0.000000       -7.866552         3
        17        16        20        19     9      180.000000        0.257373         4
        17        18        19        20     9        0.000000       -0.255849         1
        17        18        19        20     9      180.000000       31.025341         2
        17        18        19        20     9        0.000000       -4.653101         3
        17        18        19        20     9      180.000000        0.341646         4
        18        17        16        20     9        0.000000        0.086044         1
        18        17        16        20     9      180.000000       25.283693         2
        18        17        16        20     9        0.000000       -9.272059         3
        18        17        16        20     9      180.000000        0.296509         4
        19        18        17        44     9        0.000000        0.292780         1
        19        18        17        44     9      180.000000       15.681650         2
        19        18        17        44     9        0.000000       -0.422047         3
        19        18        17        44     9      180.000000       -0.479005         4
        20        12        11        42     9        0.000000        2.941475         1
        20        12        11        42     9      180.000000        7.228743         2
        20        12        11        42     9        0.000000       -0.167485         3
        20        12        11        42     9      180.000000        0.477374         4
        20        16        15        43     9        0.000000        0.590660         1
        20        16        15        43     9      180.000000        4.595215         2
        20        16        15        43     9        0.000000        0.398248         3
        20        16        15        43     9      180.000000        0.099105         4
        20        16        17        44     9        0.000000        1.026521         1
        20        16        17        44     9      180.000000        6.099844         2
        20        16        17        44     9        0.000000        0.349087         3
        20        16        17        44     9      180.000000        0.232410         4
        20        19        18        45     9        0.000000        2.009586         1
        20        19        18        45     9      180.000000       22.682232         2
        20        19        18        45     9        0.000000        0.566971         3
        20        19        18        45     9      180.000000       -0.265561         4
        21        14        15        43     9        0.000000       -0.096732         1
        21        14        15        43     9      180.000000       14.902793         2
        21        14        15        43     9        0.000000        0.326008         3
        21        14        15        43     9      180.000000       -0.006970         4
        21        22        23        24     9        0.000000       -0.107889         1
        21        22        23        24     9      180.000000       21.232215         2
        21        22        23        24     9        0.000000       -1.587275         3
        21        22        23        24     9      180.000000       -0.422021         4
        21        22        23        47     9        0.000000       -0.009248         1
        21        22        23        47     9      180.000000       15.753535         2
        21        22        23        47     9        0.000000       -0.469098         3
        21        22        23        47     9      180.000000        0.063646         4
        21        29        28        24     9        0.000000       -0.066774         1
        21        29        28        24     9      180.000000       16.902019         2
        21        29        28        24     9        0.000000       -1.560631         3
        21        29        28        24     9      180.000000       -0.377307         4
        21        29        28        27     9        0.000000        0.254192         1
        21        29        28        27     9      180.000000       14.622403         2
        21        29        28        27     9        0.000000       -0.237802         3
        21        29        28        27     9      180.000000       -0.298818         4
        22        21        29        28     9        0.000000       -0.244727         1
        22        21        29        28     9      180.000000       20.621677         2
        22        21        29        28     9        0.000000       -1.717587         3
        22        21        29        28     9      180.000000       -0.461429         4
        22        21        29        50     9        0.000000       -0.015047         1
        22        21        29        50     9      180.000000       14.201647         2
        22        21        29        50     9        0.000000       -0.489871         3
        22        21        29        50     9      180.000000        0.066589         4
        22        23        24        25     9        0.000000        0.139640         1
        22        23        24        25     9      180.000000       11.636698         2
        22        23        24        25     9        0.000000       -0.542128         3
        22        23        24        25     9      180.000000       -0.119475         4
        22        23        24        28     9        0.000000        0.040250         1
        22        23        24        28     9      180.000000       19.441381         2
        22        23        24        28     9        0.000000       -2.386377         3
        22        23        24        28     9      180.000000       -0.429819         4
        23        22        21        29     9        0.000000       -0.107119         1
        23        22        21        29     9      180.000000       16.592383         2
        23        22        21        29     9        0.000000       -1.318220         3
        23        22        21        29     9      180.000000       -0.279142         4
        23        24        25        26     9        0.000000       -0.220760         1
        23        24        25        26     9      180.000000        4.549868         2
        23        24        25        26     9        0.000000       -0.722273         3
        23        24        25        26     9      180.000000        0.079155         4
        23        24        25        48     9        0.000000       -0.517556         1
        23        24        25        48     9      180.000000        4.883030         2
        23        24        25        48     9        0.000000        0.082458         3
        23        24        25        48     9      180.000000        0.099245         4
        23        24        28        27     9        0.000000        0.408955         1
        23        24        28        27     9      180.000000        9.908660         2
        23        24        28        27     9        0.000000       -1.829778         3
        23        24        28        27     9      180.000000        0.066646         4
        23        24        28        29     9        0.000000       -0.240999         1
        23        24        28        29     9      180.000000        9.774335         2
        23        24        28        29     9        0.000000       -1.540979         3
        23        24        28        29     9      180.000000        0.061509         4
        24        23        22        46     9        0.000000        0.116069         1
        24        23        22        46     9      180.000000       16.925254         2
        24        23        22        46     9        0.000000       -0.405095         3
        24        23        22        46     9      180.000000       -0.044939         4
        24        25        26        27     9        0.000000       -0.284270         1
        24        25        26        27     9      180.000000       41.018080         2
        24        25        26        27     9        0.000000       -4.737092         3
        24        25        26        27     9      180.000000       -0.187157         4
        24        28        27        26     9        0.000000        0.553012         1
        24        28        27        26     9      180.000000       22.995906         2
        24        28        27        26     9        0.000000       -4.944660         3
        24        28        27        26     9      180.000000       -0.958832         4
        24        28        27        49     9        0.000000        0.214201         1
        24        28        27        49     9      180.000000        1.495356         2
        24        28        27        49     9        0.000000        0.443300         3
        24        28        27        49     9      180.000000        0.005189         4
        24        28        29        50     9        0.000000        0.144083         1
        24        28        29        50     9      180.000000       11.714342         2
        24        28        29        50     9        0.000000       -0.120434         3
        24        28        29        50     9      180.000000        0.033214         4
        25        24        23        47     9        0.000000        0.021693         1
        25        24        23        47     9      180.000000        9.433860         2
        25        24        23        47     9        0.000000        0.021702         3
        25        24        23        47     9      180.000000        0.039741         4
        25        24        28        27     9        0.000000        0.361317         1
        25        24        28        27     9      180.000000       16.000806         2
        25        24        28        27     9        0.000000       -5.553572         3
        25        24        28        27     9      180.000000       -0.093661         4
        25        24        28        29     9        0.000000       -0.036103         1
        25        24        28        29     9      180.000000        9.290578         2
        25        24        28        29     9        0.000000       -1.652287         3
        25        24        28        29     9      180.000000        0.165067         4
        25        26        27        28     9        0.000000       -0.046164         1
        25        26        27        28     9      180.000000       18.138354         2
        25        26        27        28     9        0.000000       -2.785128         3
        25        26        27        28     9      180.000000       -0.764410         4
        25        26        27        49     9        0.000000        1.177741         1
        25        26        27        49     9      180.000000        3.861927         2
        25        26        27        49     9        0.000000        0.442983         3
        25        26        27        49     9      180.000000        0.067653         4
        26        25        24        28     9        0.000000       -0.126812         1
        26        25        24        28     9      180.000000       30.398344         2
        26        25        24        28     9        0.000000       -9.789498         3
        26        25        24        28     9      180.000000       -0.317035         4
        26        27        28        29     9        0.000000        1.093301         1
        26        27        28        29     9      180.000000        4.724150         2
        26        27        28        29     9        0.000000        0.395240         3
        26        27        28        29     9      180.000000       -0.001503         4
        27        26        25        48     9        0.000000        1.701933         1
        27        26        25        48     9      180.000000       28.876374         2
        27        26        25        48     9        0.000000        0.495705         3
        27        26        25        48     9      180.000000       -0.175253         4
        27        28        29        50     9        0.000000       -0.014433         1
        27        28        29        50     9      180.000000       10.806740         2
        27        28        29        50     9        0.000000       -0.063952         3
        27        28        29        50     9      180.000000        0.069026         4
        28        24        23        47     9        0.000000        0.207944         1
        28        24        23        47     9      180.000000       14.058516         2
        28        24        23        47     9        0.000000       -0.421088         3
        28        24        23        47     9      180.000000       -0.172162         4
        28        24        25        48     9        0.000000        0.975082         1
        28        24        25        48     9      180.000000       13.204561         2
        28        24        25        48     9        0.000000        0.283179         3
        28        24        25        48     9      180.000000       -0.304877         4
        29        21        22        46     9        0.000000       -0.083817         1
        29        21        22        46     9      180.000000       12.802174         2
        29        21        22        46     9        0.000000       -0.655207         3
        29        21        22        46     9      180.000000        0.081735         4
        29        28        27        49     9        0.000000       -0.487769         1
        29        28        27        49     9      180.000000        1.252037         2
        29        28        27        49     9        0.000000       -0.071214         3
        29        28        27        49     9      180.000000       -0.079567         4
        30        10         9        41     9        0.000000        0.081438         1
        30        10         9        41     9      180.000000       12.619824         2
        30        10         9        41     9        0.000000       -0.483784         3
        30        10         9        41     9      180.000000        0.187452         4
        30        10        11        42     9        0.000000        0.228458         1
        30        10        11        42     9      180.000000        3.382225         2
        30        10        11        42     9        0.000000        0.164156         3
        30        10        11        42     9      180.000000        0.869141         4
        31         7         8        40     9        0.000000       -0.046660         1
        31         7         8        40     9      180.000000       12.147172         2
        31         7         8        40     9        0.000000       -0.510417         3
        31         7         8        40     9      180.000000        0.174854         4
        32         1         2        34     9        0.000000        0.004791         1
        32         1         2        34     9      180.000000       -0.007011         2
        32         1         2        34     9        0.000000        0.285351         3
        32         1         2        34     9      180.000000        0.018250         4
        32         1         2        35     9        0.000000        0.004791         1
        32         1         2        35     9      180.000000       -0.007011         2
        32         1         2        35     9        0.000000        0.285351         3
        32         1         2        35     9      180.000000        0.018250         4
        33         1         2        34     9        0.000000        0.004791         1
        33         1         2        34     9      180.000000       -0.007011         2
        33         1         2        34     9        0.000000        0.285351         3
        33         1         2        34     9      180.000000        0.018250         4
        33         1         2        35     9        0.000000        0.004791         1
        33         1         2        35     9      180.000000       -0.007011         2
        33         1         2        35     9        0.000000        0.285351         3
        33         1         2        35     9      180.000000        0.018250         4
        36         4         5        38     9        0.000000        0.004791         1
        36         4         5        38     9      180.000000       -0.007011         2
        36         4         5        38     9        0.000000        0.285351         3
        36         4         5        38     9      180.000000        0.018250         4
        36         4         5        39     9        0.000000        0.004791         1
        36         4         5        39     9      180.000000       -0.007011         2
        36         4         5        39     9        0.000000        0.285351         3
        36         4         5        39     9      180.000000        0.018250         4
        37         4         5        38     9        0.000000        0.004791         1
        37         4         5        38     9      180.000000       -0.007011         2
        37         4         5        38     9        0.000000        0.285351         3
        37         4         5        38     9      180.000000        0.018250         4
        37         4         5        39     9        0.000000        0.004791         1
        37         4         5        39     9      180.000000       -0.007011         2
        37         4         5        39     9        0.000000        0.285351         3
        37         4         5        39     9      180.000000        0.018250         4
        40         8         9        41     9        0.000000       -0.187743         1
        40         8         9        41     9      180.000000       12.047895         2
        40         8         9        41     9        0.000000       -0.696730         3
        40         8         9        41     9      180.000000        0.296095         4
        44        17        18        45     9        0.000000       -0.357707         1
        44        17        18        45     9      180.000000        9.061504         2
        44        17        18        45     9        0.000000       -0.277917         3
        44        17        18        45     9      180.000000        0.193706         4
        46        22        23        47     9        0.000000       -0.091146         1
        46        22        23        47     9      180.000000       12.794650         2
        46        22        23        47     9        0.000000       -0.693019         3
        46        22        23        47     9      180.000000        0.301122         4
        51        30        31        52     9        0.000000       -0.187742         1
        51        30        31        52     9      180.000000       12.047895         2
        51        30        31        52     9        0.000000       -0.696730         3
        51        30        31        52     9      180.000000        0.296095         4

[ pairs ]
;       ai        aj funct
         1         4     1
         1         7     1
         1        38     1
         1        39     1
         2         5     1
         2         8     1
         2        31     1
         2        36     1
         2        37     1
         3         6     1
         3         9     1
         3        30     1
         3        32     1
         3        33     1
         3        38     1
         3        39     1
         3        40     1
         3        52     1
         4         8     1
         4        31     1
         4        34     1
         4        35     1
         5         7     1
         5        32     1
         5        33     1
         6        34     1
         6        35     1
         6        36     1
         6        37     1
         7        10     1
         7        34     1
         7        35     1
         7        36     1
         7        37     1
         7        41     1
         7        51     1
         8        11     1
         8        30     1
         8        52     1
         9        12     1
         9        31     1
         9        42     1
         9        51     1
        10        13     1
        10        20     1
        10        40     1
        10        52     1
        11        14     1
        11        16     1
        11        19     1
        11        31     1
        11        41     1
        11        51     1
        12        15     1
        12        17     1
        12        18     1
        12        21     1
        12        30     1
        13        16     1
        13        19     1
        13        22     1
        13        29     1
        13        42     1
        13        43     1
        14        17     1
        14        20     1
        14        23     1
        14        28     1
        14        46     1
        14        50     1
        15        18     1
        15        19     1
        15        22     1
        15        29     1
        15        44     1
        16        21     1
        16        45     1
        17        43     1
        19        44     1
        20        42     1
        20        43     1
        20        44     1
        20        45     1
        21        24     1
        21        27     1
        21        43     1
        21        47     1
        22        25     1
        22        28     1
        22        50     1
        23        26     1
        23        27     1
        23        29     1
        23        48     1
        24        46     1
        24        49     1
        24        50     1
        25        29     1
        25        47     1
        25        49     1
        26        29     1
        27        48     1
        27        50     1
        28        47     1
        28        48     1
        29        46     1
        29        49     1
        30        41     1
        30        42     1
        31        40     1
        32        34     1
        32        35     1
        33        34     1
        33        35     1
        36        38     1
        36        39     1
        37        38     1
        37        39     1
        40        41     1
        44        45     1
        46        47     1
        51        52     1
