; ITP file created by ByteFF-ML, 2026-02-21 07:48:39.840650

[ atomtypes ]
;name           bonded.type        at.num        mass        charge   ptype           sigma         epsilon
 c0bf                                   6      0.0000       0.00000       A     3.39720e-01     4.50832e-01
 c1bf                                   6      0.0000       0.00000       A     3.39796e-01     4.50703e-01
 c2bf                                   6      0.0000       0.00000       A     3.39708e-01     4.51913e-01
 c3bf                                   6      0.0000       0.00000       A     3.39796e-01     4.50703e-01
 c4bf                                   6      0.0000       0.00000       A     3.39720e-01     4.50832e-01
 o5bf                                   8      0.0000       0.00000       A     3.15686e-01     3.04414e-01
 c6bf                                   6      0.0000       0.00000       A     3.31459e-01     4.12210e-01
 c7bf                                   6      0.0000       0.00000       A     3.31496e-01     4.12675e-01
 c8bf                                   6      0.0000       0.00000       A     3.31467e-01     4.12752e-01
 c9bf                                   6      0.0000       0.00000       A     3.31272e-01     4.11227e-01
 n10bf                                  7      0.0000       0.00000       A     3.27803e-01     6.49204e-01
 c11bf                                  6      0.0000       0.00000       A     3.31293e-01     4.14462e-01
 n12bf                                  7      0.0000       0.00000       A     3.38671e-01     3.94073e-01
 c13bf                                  6      0.0000       0.00000       A     3.31501e-01     4.11066e-01
 c14bf                                  6      0.0000       0.00000       A     3.31499e-01     4.12954e-01
 n15bf                                  7      0.0000       0.00000       A     3.20544e-01     8.50304e-01
 c16bf                                  6      0.0000       0.00000       A     3.31513e-01     4.11963e-01
 c17bf                                  6      0.0000       0.00000       A     3.31488e-01     4.12482e-01
 n18bf                                  7      0.0000       0.00000       A     3.38571e-01     3.94678e-01
 c19bf                                  6      0.0000       0.00000       A     3.31524e-01     4.13157e-01
 c20bf                                  6      0.0000       0.00000       A     3.31318e-01     4.13275e-01
 c21bf                                  6      0.0000       0.00000       A     3.31459e-01     4.13269e-01
 c22bf                                  6      0.0000       0.00000       A     3.31493e-01     4.13770e-01
 c23bf                                  6      0.0000       0.00000       A     3.31459e-01     4.13510e-01
 c24bf                                  6      0.0000       0.00000       A     3.31378e-01     4.12493e-01
 n25bf                                  7      0.0000       0.00000       A     3.38246e-01     3.92809e-01
 n26bf                                  7      0.0000       0.00000       A     3.20449e-01     8.56124e-01
 c27bf                                  6      0.0000       0.00000       A     3.31534e-01     4.12212e-01
 c28bf                                  6      0.0000       0.00000       A     3.31394e-01     4.12724e-01
 c29bf                                  6      0.0000       0.00000       A     3.31467e-01     4.12752e-01
 c30bf                                  6      0.0000       0.00000       A     3.31496e-01     4.12675e-01
 h31bf                                  1      0.0000       0.00000       A     2.42097e-01     8.72076e-02
 h32bf                                  1      0.0000       0.00000       A     2.42097e-01     8.72076e-02
 h33bf                                  1      0.0000       0.00000       A     2.59814e-01     8.78365e-02
 h34bf                                  1      0.0000       0.00000       A     2.59814e-01     8.78365e-02
 h35bf                                  1      0.0000       0.00000       A     2.59882e-01     8.56882e-02
 h36bf                                  1      0.0000       0.00000       A     2.59814e-01     8.78365e-02
 h37bf                                  1      0.0000       0.00000       A     2.59814e-01     8.78365e-02
 h38bf                                  1      0.0000       0.00000       A     2.42097e-01     8.72076e-02
 h39bf                                  1      0.0000       0.00000       A     2.42097e-01     8.72076e-02
 h40bf                                  1      0.0000       0.00000       A     2.62542e-01     6.75393e-02
 h41bf                                  1      0.0000       0.00000       A     2.62490e-01     6.75536e-02
 h42bf                                  1      0.0000       0.00000       A     1.10437e-01     4.36637e-02
 h43bf                                  1      0.0000       0.00000       A     2.53936e-01     6.71690e-02
 h44bf                                  1      0.0000       0.00000       A     2.54157e-01     6.73717e-02
 h45bf                                  1      0.0000       0.00000       A     2.53844e-01     6.71387e-02
 h46bf                                  1      0.0000       0.00000       A     2.62540e-01     6.75377e-02
 h47bf                                  1      0.0000       0.00000       A     2.62573e-01     6.68386e-02
 h48bf                                  1      0.0000       0.00000       A     2.53797e-01     6.68737e-02
 h49bf                                  1      0.0000       0.00000       A     1.10610e-01     4.13941e-02
 h50bf                                  1      0.0000       0.00000       A     2.62479e-01     6.75951e-02
 h51bf                                  1      0.0000       0.00000       A     2.62490e-01     6.75536e-02
 h52bf                                  1      0.0000       0.00000       A     2.62542e-01     6.75393e-02

[ moleculetype ]
;name             nrexcl
 CHEMBL3265034         3

[ atoms ]
;       nr            type      resi   res      atom      cgnr      charge          mass ; qtot
         1            c0bf         1   UNL        c0         1     0.15318       12.0110 ; qtot    0.153
         2            c1bf         1   UNL        c1         2    -0.10328       12.0110 ; qtot    0.050
         3            c2bf         1   UNL        c2         3    -0.01587       12.0110 ; qtot    0.034
         4            c3bf         1   UNL        c3         4    -0.10328       12.0110 ; qtot   -0.069
         5            c4bf         1   UNL        c4         5     0.15318       12.0110 ; qtot    0.084
         6            o5bf         1   UNL        o5         6    -0.46042       15.9990 ; qtot   -0.376
         7            c6bf         1   UNL        c6         7    -0.09789       12.0110 ; qtot   -0.474
         8            c7bf         1   UNL        c7         8    -0.08406       12.0110 ; qtot   -0.558
         9            c8bf         1   UNL        c8         9    -0.14306       12.0110 ; qtot   -0.702
        10            c9bf         1   UNL        c9        10     0.29924       12.0110 ; qtot   -0.402
        11           n10bf         1   UNL       n10        11    -0.91564       14.0070 ; qtot   -1.318
        12           c11bf         1   UNL       c11        12     0.67832       12.0110 ; qtot   -0.640
        13           n12bf         1   UNL       n12        13    -0.75880       14.0070 ; qtot   -1.398
        14           c13bf         1   UNL       c13        14     0.39367       12.0110 ; qtot   -1.005
        15           c14bf         1   UNL       c14        15    -0.18305       12.0110 ; qtot   -1.188
        16           n15bf         1   UNL       n15        16     0.16185       14.0070 ; qtot   -1.026
        17           c16bf         1   UNL       c16        17    -0.26112       12.0110 ; qtot   -1.287
        18           c17bf         1   UNL       c17        18    -0.04248       12.0110 ; qtot   -1.330
        19           n18bf         1   UNL       n18        19    -0.27126       14.0070 ; qtot   -1.601
        20           c19bf         1   UNL       c19        20    -0.16948       12.0110 ; qtot   -1.770
        21           c20bf         1   UNL       c20        21    -0.09700       12.0110 ; qtot   -1.867
        22           c21bf         1   UNL       c21        22    -0.12311       12.0110 ; qtot   -1.990
        23           c22bf         1   UNL       c22        23    -0.03392       12.0110 ; qtot   -2.024
        24           c23bf         1   UNL       c23        24    -0.22776       12.0110 ; qtot   -2.252
        25           c24bf         1   UNL       c24        25     0.35866       12.0110 ; qtot   -1.893
        26           n25bf         1   UNL       n25        26    -0.50917       14.0070 ; qtot   -2.403
        27           n26bf         1   UNL       n26        27    -0.08410       14.0070 ; qtot   -2.487
        28           c27bf         1   UNL       c27        28    -0.02985       12.0110 ; qtot   -2.517
        29           c28bf         1   UNL       c28        29    -0.10271       12.0110 ; qtot   -2.619
        30           c29bf         1   UNL       c29        30    -0.14306       12.0110 ; qtot   -2.762
        31           c30bf         1   UNL       c30        31    -0.08406       12.0110 ; qtot   -2.846
        32           h31bf         1   UNL       h31        32     0.04575        1.0080 ; qtot   -2.801
        33           h32bf         1   UNL       h32        33     0.04575        1.0080 ; qtot   -2.755
        34           h33bf         1   UNL       h33        34     0.05179        1.0080 ; qtot   -2.703
        35           h34bf         1   UNL       h34        35     0.05179        1.0080 ; qtot   -2.651
        36           h35bf         1   UNL       h35        36     0.05280        1.0080 ; qtot   -2.598
        37           h36bf         1   UNL       h36        37     0.05179        1.0080 ; qtot   -2.547
        38           h37bf         1   UNL       h37        38     0.05179        1.0080 ; qtot   -2.495
        39           h38bf         1   UNL       h38        39     0.04575        1.0080 ; qtot   -2.449
        40           h39bf         1   UNL       h39        40     0.04575        1.0080 ; qtot   -2.403
        41           h40bf         1   UNL       h40        41     0.11532        1.0080 ; qtot   -2.288
        42           h41bf         1   UNL       h41        42     0.12664        1.0080 ; qtot   -2.161
        43           h42bf         1   UNL       h42        43     0.50487        1.0080 ; qtot   -1.657
        44           h43bf         1   UNL       h43        44     0.15334        1.0080 ; qtot   -1.503
        45           h44bf         1   UNL       h44        45     0.22767        1.0080 ; qtot   -1.276
        46           h45bf         1   UNL       h45        46     0.22246        1.0080 ; qtot   -1.053
        47           h46bf         1   UNL       h46        47     0.12542        1.0080 ; qtot   -0.928
        48           h47bf         1   UNL       h47        48     0.12504        1.0080 ; qtot   -0.803
        49           h48bf         1   UNL       h48        49     0.05082        1.0080 ; qtot   -0.752
        50           h49bf         1   UNL       h49        50     0.37661        1.0080 ; qtot   -0.375
        51           h50bf         1   UNL       h50        51     0.13324        1.0080 ; qtot   -0.242
        52           h51bf         1   UNL       h51        52     0.12664        1.0080 ; qtot   -0.115
        53           h52bf         1   UNL       h52        53     0.11530        1.0080 ; qtot   -0.000

[ bonds ]
;       ai        aj funct               r               k
         1         2     1        0.153478   179531.433228
         1         6     1        0.142987   197004.012842
         1        32     1        0.109658   290606.712061
         1        33     1        0.109658   290606.712061
         2         3     1        0.154625   166582.063037
         2        34     1        0.109478   297379.791895
         2        35     1        0.109478   297379.791895
         3         4     1        0.154625   166582.063037
         3         7     1        0.151673   188939.087256
         3        36     1        0.109639   296354.757861
         4         5     1        0.153478   179531.433228
         4        37     1        0.109478   297379.791895
         4        38     1        0.109478   297379.791895
         5         6     1        0.142987   197004.012842
         5        39     1        0.109658   290606.712061
         5        40     1        0.109658   290606.712061
         7         8     1        0.140258   285728.434668
         7        31     1        0.140258   285728.383594
         8         9     1        0.139556   324348.179639
         8        41     1        0.108677   315514.433838
         9        10     1        0.140442   286546.669189
         9        42     1        0.108464   322413.181787
        10        11     1        0.140926   253329.861523
        10        30     1        0.140442   286546.694727
        11        12     1        0.136705   312202.219678
        11        43     1        0.101301   413472.487061
        12        13     1        0.132061   353646.930762
        12        20     1        0.143870   235848.075781
        13        14     1        0.137731   242889.474023
        14        15     1        0.137592   344983.108887
        14        21     1        0.148350   208057.444189
        15        16     1        0.137846   276179.573193
        15        44     1        0.108178   332012.708887
        16        17     1        0.137750   263209.071045
        16        20     1        0.138998   204565.831836
        17        18     1        0.138746   337814.127246
        17        45     1        0.107915   345078.311230
        18        19     1        0.136744   275913.425439
        18        46     1        0.108260   332273.212939
        19        20     1        0.133378   321390.292871
        21        22     1        0.142433   254268.222607
        21        29     1        0.139561   307101.999268
        22        23     1        0.138513   345982.120605
        22        47     1        0.108464   321585.677295
        23        24     1        0.140977   299472.200488
        23        48     1        0.108610   319899.819482
        24        25     1        0.143230   248711.168848
        24        28     1        0.142098   249269.716504
        25        26     1        0.132469   384599.541699
        25        49     1        0.108275   331411.463184
        26        27     1        0.136225   242542.935449
        27        28     1        0.137146   283722.188281
        27        50     1        0.100944   434666.372559
        28        29     1        0.140152   304627.402295
        29        51     1        0.108507   321591.014551
        30        31     1        0.139556   324348.179639
        30        52     1        0.108464   322413.181787
        31        53     1        0.108677   315514.408301

[ angles ]
;       ai        aj        ak funct           theta             cth
         1         2         3     1      110.560791      676.700839
         1         2        34     1      109.418869      507.820040
         1         2        35     1      109.418869      507.820040
         1         6         5     1      112.360962      593.368846
         2         1         6     1      112.059341      646.091868
         2         1        32     1      110.581909      489.034719
         2         1        33     1      110.581909      489.034719
         2         3         4     1      108.915939      528.229170
         2         3         7     1      112.798058      613.675253
         2         3        36     1      107.342773      483.632503
         3         2        34     1      110.048424      470.410824
         3         2        35     1      110.048424      470.410824
         3         4         5     1      110.560791      676.700839
         3         4        37     1      110.048424      470.410824
         3         4        38     1      110.048424      470.410824
         3         7         8     1      121.296463      516.244317
         3         7        31     1      121.296463      516.244317
         4         3         7     1      112.798058      613.675253
         4         3        36     1      107.342773      483.632503
         4         5         6     1      112.059341      646.091868
         4         5        39     1      110.581909      489.034719
         4         5        40     1      110.581909      489.034719
         5         4        37     1      109.418869      507.820040
         5         4        38     1      109.418869      507.820040
         6         1        32     1      107.725235      465.838692
         6         1        33     1      107.725235      465.838692
         6         5        39     1      107.725235      465.838692
         6         5        40     1      107.725235      465.838692
         7         3        36     1      107.269897      513.676082
         7         8         9     1      121.832108      690.819668
         7         8        41     1      119.691002      412.588169
         7        31        30     1      121.832108      690.819668
         7        31        53     1      119.691002      412.588169
         8         7        31     1      117.324707      600.805635
         8         9        10     1      120.052513      737.460836
         8         9        42     1      120.205177      404.649671
         9         8        41     1      118.533066      433.100948
         9        10        11     1      120.649918      551.198012
         9        10        30     1      118.835403      576.717501
        10         9        42     1      119.773659      436.788762
        10        11        12     1      130.992447      388.766291
        10        11        43     1      115.479698      445.940432
        10        30        31     1      120.052513      737.460900
        10        30        52     1      119.773659      436.788698
        11        10        30     1      120.649918      551.197948
        11        12        13     1      121.343933      603.141131
        11        12        20     1      116.160477      347.852905
        12        11        43     1      112.183823      485.604830
        12        13        14     1      119.793762      659.281466
        12        20        16     1      117.476013      691.884693
        12        20        19     1      131.168365      328.267219
        13        12        20     1      121.163086      641.590825
        13        14        15     1      121.966331      389.510187
        13        14        21     1      116.263992      505.959789
        14        15        16     1      118.184242      872.211990
        14        15        44     1      124.892982      345.345800
        14        21        22     1      119.968796      596.169245
        14        21        29     1      120.006363      462.288651
        15        14        21     1      121.468979      451.185722
        15        16        17     1      132.324738      451.412524
        15        16        20     1      121.398743      769.110508
        16        15        44     1      117.429405      489.573775
        16        17        18     1      105.222717      375.667031
        16        17        45     1      122.391075      461.871917
        16        20        19     1      111.412987      167.360000
        17        16        20     1      106.439148      167.360000
        17        18        19     1      111.710022      296.607652
        17        18        46     1      126.932030      353.254706
        18        17        45     1      132.665771      296.979121
        18        19        20     1      105.148094      501.387338
        19        18        46     1      121.224686      373.698758
        21        22        23     1      121.768967      637.524678
        21        22        47     1      118.821877      437.177245
        21        29        28     1      117.575485      752.943475
        21        29        51     1      120.740341      417.152991
        22        21        29     1      120.215416      565.096584
        22        23        24     1      118.718689      667.878789
        22        23        48     1      120.630470      435.954975
        23        22        47     1      119.666855      423.052606
        23        24        25     1      136.517990      472.986497
        23        24        28     1      119.114426      702.113072
        24        23        48     1      120.868912      437.569878
        24        25        26     1      111.479248      389.645023
        24        25        49     1      128.954620      353.879567
        24        28        27     1      105.629051      167.360000
        24        28        29     1      122.444931      646.521977
        25        24        28     1      104.386375      456.099828
        25        26        27     1      105.968895      513.160456
        26        25        49     1      119.559181      397.470551
        26        27        28     1      112.587357      425.755262
        26        27        50     1      118.749695      478.428710
        27        28        29     1      132.012619      439.872112
        28        27        50     1      128.703522      382.976358
        28        29        51     1      121.796425      432.612870
        30        31        53     1      118.533066      433.100948
        31        30        52     1      120.205177      404.649671
        32         1        33     1      107.861084      341.482035
        34         2        35     1      106.993088      358.702666
        37         4        38     1      106.993088      358.702666
        39         5        40     1      107.861084      341.482035

[ dihedrals ] ; propers for gromacs 4.5 or higher, use funct 9
;       ai        aj        ak        al funct           phase               k        pn
         1         2         3         4     9        0.000000        1.110424         1
         1         2         3         4     9      180.000000       -1.940389         2
         1         2         3         4     9        0.000000        0.306132         3
         1         2         3         4     9      180.000000       -0.098539         4
         1         2         3         7     9        0.000000       -0.595124         1
         1         2         3         7     9      180.000000       -0.419997         2
         1         2         3         7     9        0.000000        0.409195         3
         1         2         3         7     9      180.000000        0.083592         4
         1         2         3        36     9        0.000000       -0.372251         1
         1         2         3        36     9      180.000000        0.015520         2
         1         2         3        36     9        0.000000        0.213332         3
         1         2         3        36     9      180.000000        0.075763         4
         1         6         5         4     9        0.000000        0.636475         1
         1         6         5         4     9      180.000000       -0.849203         2
         1         6         5         4     9        0.000000        0.629552         3
         1         6         5         4     9      180.000000        0.056774         4
         1         6         5        39     9        0.000000       -0.043314         1
         1         6         5        39     9      180.000000        0.028885         2
         1         6         5        39     9        0.000000        0.492752         3
         1         6         5        39     9      180.000000        0.004888         4
         1         6         5        40     9        0.000000       -0.043314         1
         1         6         5        40     9      180.000000        0.028885         2
         1         6         5        40     9        0.000000        0.492752         3
         1         6         5        40     9      180.000000        0.004888         4
         2         1         6         5     9        0.000000        0.636475         1
         2         1         6         5     9      180.000000       -0.849203         2
         2         1         6         5     9        0.000000        0.629552         3
         2         1         6         5     9      180.000000        0.056774         4
         2         3         4         5     9        0.000000        1.110424         1
         2         3         4         5     9      180.000000       -1.940389         2
         2         3         4         5     9        0.000000        0.306132         3
         2         3         4         5     9      180.000000       -0.098539         4
         2         3         4        37     9        0.000000       -0.041040         1
         2         3         4        37     9      180.000000        0.018089         2
         2         3         4        37     9        0.000000        0.326638         3
         2         3         4        37     9      180.000000        0.012667         4
         2         3         4        38     9        0.000000       -0.041040         1
         2         3         4        38     9      180.000000        0.018089         2
         2         3         4        38     9        0.000000        0.326638         3
         2         3         4        38     9      180.000000        0.012667         4
         2         3         7         8     9        0.000000       -0.009142         1
         2         3         7         8     9      180.000000        0.538046         2
         2         3         7         8     9        0.000000        0.199190         3
         2         3         7         8     9      180.000000        0.067958         4
         2         3         7        31     9        0.000000       -0.009142         1
         2         3         7        31     9      180.000000        0.538046         2
         2         3         7        31     9        0.000000        0.199190         3
         2         3         7        31     9      180.000000        0.067958         4
         3         2         1         6     9        0.000000        0.126064         1
         3         2         1         6     9      180.000000       -1.271432         2
         3         2         1         6     9        0.000000        0.353255         3
         3         2         1         6     9      180.000000       -0.006145         4
         3         2         1        32     9        0.000000       -0.030533         1
         3         2         1        32     9      180.000000        0.054150         2
         3         2         1        32     9        0.000000        0.312323         3
         3         2         1        32     9      180.000000        0.007951         4
         3         2         1        33     9        0.000000       -0.030533         1
         3         2         1        33     9      180.000000        0.054150         2
         3         2         1        33     9        0.000000        0.312323         3
         3         2         1        33     9      180.000000        0.007951         4
         3         4         5         6     9        0.000000        0.126064         1
         3         4         5         6     9      180.000000       -1.271432         2
         3         4         5         6     9        0.000000        0.353255         3
         3         4         5         6     9      180.000000       -0.006145         4
         3         4         5        39     9        0.000000       -0.030533         1
         3         4         5        39     9      180.000000        0.054150         2
         3         4         5        39     9        0.000000        0.312323         3
         3         4         5        39     9      180.000000        0.007951         4
         3         4         5        40     9        0.000000       -0.030533         1
         3         4         5        40     9      180.000000        0.054150         2
         3         4         5        40     9        0.000000        0.312323         3
         3         4         5        40     9      180.000000        0.007951         4
         3         7         8         9     9        0.000000        0.044060         1
         3         7         8         9     9      180.000000       15.247495         2
         3         7         8         9     9        0.000000       -0.160832         3
         3         7         8         9     9      180.000000       -0.245602         4
         3         7         8        41     9        0.000000       -0.030042         1
         3         7         8        41     9      180.000000       12.717199         2
         3         7         8        41     9        0.000000       -0.334389         3
         3         7         8        41     9      180.000000        0.208118         4
         3         7        31        30     9        0.000000        0.044060         1
         3         7        31        30     9      180.000000       15.247498         2
         3         7        31        30     9        0.000000       -0.160832         3
         3         7        31        30     9      180.000000       -0.245602         4
         3         7        31        53     9        0.000000       -0.030043         1
         3         7        31        53     9      180.000000       12.717198         2
         3         7        31        53     9        0.000000       -0.334389         3
         3         7        31        53     9      180.000000        0.208118         4
         4         3         2        34     9        0.000000       -0.041040         1
         4         3         2        34     9      180.000000        0.018089         2
         4         3         2        34     9        0.000000        0.326638         3
         4         3         2        34     9      180.000000        0.012667         4
         4         3         2        35     9        0.000000       -0.041040         1
         4         3         2        35     9      180.000000        0.018089         2
         4         3         2        35     9        0.000000        0.326638         3
         4         3         2        35     9      180.000000        0.012667         4
         4         3         7         8     9        0.000000       -0.009142         1
         4         3         7         8     9      180.000000        0.538046         2
         4         3         7         8     9        0.000000        0.199190         3
         4         3         7         8     9      180.000000        0.067958         4
         4         3         7        31     9        0.000000       -0.009142         1
         4         3         7        31     9      180.000000        0.538046         2
         4         3         7        31     9        0.000000        0.199190         3
         4         3         7        31     9      180.000000        0.067958         4
         5         4         3         7     9        0.000000       -0.595124         1
         5         4         3         7     9      180.000000       -0.419997         2
         5         4         3         7     9        0.000000        0.409195         3
         5         4         3         7     9      180.000000        0.083592         4
         5         4         3        36     9        0.000000       -0.372251         1
         5         4         3        36     9      180.000000        0.015520         2
         5         4         3        36     9        0.000000        0.213332         3
         5         4         3        36     9      180.000000        0.075763         4
         5         6         1        32     9        0.000000       -0.043314         1
         5         6         1        32     9      180.000000        0.028885         2
         5         6         1        32     9        0.000000        0.492752         3
         5         6         1        32     9      180.000000        0.004888         4
         5         6         1        33     9        0.000000       -0.043314         1
         5         6         1        33     9      180.000000        0.028885         2
         5         6         1        33     9        0.000000        0.492752         3
         5         6         1        33     9      180.000000        0.004888         4
         6         1         2        34     9        0.000000       -0.028676         1
         6         1         2        34     9      180.000000        0.024786         2
         6         1         2        34     9        0.000000        0.239300         3
         6         1         2        34     9      180.000000        0.026532         4
         6         1         2        35     9        0.000000       -0.028676         1
         6         1         2        35     9      180.000000        0.024786         2
         6         1         2        35     9        0.000000        0.239300         3
         6         1         2        35     9      180.000000        0.026532         4
         6         5         4        37     9        0.000000       -0.028676         1
         6         5         4        37     9      180.000000        0.024786         2
         6         5         4        37     9        0.000000        0.239300         3
         6         5         4        37     9      180.000000        0.026532         4
         6         5         4        38     9        0.000000       -0.028676         1
         6         5         4        38     9      180.000000        0.024786         2
         6         5         4        38     9        0.000000        0.239300         3
         6         5         4        38     9      180.000000        0.026532         4
         7         3         2        34     9        0.000000       -0.016135         1
         7         3         2        34     9      180.000000        0.036348         2
         7         3         2        34     9        0.000000        0.497724         3
         7         3         2        34     9      180.000000       -0.065479         4
         7         3         2        35     9        0.000000       -0.016135         1
         7         3         2        35     9      180.000000        0.036348         2
         7         3         2        35     9        0.000000        0.497724         3
         7         3         2        35     9      180.000000       -0.065479         4
         7         3         4        37     9        0.000000       -0.016135         1
         7         3         4        37     9      180.000000        0.036348         2
         7         3         4        37     9        0.000000        0.497724         3
         7         3         4        37     9      180.000000       -0.065479         4
         7         3         4        38     9        0.000000       -0.016135         1
         7         3         4        38     9      180.000000        0.036348         2
         7         3         4        38     9        0.000000        0.497724         3
         7         3         4        38     9      180.000000       -0.065479         4
         7         8         9        10     9        0.000000       -0.051096         1
         7         8         9        10     9      180.000000       18.170320         2
         7         8         9        10     9        0.000000       -1.543605         3
         7         8         9        10     9      180.000000       -0.352441         4
         7         8         9        42     9        0.000000        0.031348         1
         7         8         9        42     9      180.000000       14.160118         2
         7         8         9        42     9        0.000000       -0.549948         3
         7         8         9        42     9      180.000000        0.189918         4
         7        31        30        10     9        0.000000       -0.051096         1
         7        31        30        10     9      180.000000       18.170326         2
         7        31        30        10     9        0.000000       -1.543604         3
         7        31        30        10     9      180.000000       -0.352441         4
         7        31        30        52     9        0.000000        0.031348         1
         7        31        30        52     9      180.000000       14.160118         2
         7        31        30        52     9        0.000000       -0.549948         3
         7        31        30        52     9      180.000000        0.189918         4
         8         7         3        36     9        0.000000        0.116043         1
         8         7         3        36     9      180.000000       -0.207276         2
         8         7         3        36     9        0.000000        0.042227         3
         8         7         3        36     9      180.000000        0.012429         4
         8         7        31        30     9        0.000000       -0.061893         1
         8         7        31        30     9      180.000000       18.975575         2
         8         7        31        30     9        0.000000       -1.492788         3
         8         7        31        30     9      180.000000       -0.402664         4
         8         7        31        53     9        0.000000        0.034923         1
         8         7        31        53     9      180.000000       14.522600         2
         8         7        31        53     9        0.000000       -0.611218         3
         8         7        31        53     9      180.000000        0.040548         4
         8         9        10        11     9        0.000000        0.169919         1
         8         9        10        11     9      180.000000       16.974718         2
         8         9        10        11     9        0.000000        0.071621         3
         8         9        10        11     9      180.000000       -0.244384         4
         8         9        10        30     9        0.000000        0.025828         1
         8         9        10        30     9      180.000000       16.581266         2
         8         9        10        30     9        0.000000       -1.123395         3
         8         9        10        30     9      180.000000       -0.203916         4
         9         8         7        31     9        0.000000       -0.061893         1
         9         8         7        31     9      180.000000       18.975575         2
         9         8         7        31     9        0.000000       -1.492789         3
         9         8         7        31     9      180.000000       -0.402663         4
         9        10        11        12     9        0.000000        0.143904         1
         9        10        11        12     9      180.000000        3.347242         2
         9        10        11        12     9        0.000000       -0.151469         3
         9        10        11        12     9      180.000000        0.421213         4
         9        10        11        43     9        0.000000        0.210601         1
         9        10        11        43     9      180.000000        3.633775         2
         9        10        11        43     9        0.000000        0.176660         3
         9        10        11        43     9      180.000000        0.869301         4
         9        10        30        31     9        0.000000        0.025828         1
         9        10        30        31     9      180.000000       16.581266         2
         9        10        30        31     9        0.000000       -1.123394         3
         9        10        30        31     9      180.000000       -0.203916         4
         9        10        30        52     9        0.000000        0.089468         1
         9        10        30        52     9      180.000000       12.650432         2
         9        10        30        52     9        0.000000       -0.463149         3
         9        10        30        52     9      180.000000        0.158486         4
        10         9         8        41     9        0.000000        0.127915         1
        10         9         8        41     9      180.000000       14.585070         2
        10         9         8        41     9        0.000000       -0.462197         3
        10         9         8        41     9      180.000000        0.058297         4
        10        11        12        13     9        0.000000       -0.344397         1
        10        11        12        13     9      180.000000        6.829726         2
        10        11        12        13     9        0.000000       -0.024697         3
        10        11        12        13     9      180.000000       -0.528150         4
        10        11        12        20     9        0.000000        2.347041         1
        10        11        12        20     9      180.000000        5.743304         2
        10        11        12        20     9        0.000000        0.326121         3
        10        11        12        20     9      180.000000       -0.314833         4
        10        30        31        53     9        0.000000        0.127915         1
        10        30        31        53     9      180.000000       14.585070         2
        10        30        31        53     9        0.000000       -0.462197         3
        10        30        31        53     9      180.000000        0.058297         4
        11        10         9        42     9        0.000000       -0.155405         1
        11        10         9        42     9      180.000000       14.166794         2
        11        10         9        42     9        0.000000       -0.042732         3
        11        10         9        42     9      180.000000        0.129704         4
        11        10        30        31     9        0.000000        0.169919         1
        11        10        30        31     9      180.000000       16.974718         2
        11        10        30        31     9        0.000000        0.071621         3
        11        10        30        31     9      180.000000       -0.244385         4
        11        10        30        52     9        0.000000       -0.155405         1
        11        10        30        52     9      180.000000       14.166796         2
        11        10        30        52     9        0.000000       -0.042732         3
        11        10        30        52     9      180.000000        0.129703         4
        11        12        13        14     9        0.000000        1.943371         1
        11        12        13        14     9      180.000000       24.477186         2
        11        12        13        14     9        0.000000        0.699624         3
        11        12        13        14     9      180.000000       -1.007331         4
        11        12        20        16     9        0.000000        0.517582         1
        11        12        20        16     9      180.000000       12.000454         2
        11        12        20        16     9        0.000000        0.165513         3
        11        12        20        16     9      180.000000       -0.596021         4
        11        12        20        19     9        0.000000       -0.373541         1
        11        12        20        19     9      180.000000       10.813194         2
        11        12        20        19     9        0.000000       -0.126761         3
        11        12        20        19     9      180.000000       -0.468506         4
        12        11        10        30     9        0.000000        0.143904         1
        12        11        10        30     9      180.000000        3.347242         2
        12        11        10        30     9        0.000000       -0.151469         3
        12        11        10        30     9      180.000000        0.421213         4
        12        13        14        15     9        0.000000        1.012028         1
        12        13        14        15     9      180.000000       13.620728         2
        12        13        14        15     9        0.000000       -0.226826         3
        12        13        14        15     9      180.000000       -0.061795         4
        12        13        14        21     9        0.000000        1.551272         1
        12        13        14        21     9      180.000000       18.137816         2
        12        13        14        21     9        0.000000        0.656586         3
        12        13        14        21     9      180.000000       -1.048878         4
        12        20        16        15     9        0.000000        0.337947         1
        12        20        16        15     9      180.000000        5.781634         2
        12        20        16        15     9        0.000000       -0.134535         3
        12        20        16        15     9      180.000000        0.122361         4
        12        20        16        17     9        0.000000       -0.529939         1
        12        20        16        17     9      180.000000        7.254573         2
        12        20        16        17     9        0.000000       -2.285934         3
        12        20        16        17     9      180.000000        0.374903         4
        12        20        19        18     9        0.000000        1.546001         1
        12        20        19        18     9      180.000000       16.470755         2
        12        20        19        18     9        0.000000       -0.373495         3
        12        20        19        18     9      180.000000        0.010417         4
        13        12        11        43     9        0.000000       11.436749         1
        13        12        11        43     9      180.000000        6.771778         2
        13        12        11        43     9        0.000000       -0.402793         3
        13        12        11        43     9      180.000000        0.118547         4
        13        12        20        16     9        0.000000       -0.070283         1
        13        12        20        16     9      180.000000        9.274434         2
        13        12        20        16     9        0.000000       -0.539211         3
        13        12        20        16     9      180.000000       -0.339003         4
        13        12        20        19     9        0.000000       -1.871942         1
        13        12        20        19     9      180.000000        6.551413         2
        13        12        20        19     9        0.000000       -0.111201         3
        13        12        20        19     9      180.000000       -0.440309         4
        13        14        15        16     9        0.000000       -0.615167         1
        13        14        15        16     9      180.000000       29.692546         2
        13        14        15        16     9        0.000000       -1.048838         3
        13        14        15        16     9      180.000000       -1.730461         4
        13        14        15        44     9        0.000000        0.287259         1
        13        14        15        44     9      180.000000       17.653570         2
        13        14        15        44     9        0.000000        0.213044         3
        13        14        15        44     9      180.000000       -0.531463         4
        13        14        21        22     9        0.000000       -0.478480         1
        13        14        21        22     9      180.000000        4.213459         2
        13        14        21        22     9        0.000000        0.158819         3
        13        14        21        22     9      180.000000        0.023849         4
        13        14        21        29     9        0.000000       -0.249697         1
        13        14        21        29     9      180.000000        4.070625         2
        13        14        21        29     9        0.000000       -0.122232         3
        13        14        21        29     9      180.000000        0.044803         4
        14        13        12        20     9        0.000000        0.893690         1
        14        13        12        20     9      180.000000       22.117335         2
        14        13        12        20     9        0.000000        0.584990         3
        14        13        12        20     9      180.000000       -0.568744         4
        14        15        16        17     9        0.000000        0.496724         1
        14        15        16        17     9      180.000000        4.951623         2
        14        15        16        17     9        0.000000        0.249348         3
        14        15        16        17     9      180.000000        0.108870         4
        14        15        16        20     9        0.000000       -0.634424         1
        14        15        16        20     9      180.000000        9.291540         2
        14        15        16        20     9        0.000000       -1.054575         3
        14        15        16        20     9      180.000000       -0.058807         4
        14        21        22        23     9        0.000000        0.236000         1
        14        21        22        23     9      180.000000       14.368995         2
        14        21        22        23     9        0.000000       -0.147065         3
        14        21        22        23     9      180.000000       -0.199062         4
        14        21        22        47     9        0.000000       -0.132256         1
        14        21        22        47     9      180.000000       12.075877         2
        14        21        22        47     9        0.000000       -0.206751         3
        14        21        22        47     9      180.000000        0.138572         4
        14        21        29        28     9        0.000000        0.253657         1
        14        21        29        28     9      180.000000       18.931391         2
        14        21        29        28     9        0.000000        0.007612         3
        14        21        29        28     9      180.000000       -0.761701         4
        14        21        29        51     9        0.000000       -0.016970         1
        14        21        29        51     9      180.000000       12.777234         2
        14        21        29        51     9        0.000000       -0.099454         3
        14        21        29        51     9      180.000000        0.149938         4
        15        14        21        22     9        0.000000       -0.325306         1
        15        14        21        22     9      180.000000        3.533701         2
        15        14        21        22     9        0.000000       -0.028931         3
        15        14        21        22     9      180.000000       -0.107973         4
        15        14        21        29     9        0.000000       -0.318428         1
        15        14        21        29     9      180.000000        3.394260         2
        15        14        21        29     9        0.000000        0.363761         3
        15        14        21        29     9      180.000000       -0.261941         4
        15        16        17        18     9        0.000000        0.967452         1
        15        16        17        18     9      180.000000        5.219958         2
        15        16        17        18     9        0.000000        0.738494         3
        15        16        17        18     9      180.000000       -0.038282         4
        15        16        17        45     9        0.000000        0.151014         1
        15        16        17        45     9      180.000000        3.680096         2
        15        16        17        45     9        0.000000        0.373012         3
        15        16        17        45     9      180.000000        0.067587         4
        15        16        20        19     9        0.000000        0.545807         1
        15        16        20        19     9      180.000000        7.748301         2
        15        16        20        19     9        0.000000       -0.729831         3
        15        16        20        19     9      180.000000        0.136710         4
        16        15        14        21     9        0.000000        0.167931         1
        16        15        14        21     9      180.000000       26.604066         2
        16        15        14        21     9        0.000000        0.428746         3
        16        15        14        21     9      180.000000       -1.876920         4
        16        17        18        19     9        0.000000       -0.258793         1
        16        17        18        19     9      180.000000       36.323027         2
        16        17        18        19     9        0.000000       -7.442937         3
        16        17        18        19     9      180.000000       -0.839992         4
        16        17        18        46     9        0.000000        0.279818         1
        16        17        18        46     9      180.000000       18.770131         2
        16        17        18        46     9        0.000000       -0.507968         3
        16        17        18        46     9      180.000000       -0.564047         4
        16        20        19        18     9        0.000000       -0.172777         1
        16        20        19        18     9      180.000000       37.627789         2
        16        20        19        18     9        0.000000       -7.120096         3
        16        20        19        18     9      180.000000        0.116816         4
        17        16        15        44     9        0.000000       -0.200405         1
        17        16        15        44     9      180.000000        3.566462         2
        17        16        15        44     9        0.000000        0.306552         3
        17        16        15        44     9      180.000000        0.065874         4
        17        16        20        19     9        0.000000        0.131710         1
        17        16        20        19     9      180.000000       15.566772         2
        17        16        20        19     9        0.000000       -7.866552         3
        17        16        20        19     9      180.000000        0.257373         4
        17        18        19        20     9        0.000000       -0.255849         1
        17        18        19        20     9      180.000000       31.025341         2
        17        18        19        20     9        0.000000       -4.653101         3
        17        18        19        20     9      180.000000        0.341646         4
        18        17        16        20     9        0.000000        0.086044         1
        18        17        16        20     9      180.000000       25.283693         2
        18        17        16        20     9        0.000000       -9.272059         3
        18        17        16        20     9      180.000000        0.296509         4
        19        18        17        45     9        0.000000        0.292780         1
        19        18        17        45     9      180.000000       15.681650         2
        19        18        17        45     9        0.000000       -0.422047         3
        19        18        17        45     9      180.000000       -0.479005         4
        20        12        11        43     9        0.000000        2.941475         1
        20        12        11        43     9      180.000000        7.228743         2
        20        12        11        43     9        0.000000       -0.167485         3
        20        12        11        43     9      180.000000        0.477374         4
        20        16        15        44     9        0.000000        0.590660         1
        20        16        15        44     9      180.000000        4.595215         2
        20        16        15        44     9        0.000000        0.398248         3
        20        16        15        44     9      180.000000        0.099105         4
        20        16        17        45     9        0.000000        1.026521         1
        20        16        17        45     9      180.000000        6.099844         2
        20        16        17        45     9        0.000000        0.349087         3
        20        16        17        45     9      180.000000        0.232410         4
        20        19        18        46     9        0.000000        2.009586         1
        20        19        18        46     9      180.000000       22.682232         2
        20        19        18        46     9        0.000000        0.566971         3
        20        19        18        46     9      180.000000       -0.265561         4
        21        14        15        44     9        0.000000       -0.096732         1
        21        14        15        44     9      180.000000       14.902793         2
        21        14        15        44     9        0.000000        0.326008         3
        21        14        15        44     9      180.000000       -0.006970         4
        21        22        23        24     9        0.000000       -0.107889         1
        21        22        23        24     9      180.000000       21.232215         2
        21        22        23        24     9        0.000000       -1.587275         3
        21        22        23        24     9      180.000000       -0.422021         4
        21        22        23        48     9        0.000000       -0.009248         1
        21        22        23        48     9      180.000000       15.753535         2
        21        22        23        48     9        0.000000       -0.469098         3
        21        22        23        48     9      180.000000        0.063646         4
        21        29        28        24     9        0.000000       -0.066774         1
        21        29        28        24     9      180.000000       16.902019         2
        21        29        28        24     9        0.000000       -1.560631         3
        21        29        28        24     9      180.000000       -0.377307         4
        21        29        28        27     9        0.000000        0.254192         1
        21        29        28        27     9      180.000000       14.622402         2
        21        29        28        27     9        0.000000       -0.237802         3
        21        29        28        27     9      180.000000       -0.298818         4
        22        21        29        28     9        0.000000       -0.244727         1
        22        21        29        28     9      180.000000       20.621677         2
        22        21        29        28     9        0.000000       -1.717587         3
        22        21        29        28     9      180.000000       -0.461429         4
        22        21        29        51     9        0.000000       -0.015047         1
        22        21        29        51     9      180.000000       14.201647         2
        22        21        29        51     9        0.000000       -0.489871         3
        22        21        29        51     9      180.000000        0.066589         4
        22        23        24        25     9        0.000000        0.139640         1
        22        23        24        25     9      180.000000       11.636698         2
        22        23        24        25     9        0.000000       -0.542128         3
        22        23        24        25     9      180.000000       -0.119475         4
        22        23        24        28     9        0.000000        0.040250         1
        22        23        24        28     9      180.000000       19.441381         2
        22        23        24        28     9        0.000000       -2.386377         3
        22        23        24        28     9      180.000000       -0.429819         4
        23        22        21        29     9        0.000000       -0.107119         1
        23        22        21        29     9      180.000000       16.592383         2
        23        22        21        29     9        0.000000       -1.318220         3
        23        22        21        29     9      180.000000       -0.279142         4
        23        24        25        26     9        0.000000       -0.220760         1
        23        24        25        26     9      180.000000        4.549868         2
        23        24        25        26     9        0.000000       -0.722273         3
        23        24        25        26     9      180.000000        0.079155         4
        23        24        25        49     9        0.000000       -0.517556         1
        23        24        25        49     9      180.000000        4.883030         2
        23        24        25        49     9        0.000000        0.082458         3
        23        24        25        49     9      180.000000        0.099245         4
        23        24        28        27     9        0.000000        0.408956         1
        23        24        28        27     9      180.000000        9.908660         2
        23        24        28        27     9        0.000000       -1.829778         3
        23        24        28        27     9      180.000000        0.066646         4
        23        24        28        29     9        0.000000       -0.240999         1
        23        24        28        29     9      180.000000        9.774335         2
        23        24        28        29     9        0.000000       -1.540979         3
        23        24        28        29     9      180.000000        0.061509         4
        24        23        22        47     9        0.000000        0.116069         1
        24        23        22        47     9      180.000000       16.925254         2
        24        23        22        47     9        0.000000       -0.405095         3
        24        23        22        47     9      180.000000       -0.044939         4
        24        25        26        27     9        0.000000       -0.284270         1
        24        25        26        27     9      180.000000       41.018076         2
        24        25        26        27     9        0.000000       -4.737093         3
        24        25        26        27     9      180.000000       -0.187157         4
        24        28        27        26     9        0.000000        0.553012         1
        24        28        27        26     9      180.000000       22.995906         2
        24        28        27        26     9        0.000000       -4.944660         3
        24        28        27        26     9      180.000000       -0.958832         4
        24        28        27        50     9        0.000000        0.214200         1
        24        28        27        50     9      180.000000        1.495357         2
        24        28        27        50     9        0.000000        0.443301         3
        24        28        27        50     9      180.000000        0.005189         4
        24        28        29        51     9        0.000000        0.144083         1
        24        28        29        51     9      180.000000       11.714342         2
        24        28        29        51     9        0.000000       -0.120434         3
        24        28        29        51     9      180.000000        0.033214         4
        25        24        23        48     9        0.000000        0.021693         1
        25        24        23        48     9      180.000000        9.433860         2
        25        24        23        48     9        0.000000        0.021702         3
        25        24        23        48     9      180.000000        0.039741         4
        25        24        28        27     9        0.000000        0.361318         1
        25        24        28        27     9      180.000000       16.000809         2
        25        24        28        27     9        0.000000       -5.553572         3
        25        24        28        27     9      180.000000       -0.093660         4
        25        24        28        29     9        0.000000       -0.036103         1
        25        24        28        29     9      180.000000        9.290578         2
        25        24        28        29     9        0.000000       -1.652287         3
        25        24        28        29     9      180.000000        0.165067         4
        25        26        27        28     9        0.000000       -0.046163         1
        25        26        27        28     9      180.000000       18.138356         2
        25        26        27        28     9        0.000000       -2.785129         3
        25        26        27        28     9      180.000000       -0.764410         4
        25        26        27        50     9        0.000000        1.177740         1
        25        26        27        50     9      180.000000        3.861928         2
        25        26        27        50     9        0.000000        0.442982         3
        25        26        27        50     9      180.000000        0.067653         4
        26        25        24        28     9        0.000000       -0.126812         1
        26        25        24        28     9      180.000000       30.398344         2
        26        25        24        28     9        0.000000       -9.789498         3
        26        25        24        28     9      180.000000       -0.317035         4
        26        27        28        29     9        0.000000        1.093301         1
        26        27        28        29     9      180.000000        4.724149         2
        26        27        28        29     9        0.000000        0.395240         3
        26        27        28        29     9      180.000000       -0.001503         4
        27        26        25        49     9        0.000000        1.701934         1
        27        26        25        49     9      180.000000       28.876370         2
        27        26        25        49     9        0.000000        0.495705         3
        27        26        25        49     9      180.000000       -0.175253         4
        27        28        29        51     9        0.000000       -0.014434         1
        27        28        29        51     9      180.000000       10.806740         2
        27        28        29        51     9        0.000000       -0.063952         3
        27        28        29        51     9      180.000000        0.069027         4
        28        24        23        48     9        0.000000        0.207944         1
        28        24        23        48     9      180.000000       14.058516         2
        28        24        23        48     9        0.000000       -0.421088         3
        28        24        23        48     9      180.000000       -0.172162         4
        28        24        25        49     9        0.000000        0.975082         1
        28        24        25        49     9      180.000000       13.204561         2
        28        24        25        49     9        0.000000        0.283179         3
        28        24        25        49     9      180.000000       -0.304877         4
        29        21        22        47     9        0.000000       -0.083817         1
        29        21        22        47     9      180.000000       12.802174         2
        29        21        22        47     9        0.000000       -0.655207         3
        29        21        22        47     9      180.000000        0.081735         4
        29        28        27        50     9        0.000000       -0.487770         1
        29        28        27        50     9      180.000000        1.252037         2
        29        28        27        50     9        0.000000       -0.071214         3
        29        28        27        50     9      180.000000       -0.079567         4
        30        10         9        42     9        0.000000        0.089468         1
        30        10         9        42     9      180.000000       12.650432         2
        30        10         9        42     9        0.000000       -0.463150         3
        30        10         9        42     9      180.000000        0.158486         4
        30        10        11        43     9        0.000000        0.210602         1
        30        10        11        43     9      180.000000        3.633775         2
        30        10        11        43     9        0.000000        0.176659         3
        30        10        11        43     9      180.000000        0.869301         4
        31         7         3        36     9        0.000000        0.116043         1
        31         7         3        36     9      180.000000       -0.207276         2
        31         7         3        36     9        0.000000        0.042227         3
        31         7         3        36     9      180.000000        0.012428         4
        31         7         8        41     9        0.000000        0.034923         1
        31         7         8        41     9      180.000000       14.522600         2
        31         7         8        41     9        0.000000       -0.611219         3
        31         7         8        41     9      180.000000        0.040548         4
        32         1         2        34     9        0.000000       -0.007495         1
        32         1         2        34     9      180.000000       -0.010867         2
        32         1         2        34     9        0.000000        0.333271         3
        32         1         2        34     9      180.000000        0.004469         4
        32         1         2        35     9        0.000000       -0.007495         1
        32         1         2        35     9      180.000000       -0.010867         2
        32         1         2        35     9        0.000000        0.333271         3
        32         1         2        35     9      180.000000        0.004469         4
        33         1         2        34     9        0.000000       -0.007495         1
        33         1         2        34     9      180.000000       -0.010867         2
        33         1         2        34     9        0.000000        0.333271         3
        33         1         2        34     9      180.000000        0.004469         4
        33         1         2        35     9        0.000000       -0.007495         1
        33         1         2        35     9      180.000000       -0.010867         2
        33         1         2        35     9        0.000000        0.333271         3
        33         1         2        35     9      180.000000        0.004469         4
        34         2         3        36     9        0.000000        0.012997         1
        34         2         3        36     9      180.000000        0.006040         2
        34         2         3        36     9        0.000000        0.437285         3
        34         2         3        36     9      180.000000       -0.024655         4
        35         2         3        36     9        0.000000        0.012997         1
        35         2         3        36     9      180.000000        0.006040         2
        35         2         3        36     9        0.000000        0.437285         3
        35         2         3        36     9      180.000000       -0.024655         4
        36         3         4        37     9        0.000000        0.012997         1
        36         3         4        37     9      180.000000        0.006040         2
        36         3         4        37     9        0.000000        0.437285         3
        36         3         4        37     9      180.000000       -0.024655         4
        36         3         4        38     9        0.000000        0.012997         1
        36         3         4        38     9      180.000000        0.006040         2
        36         3         4        38     9        0.000000        0.437285         3
        36         3         4        38     9      180.000000       -0.024655         4
        37         4         5        39     9        0.000000       -0.007495         1
        37         4         5        39     9      180.000000       -0.010867         2
        37         4         5        39     9        0.000000        0.333271         3
        37         4         5        39     9      180.000000        0.004469         4
        37         4         5        40     9        0.000000       -0.007495         1
        37         4         5        40     9      180.000000       -0.010867         2
        37         4         5        40     9        0.000000        0.333271         3
        37         4         5        40     9      180.000000        0.004469         4
        38         4         5        39     9        0.000000       -0.007495         1
        38         4         5        39     9      180.000000       -0.010867         2
        38         4         5        39     9        0.000000        0.333271         3
        38         4         5        39     9      180.000000        0.004469         4
        38         4         5        40     9        0.000000       -0.007495         1
        38         4         5        40     9      180.000000       -0.010867         2
        38         4         5        40     9        0.000000        0.333271         3
        38         4         5        40     9      180.000000        0.004469         4
        41         8         9        42     9        0.000000       -0.208238         1
        41         8         9        42     9      180.000000       12.000150         2
        41         8         9        42     9        0.000000       -0.738636         3
        41         8         9        42     9      180.000000        0.345840         4
        45        17        18        46     9        0.000000       -0.357707         1
        45        17        18        46     9      180.000000        9.061504         2
        45        17        18        46     9        0.000000       -0.277917         3
        45        17        18        46     9      180.000000        0.193706         4
        47        22        23        48     9        0.000000       -0.091146         1
        47        22        23        48     9      180.000000       12.794650         2
        47        22        23        48     9        0.000000       -0.693019         3
        47        22        23        48     9      180.000000        0.301122         4
        52        30        31        53     9        0.000000       -0.208237         1
        52        30        31        53     9      180.000000       12.000153         2
        52        30        31        53     9        0.000000       -0.738635         3
        52        30        31        53     9      180.000000        0.345840         4

[ pairs ]
;       ai        aj funct
         1         4     1
         1         7     1
         1        36     1
         1        39     1
         1        40     1
         2         5     1
         2         8     1
         2        31     1
         2        37     1
         2        38     1
         3         6     1
         3         9     1
         3        30     1
         3        32     1
         3        33     1
         3        39     1
         3        40     1
         3        41     1
         3        53     1
         4         8     1
         4        31     1
         4        34     1
         4        35     1
         5         7     1
         5        32     1
         5        33     1
         5        36     1
         6        34     1
         6        35     1
         6        37     1
         6        38     1
         7        10     1
         7        34     1
         7        35     1
         7        37     1
         7        38     1
         7        42     1
         7        52     1
         8        11     1
         8        30     1
         8        36     1
         8        53     1
         9        12     1
         9        31     1
         9        43     1
         9        52     1
        10        13     1
        10        20     1
        10        41     1
        10        53     1
        11        14     1
        11        16     1
        11        19     1
        11        31     1
        11        42     1
        11        52     1
        12        15     1
        12        17     1
        12        18     1
        12        21     1
        12        30     1
        13        16     1
        13        19     1
        13        22     1
        13        29     1
        13        43     1
        13        44     1
        14        17     1
        14        20     1
        14        23     1
        14        28     1
        14        47     1
        14        51     1
        15        18     1
        15        19     1
        15        22     1
        15        29     1
        15        45     1
        16        21     1
        16        46     1
        17        44     1
        19        45     1
        20        43     1
        20        44     1
        20        45     1
        20        46     1
        21        24     1
        21        27     1
        21        44     1
        21        48     1
        22        25     1
        22        28     1
        22        51     1
        23        26     1
        23        27     1
        23        29     1
        23        49     1
        24        47     1
        24        50     1
        24        51     1
        25        29     1
        25        48     1
        25        50     1
        26        29     1
        27        49     1
        27        51     1
        28        48     1
        28        49     1
        29        47     1
        29        50     1
        30        42     1
        30        43     1
        31        36     1
        31        41     1
        32        34     1
        32        35     1
        33        34     1
        33        35     1
        34        36     1
        35        36     1
        36        37     1
        36        38     1
        37        39     1
        37        40     1
        38        39     1
        38        40     1
        41        42     1
        45        46     1
        47        48     1
        52        53     1
