; ITP file created by ByteFF-ML, 2026-02-21 07:50:06.137744

[ atomtypes ]
;name           bonded.type        at.num        mass        charge   ptype           sigma         epsilon
 c0bf                                   6      0.0000       0.00000       A     3.39773e-01     4.50258e-01
 c1bf                                   6      0.0000       0.00000       A     3.39878e-01     4.53925e-01
 c2bf                                   6      0.0000       0.00000       A     3.39773e-01     4.50258e-01
 c3bf                                   6      0.0000       0.00000       A     3.39773e-01     4.50258e-01
 c4bf                                   6      0.0000       0.00000       A     3.31480e-01     4.13264e-01
 c5bf                                   6      0.0000       0.00000       A     3.31496e-01     4.12094e-01
 c6bf                                   6      0.0000       0.00000       A     3.31484e-01     4.12959e-01
 c7bf                                   6      0.0000       0.00000       A     3.31270e-01     4.11230e-01
 n8bf                                   7      0.0000       0.00000       A     3.27803e-01     6.49204e-01
 c9bf                                   6      0.0000       0.00000       A     3.31293e-01     4.14462e-01
 n10bf                                  7      0.0000       0.00000       A     3.38681e-01     3.94196e-01
 c11bf                                  6      0.0000       0.00000       A     3.31487e-01     4.10472e-01
 c12bf                                  6      0.0000       0.00000       A     3.31502e-01     4.12996e-01
 n13bf                                  7      0.0000       0.00000       A     3.20544e-01     8.50304e-01
 c14bf                                  6      0.0000       0.00000       A     3.31513e-01     4.11963e-01
 c15bf                                  6      0.0000       0.00000       A     3.31488e-01     4.12482e-01
 n16bf                                  7      0.0000       0.00000       A     3.38571e-01     3.94678e-01
 c17bf                                  6      0.0000       0.00000       A     3.31524e-01     4.13157e-01
 c18bf                                  6      0.0000       0.00000       A     3.31354e-01     4.12147e-01
 c19bf                                  6      0.0000       0.00000       A     3.31470e-01     4.12222e-01
 c20bf                                  6      0.0000       0.00000       A     3.31483e-01     4.13996e-01
 c21bf                                  6      0.0000       0.00000       A     3.31488e-01     4.12376e-01
 c22bf                                  6      0.0000       0.00000       A     3.31433e-01     4.12801e-01
 n23bf                                  7      0.0000       0.00000       A     3.27101e-01     4.89767e-01
 c24bf                                  6      0.0000       0.00000       A     3.31401e-01     4.13208e-01
 o25bf                                  8      0.0000       0.00000       A     3.04652e-01     6.12749e-01
 c26bf                                  6      0.0000       0.00000       A     3.31393e-01     4.12878e-01
 c27bf                                  6      0.0000       0.00000       A     3.31475e-01     4.12046e-01
 c28bf                                  6      0.0000       0.00000       A     3.31574e-01     4.13222e-01
 c29bf                                  6      0.0000       0.00000       A     3.31397e-01     4.11945e-01
 c30bf                                  6      0.0000       0.00000       A     3.31574e-01     4.13222e-01
 c31bf                                  6      0.0000       0.00000       A     3.31475e-01     4.12046e-01
 c32bf                                  6      0.0000       0.00000       A     3.31389e-01     4.13684e-01
 o33bf                                  8      0.0000       0.00000       A     3.04847e-01     6.12158e-01
 o34bf                                  8      0.0000       0.00000       A     3.04847e-01     6.12158e-01
 c35bf                                  6      0.0000       0.00000       A     3.31599e-01     4.14873e-01
 c36bf                                  6      0.0000       0.00000       A     3.31484e-01     4.12959e-01
 c37bf                                  6      0.0000       0.00000       A     3.31496e-01     4.12094e-01
 h38bf                                  1      0.0000       0.00000       A     2.59968e-01     8.75795e-02
 h39bf                                  1      0.0000       0.00000       A     2.59968e-01     8.75795e-02
 h40bf                                  1      0.0000       0.00000       A     2.59968e-01     8.75795e-02
 h41bf                                  1      0.0000       0.00000       A     2.59968e-01     8.75795e-02
 h42bf                                  1      0.0000       0.00000       A     2.59968e-01     8.75795e-02
 h43bf                                  1      0.0000       0.00000       A     2.59968e-01     8.75795e-02
 h44bf                                  1      0.0000       0.00000       A     2.59968e-01     8.75795e-02
 h45bf                                  1      0.0000       0.00000       A     2.59968e-01     8.75795e-02
 h46bf                                  1      0.0000       0.00000       A     2.59968e-01     8.75795e-02
 h47bf                                  1      0.0000       0.00000       A     2.62545e-01     6.74419e-02
 h48bf                                  1      0.0000       0.00000       A     2.62480e-01     6.75760e-02
 h49bf                                  1      0.0000       0.00000       A     1.10437e-01     4.36637e-02
 h50bf                                  1      0.0000       0.00000       A     2.53936e-01     6.71690e-02
 h51bf                                  1      0.0000       0.00000       A     2.54157e-01     6.73717e-02
 h52bf                                  1      0.0000       0.00000       A     2.53844e-01     6.71387e-02
 h53bf                                  1      0.0000       0.00000       A     2.62488e-01     6.75042e-02
 h54bf                                  1      0.0000       0.00000       A     2.62537e-01     6.75425e-02
 h55bf                                  1      0.0000       0.00000       A     2.62571e-01     6.74818e-02
 h56bf                                  1      0.0000       0.00000       A     1.10552e-01     4.15186e-02
 h57bf                                  1      0.0000       0.00000       A     2.62488e-01     6.73206e-02
 h58bf                                  1      0.0000       0.00000       A     2.62449e-01     6.75600e-02
 h59bf                                  1      0.0000       0.00000       A     2.62449e-01     6.75600e-02
 h60bf                                  1      0.0000       0.00000       A     2.62488e-01     6.73206e-02
 h61bf                                  1      0.0000       0.00000       A     2.62501e-01     6.77499e-02
 h62bf                                  1      0.0000       0.00000       A     2.62480e-01     6.75760e-02
 h63bf                                  1      0.0000       0.00000       A     2.62545e-01     6.74419e-02

[ moleculetype ]
;name             nrexcl
 docked_CHEMBL3264994       3

[ atoms ]
;       nr            type      resi   res      atom      cgnr      charge          mass ; qtot
         1            c0bf         1   UNL        c0         1    -0.08753       12.0110 ; qtot   -0.088
         2            c1bf         1   UNL        c1         2    -0.00002       12.0110 ; qtot   -0.088
         3            c2bf         1   UNL        c2         3    -0.08753       12.0110 ; qtot   -0.175
         4            c3bf         1   UNL        c3         4    -0.08753       12.0110 ; qtot   -0.263
         5            c4bf         1   UNL        c4         5    -0.08804       12.0110 ; qtot   -0.351
         6            c5bf         1   UNL        c5         6    -0.08903       12.0110 ; qtot   -0.440
         7            c6bf         1   UNL        c6         7    -0.14273       12.0110 ; qtot   -0.582
         8            c7bf         1   UNL        c7         8     0.29631       12.0110 ; qtot   -0.286
         9            n8bf         1   UNL        n8         9    -0.91545       14.0070 ; qtot   -1.202
        10            c9bf         1   UNL        c9        10     0.67901       12.0110 ; qtot   -0.523
        11           n10bf         1   UNL       n10        11    -0.75831       14.0070 ; qtot   -1.281
        12           c11bf         1   UNL       c11        12     0.38879       12.0110 ; qtot   -0.892
        13           c12bf         1   UNL       c12        13    -0.18135       12.0110 ; qtot   -1.073
        14           n13bf         1   UNL       n13        14     0.16114       14.0070 ; qtot   -0.912
        15           c14bf         1   UNL       c14        15    -0.26112       12.0110 ; qtot   -1.173
        16           c15bf         1   UNL       c15        16    -0.04248       12.0110 ; qtot   -1.216
        17           n16bf         1   UNL       n16        17    -0.27126       14.0070 ; qtot   -1.487
        18           c17bf         1   UNL       c17        18    -0.16948       12.0110 ; qtot   -1.657
        19           c18bf         1   UNL       c18        19    -0.10706       12.0110 ; qtot   -1.764
        20           c19bf         1   UNL       c19        20    -0.09951       12.0110 ; qtot   -1.863
        21           c20bf         1   UNL       c20        21    -0.08929       12.0110 ; qtot   -1.952
        22           c21bf         1   UNL       c21        22    -0.14312       12.0110 ; qtot   -2.096
        23           c22bf         1   UNL       c22        23    -0.01871       12.0110 ; qtot   -2.114
        24           n23bf         1   UNL       n23        24    -0.15078       14.0070 ; qtot   -2.265
        25           c24bf         1   UNL       c24        25     0.62077       12.0110 ; qtot   -1.644
        26           o25bf         1   UNL       o25        26    -0.57985       15.9990 ; qtot   -2.224
        27           c26bf         1   UNL       c26        27    -0.16247       12.0110 ; qtot   -2.387
        28           c27bf         1   UNL       c27        28    -0.10005       12.0110 ; qtot   -2.487
        29           c28bf         1   UNL       c28        29    -0.12553       12.0110 ; qtot   -2.612
        30           c29bf         1   UNL       c29        30    -0.12346       12.0110 ; qtot   -2.736
        31           c30bf         1   UNL       c30        31    -0.12553       12.0110 ; qtot   -2.861
        32           c31bf         1   UNL       c31        32    -0.10005       12.0110 ; qtot   -2.961
        33           c32bf         1   UNL       c32        33     0.69559       12.0110 ; qtot   -2.266
        34           o33bf         1   UNL       o33        34    -0.73266       15.9990 ; qtot   -2.998
        35           o34bf         1   UNL       o34        35    -0.73266       15.9990 ; qtot   -3.731
        36           c35bf         1   UNL       c35        36    -0.11887       12.0110 ; qtot   -3.850
        37           c36bf         1   UNL       c36        37    -0.14273       12.0110 ; qtot   -3.993
        38           c37bf         1   UNL       c37        38    -0.08903       12.0110 ; qtot   -4.082
        39           h38bf         1   UNL       h38        39     0.03644        1.0080 ; qtot   -4.045
        40           h39bf         1   UNL       h39        40     0.03644        1.0080 ; qtot   -4.009
        41           h40bf         1   UNL       h40        41     0.03644        1.0080 ; qtot   -3.972
        42           h41bf         1   UNL       h41        42     0.03644        1.0080 ; qtot   -3.936
        43           h42bf         1   UNL       h42        43     0.03644        1.0080 ; qtot   -3.899
        44           h43bf         1   UNL       h43        44     0.03644        1.0080 ; qtot   -3.863
        45           h44bf         1   UNL       h44        45     0.03644        1.0080 ; qtot   -3.827
        46           h45bf         1   UNL       h45        46     0.03644        1.0080 ; qtot   -3.790
        47           h46bf         1   UNL       h46        47     0.03644        1.0080 ; qtot   -3.754
        48           h47bf         1   UNL       h47        48     0.11632        1.0080 ; qtot   -3.637
        49           h48bf         1   UNL       h48        49     0.12727        1.0080 ; qtot   -3.510
        50           h49bf         1   UNL       h49        50     0.50487        1.0080 ; qtot   -3.005
        51           h50bf         1   UNL       h50        51     0.15431        1.0080 ; qtot   -2.851
        52           h51bf         1   UNL       h51        52     0.22767        1.0080 ; qtot   -2.623
        53           h52bf         1   UNL       h52        53     0.22246        1.0080 ; qtot   -2.401
        54           h53bf         1   UNL       h53        54     0.12453        1.0080 ; qtot   -2.276
        55           h54bf         1   UNL       h54        55     0.11886        1.0080 ; qtot   -2.157
        56           h55bf         1   UNL       h55        56     0.13396        1.0080 ; qtot   -2.023
        57           h56bf         1   UNL       h56        57     0.15529        1.0080 ; qtot   -1.868
        58           h57bf         1   UNL       h57        58     0.11657        1.0080 ; qtot   -1.752
        59           h58bf         1   UNL       h58        59     0.12575        1.0080 ; qtot   -1.626
        60           h59bf         1   UNL       h59        60     0.12575        1.0080 ; qtot   -1.500
        61           h60bf         1   UNL       h60        61     0.11657        1.0080 ; qtot   -1.383
        62           h61bf         1   UNL       h61        62     0.13989        1.0080 ; qtot   -1.244
        63           h62bf         1   UNL       h62        63     0.12727        1.0080 ; qtot   -1.116
        64           h63bf         1   UNL       h63        64     0.11631        1.0080 ; qtot   -1.000

[ bonds ]
;       ai        aj funct               r               k
         1         2     1        0.154424   170787.220532
         1        39     1        0.109415   298652.203906
         1        40     1        0.109415   298652.203906
         1        41     1        0.109415   298652.203906
         2         3     1        0.154424   170787.220532
         2         4     1        0.154424   170787.220532
         2         5     1        0.153449   164485.874951
         3        42     1        0.109415   298652.203906
         3        43     1        0.109415   298652.203906
         3        44     1        0.109415   298652.203906
         4        45     1        0.109415   298652.203906
         4        46     1        0.109415   298652.203906
         4        47     1        0.109415   298652.203906
         5         6     1        0.140330   283161.291211
         5        38     1        0.140330   283161.291211
         6         7     1        0.139532   324053.583545
         6        48     1        0.108558   318561.904785
         7         8     1        0.140392   287816.348730
         7        49     1        0.108453   322652.745410
         8         9     1        0.140978   252723.559473
         8        37     1        0.140392   287816.323193
         9        10     1        0.136705   312202.219678
         9        50     1        0.101301   413472.512598
        10        11     1        0.132079   353344.852295
        10        18     1        0.143870   235848.075781
        11        12     1        0.137711   243160.141846
        12        13     1        0.137556   346038.812988
        12        19     1        0.148338   208785.851929
        13        14     1        0.137841   276178.679395
        13        51     1        0.108180   332005.354199
        14        15     1        0.137750   263209.045508
        14        18     1        0.138998   204565.857373
        15        16     1        0.138746   337814.152783
        15        52     1        0.107915   345078.260156
        16        17     1        0.136744   275913.399902
        16        53     1        0.108260   332273.212939
        17        18     1        0.133378   321390.292871
        19        20     1        0.140469   289030.536133
        19        36     1        0.140281   292560.122168
        20        21     1        0.139537   317200.189502
        20        54     1        0.108494   321589.278027
        21        22     1        0.139571   318708.053662
        21        55     1        0.108615   319625.065723
        22        23     1        0.140535   284357.194043
        22        56     1        0.108351   326372.199854
        23        24     1        0.141137   244705.213574
        23        36     1        0.140308   286551.138184
        24        25     1        0.137825   259681.170459
        24        57     1        0.101064   420843.850293
        25        26     1        0.123111   598505.520215
        25        27     1        0.150362   172941.939673
        27        28     1        0.140438   290448.816113
        27        32     1        0.140438   290448.816113
        28        29     1        0.139446   322011.687354
        28        58     1        0.108602   318210.539697
        29        30     1        0.140337   290899.341797
        29        59     1        0.108501   321877.617529
        30        31     1        0.140337   290899.341797
        30        33     1        0.155123   111906.294678
        31        32     1        0.139446   322011.687354
        31        60     1        0.108501   321877.617529
        32        61     1        0.108602   318210.514160
        33        34     1        0.126085   486138.408398
        33        35     1        0.126085   486138.408398
        36        62     1        0.108262   327001.536377
        37        38     1        0.139532   324053.532471
        37        63     1        0.108453   322652.745410
        38        64     1        0.108558   318561.879248

[ angles ]
;       ai        aj        ak funct           theta             cth
         1         2         3     1      108.563232      558.929500
         1         2         4     1      108.563232      558.929500
         1         2         5     1      110.330238      650.055993
         2         1        39     1      111.041466      474.591696
         2         1        40     1      111.041466      474.591696
         2         1        41     1      111.041466      474.591696
         2         3        42     1      111.041466      474.591696
         2         3        43     1      111.041466      474.591696
         2         3        44     1      111.041466      474.591696
         2         4        45     1      111.041466      474.591696
         2         4        46     1      111.041466      474.591696
         2         4        47     1      111.041466      474.591696
         2         5         6     1      121.662216      494.321507
         2         5        38     1      121.662216      494.321507
         3         2         4     1      108.563232      558.929500
         3         2         5     1      110.330238      650.055993
         4         2         5     1      110.330238      650.055993
         5         6         7     1      121.998734      688.126716
         5         6        48     1      119.937378      402.026818
         5        38        37     1      121.998734      688.126716
         5        38        64     1      119.937378      402.026818
         6         5        38     1      116.879028      633.403947
         6         7         8     1      120.116348      735.086268
         6         7        49     1      120.128868      404.043867
         7         6        48     1      118.197830      431.467945
         7         8         9     1      120.703537      549.560126
         7         8        37     1      118.712486      588.808173
         8         7        49     1      119.770447      436.069796
         8         9        10     1      130.958313      388.595416
         8         9        50     1      115.472755      445.563664
         8        37        38     1      120.116348      735.086268
         8        37        63     1      119.770447      436.069796
         9         8        37     1      120.703537      549.560126
         9        10        11     1      121.352745      603.274690
         9        10        18     1      116.160477      347.852905
        10         9        50     1      112.183823      485.604830
        10        11        12     1      119.748596      662.020640
        10        18        14     1      117.476013      691.884693
        10        18        17     1      131.168365      328.267219
        11        10        18     1      121.162231      641.675161
        11        12        13     1      122.029823      386.322550
        11        12        19     1      116.316185      496.973695
        12        13        14     1      118.164795      872.690875
        12        13        51     1      124.894363      345.289490
        12        19        20     1      120.815857      544.365431
        12        19        36     1      120.218323      465.863686
        13        12        19     1      121.354919      453.091397
        13        14        15     1      132.322876      451.336998
        13        14        18     1      121.408890      768.949816
        14        13        51     1      117.425148      489.799204
        14        15        16     1      105.222717      375.667031
        14        15        52     1      122.391075      461.871917
        14        18        17     1      111.412987      167.360000
        15        14        18     1      106.439148      167.360000
        15        16        17     1      111.710022      296.607652
        15        16        53     1      126.932030      353.254706
        16        15        52     1      132.665771      296.979121
        16        17        18     1      105.148094      501.387338
        17        16        53     1      121.224686      373.698758
        19        20        21     1      119.872414      678.627422
        19        20        54     1      119.863403      429.663302
        19        36        23     1      120.635666      714.234516
        19        36        62     1      119.511292      410.042215
        20        19        36     1      119.325150      617.638357
        20        21        22     1      120.983383      703.784092
        20        21        55     1      119.792336      444.415866
        21        20        54     1      120.255753      424.829255
        21        22        23     1      119.431114      726.475282
        21        22        56     1      120.669411      393.666384
        22        21        55     1      119.218521      440.649973
        22        23        24     1      120.455521      613.525669
        22        23        36     1      119.587318      552.122328
        23        22        56     1      119.912987      453.737135
        23        24        25     1      129.380432      474.748302
        23        24        57     1      114.525070      455.650056
        23        36        62     1      119.560379      436.806733
        24        23        36     1      119.171532      513.727061
        24        25        26     1      123.609329      582.920082
        24        25        27     1      114.822388      455.831880
        25        24        57     1      116.110123      428.115019
        25        27        28     1      120.649269      542.977042
        25        27        32     1      120.649269      542.977042
        26        25        27     1      121.275803      649.807900
        27        28        29     1      120.412903      662.809609
        27        28        58     1      119.608665      409.988651
        27        32        31     1      120.412903      662.809609
        27        32        61     1      119.608665      409.988651
        28        27        32     1      118.710655      581.298156
        28        29        30     1      120.951683      740.920284
        28        29        59     1      121.419922      396.831709
        29        28        58     1      119.953430      429.768355
        29        30        31     1      118.322388      697.962717
        29        30        33     1      120.953018      474.421076
        30        29        59     1      117.498550      414.954693
        30        31        32     1      120.951683      740.920284
        30        31        60     1      117.498550      414.954693
        30        33        34     1      114.941360      369.885557
        30        33        35     1      114.941360      369.885557
        31        30        33     1      120.953018      474.421076
        31        32        61     1      119.953430      429.768355
        32        31        60     1      121.419937      396.831709
        34        33        35     1      129.919800      708.740079
        37        38        64     1      118.197815      431.467945
        38        37        63     1      120.128868      404.043867
        39         1        40     1      107.887100      362.502077
        39         1        41     1      107.887100      362.502077
        40         1        41     1      107.887100      362.502077
        42         3        43     1      107.887100      362.502077
        42         3        44     1      107.887100      362.502077
        43         3        44     1      107.887100      362.502077
        45         4        46     1      107.887100      362.502077
        45         4        47     1      107.887100      362.502077
        46         4        47     1      107.887100      362.502077

[ dihedrals ] ; propers for gromacs 4.5 or higher, use funct 9
;       ai        aj        ak        al funct           phase               k        pn
         1         2         3        42     9        0.000000       -0.086644         1
         1         2         3        42     9      180.000000        0.035146         2
         1         2         3        42     9        0.000000        0.537983         3
         1         2         3        42     9      180.000000        0.036905         4
         1         2         3        43     9        0.000000       -0.086644         1
         1         2         3        43     9      180.000000        0.035146         2
         1         2         3        43     9        0.000000        0.537983         3
         1         2         3        43     9      180.000000        0.036905         4
         1         2         3        44     9        0.000000       -0.086644         1
         1         2         3        44     9      180.000000        0.035146         2
         1         2         3        44     9        0.000000        0.537983         3
         1         2         3        44     9      180.000000        0.036905         4
         1         2         4        45     9        0.000000       -0.086644         1
         1         2         4        45     9      180.000000        0.035146         2
         1         2         4        45     9        0.000000        0.537983         3
         1         2         4        45     9      180.000000        0.036905         4
         1         2         4        46     9        0.000000       -0.086644         1
         1         2         4        46     9      180.000000        0.035146         2
         1         2         4        46     9        0.000000        0.537983         3
         1         2         4        46     9      180.000000        0.036905         4
         1         2         4        47     9        0.000000       -0.086644         1
         1         2         4        47     9      180.000000        0.035146         2
         1         2         4        47     9        0.000000        0.537983         3
         1         2         4        47     9      180.000000        0.036905         4
         1         2         5         6     9        0.000000       -0.001564         1
         1         2         5         6     9      180.000000        0.216552         2
         1         2         5         6     9        0.000000        0.001582         3
         1         2         5         6     9      180.000000        0.242058         4
         1         2         5        38     9        0.000000       -0.001565         1
         1         2         5        38     9      180.000000        0.216553         2
         1         2         5        38     9        0.000000        0.001582         3
         1         2         5        38     9      180.000000        0.242058         4
         2         5         6         7     9        0.000000        0.029308         1
         2         5         6         7     9      180.000000       14.600617         2
         2         5         6         7     9        0.000000       -0.026745         3
         2         5         6         7     9      180.000000       -0.175822         4
         2         5         6        48     9        0.000000       -0.073036         1
         2         5         6        48     9      180.000000       12.753523         2
         2         5         6        48     9        0.000000       -0.286654         3
         2         5         6        48     9      180.000000        0.185546         4
         2         5        38        37     9        0.000000        0.029308         1
         2         5        38        37     9      180.000000       14.600613         2
         2         5        38        37     9        0.000000       -0.026745         3
         2         5        38        37     9      180.000000       -0.175821         4
         2         5        38        64     9        0.000000       -0.073037         1
         2         5        38        64     9      180.000000       12.753522         2
         2         5        38        64     9        0.000000       -0.286654         3
         2         5        38        64     9      180.000000        0.185546         4
         3         2         1        39     9        0.000000       -0.086644         1
         3         2         1        39     9      180.000000        0.035146         2
         3         2         1        39     9        0.000000        0.537983         3
         3         2         1        39     9      180.000000        0.036905         4
         3         2         1        40     9        0.000000       -0.086644         1
         3         2         1        40     9      180.000000        0.035146         2
         3         2         1        40     9        0.000000        0.537983         3
         3         2         1        40     9      180.000000        0.036905         4
         3         2         1        41     9        0.000000       -0.086644         1
         3         2         1        41     9      180.000000        0.035146         2
         3         2         1        41     9        0.000000        0.537983         3
         3         2         1        41     9      180.000000        0.036905         4
         3         2         4        45     9        0.000000       -0.086644         1
         3         2         4        45     9      180.000000        0.035146         2
         3         2         4        45     9        0.000000        0.537983         3
         3         2         4        45     9      180.000000        0.036905         4
         3         2         4        46     9        0.000000       -0.086644         1
         3         2         4        46     9      180.000000        0.035146         2
         3         2         4        46     9        0.000000        0.537983         3
         3         2         4        46     9      180.000000        0.036905         4
         3         2         4        47     9        0.000000       -0.086644         1
         3         2         4        47     9      180.000000        0.035146         2
         3         2         4        47     9        0.000000        0.537983         3
         3         2         4        47     9      180.000000        0.036905         4
         3         2         5         6     9        0.000000       -0.001564         1
         3         2         5         6     9      180.000000        0.216552         2
         3         2         5         6     9        0.000000        0.001582         3
         3         2         5         6     9      180.000000        0.242058         4
         3         2         5        38     9        0.000000       -0.001565         1
         3         2         5        38     9      180.000000        0.216553         2
         3         2         5        38     9        0.000000        0.001582         3
         3         2         5        38     9      180.000000        0.242058         4
         4         2         1        39     9        0.000000       -0.086644         1
         4         2         1        39     9      180.000000        0.035146         2
         4         2         1        39     9        0.000000        0.537983         3
         4         2         1        39     9      180.000000        0.036905         4
         4         2         1        40     9        0.000000       -0.086644         1
         4         2         1        40     9      180.000000        0.035146         2
         4         2         1        40     9        0.000000        0.537983         3
         4         2         1        40     9      180.000000        0.036905         4
         4         2         1        41     9        0.000000       -0.086644         1
         4         2         1        41     9      180.000000        0.035146         2
         4         2         1        41     9        0.000000        0.537983         3
         4         2         1        41     9      180.000000        0.036905         4
         4         2         3        42     9        0.000000       -0.086644         1
         4         2         3        42     9      180.000000        0.035146         2
         4         2         3        42     9        0.000000        0.537983         3
         4         2         3        42     9      180.000000        0.036905         4
         4         2         3        43     9        0.000000       -0.086644         1
         4         2         3        43     9      180.000000        0.035146         2
         4         2         3        43     9        0.000000        0.537983         3
         4         2         3        43     9      180.000000        0.036905         4
         4         2         3        44     9        0.000000       -0.086644         1
         4         2         3        44     9      180.000000        0.035146         2
         4         2         3        44     9        0.000000        0.537983         3
         4         2         3        44     9      180.000000        0.036905         4
         4         2         5         6     9        0.000000       -0.001564         1
         4         2         5         6     9      180.000000        0.216552         2
         4         2         5         6     9        0.000000        0.001582         3
         4         2         5         6     9      180.000000        0.242058         4
         4         2         5        38     9        0.000000       -0.001565         1
         4         2         5        38     9      180.000000        0.216553         2
         4         2         5        38     9        0.000000        0.001582         3
         4         2         5        38     9      180.000000        0.242058         4
         5         2         1        39     9        0.000000       -0.003345         1
         5         2         1        39     9      180.000000        0.018749         2
         5         2         1        39     9        0.000000        0.611593         3
         5         2         1        39     9      180.000000       -0.015888         4
         5         2         1        40     9        0.000000       -0.003345         1
         5         2         1        40     9      180.000000        0.018749         2
         5         2         1        40     9        0.000000        0.611593         3
         5         2         1        40     9      180.000000       -0.015888         4
         5         2         1        41     9        0.000000       -0.003345         1
         5         2         1        41     9      180.000000        0.018749         2
         5         2         1        41     9        0.000000        0.611593         3
         5         2         1        41     9      180.000000       -0.015888         4
         5         2         3        42     9        0.000000       -0.003345         1
         5         2         3        42     9      180.000000        0.018749         2
         5         2         3        42     9        0.000000        0.611593         3
         5         2         3        42     9      180.000000       -0.015888         4
         5         2         3        43     9        0.000000       -0.003345         1
         5         2         3        43     9      180.000000        0.018749         2
         5         2         3        43     9        0.000000        0.611593         3
         5         2         3        43     9      180.000000       -0.015888         4
         5         2         3        44     9        0.000000       -0.003345         1
         5         2         3        44     9      180.000000        0.018749         2
         5         2         3        44     9        0.000000        0.611593         3
         5         2         3        44     9      180.000000       -0.015888         4
         5         2         4        45     9        0.000000       -0.003345         1
         5         2         4        45     9      180.000000        0.018749         2
         5         2         4        45     9        0.000000        0.611593         3
         5         2         4        45     9      180.000000       -0.015888         4
         5         2         4        46     9        0.000000       -0.003345         1
         5         2         4        46     9      180.000000        0.018749         2
         5         2         4        46     9        0.000000        0.611593         3
         5         2         4        46     9      180.000000       -0.015888         4
         5         2         4        47     9        0.000000       -0.003345         1
         5         2         4        47     9      180.000000        0.018749         2
         5         2         4        47     9        0.000000        0.611593         3
         5         2         4        47     9      180.000000       -0.015888         4
         5         6         7         8     9        0.000000       -0.033790         1
         5         6         7         8     9      180.000000       17.815242         2
         5         6         7         8     9        0.000000       -1.571116         3
         5         6         7         8     9      180.000000       -0.358956         4
         5         6         7        49     9        0.000000        0.005402         1
         5         6         7        49     9      180.000000       14.249436         2
         5         6         7        49     9        0.000000       -0.600691         3
         5         6         7        49     9      180.000000        0.179137         4
         5        38        37         8     9        0.000000       -0.033789         1
         5        38        37         8     9      180.000000       17.815240         2
         5        38        37         8     9        0.000000       -1.571117         3
         5        38        37         8     9      180.000000       -0.358956         4
         5        38        37        63     9        0.000000        0.005402         1
         5        38        37        63     9      180.000000       14.249436         2
         5        38        37        63     9        0.000000       -0.600692         3
         5        38        37        63     9      180.000000        0.179137         4
         6         5        38        37     9        0.000000       -0.032421         1
         6         5        38        37     9      180.000000       18.963901         2
         6         5        38        37     9        0.000000       -1.394774         3
         6         5        38        37     9      180.000000       -0.453458         4
         6         5        38        64     9        0.000000        0.009801         1
         6         5        38        64     9      180.000000       14.501680         2
         6         5        38        64     9        0.000000       -0.662999         3
         6         5        38        64     9      180.000000        0.060080         4
         6         7         8         9     9        0.000000        0.153250         1
         6         7         8         9     9      180.000000       17.090258         2
         6         7         8         9     9        0.000000        0.053904         3
         6         7         8         9     9      180.000000       -0.254709         4
         6         7         8        37     9        0.000000        0.058380         1
         6         7         8        37     9      180.000000       16.820847         2
         6         7         8        37     9        0.000000       -1.128967         3
         6         7         8        37     9      180.000000       -0.215857         4
         7         6         5        38     9        0.000000       -0.032421         1
         7         6         5        38     9      180.000000       18.963901         2
         7         6         5        38     9        0.000000       -1.394774         3
         7         6         5        38     9      180.000000       -0.453459         4
         7         8         9        10     9        0.000000        0.162046         1
         7         8         9        10     9      180.000000        3.310303         2
         7         8         9        10     9        0.000000       -0.172113         3
         7         8         9        10     9      180.000000        0.423830         4
         7         8         9        50     9        0.000000        0.166613         1
         7         8         9        50     9      180.000000        3.619739         2
         7         8         9        50     9        0.000000        0.157425         3
         7         8         9        50     9      180.000000        0.868037         4
         7         8        37        38     9        0.000000        0.058379         1
         7         8        37        38     9      180.000000       16.820847         2
         7         8        37        38     9        0.000000       -1.128968         3
         7         8        37        38     9      180.000000       -0.215856         4
         7         8        37        63     9        0.000000        0.053435         1
         7         8        37        63     9      180.000000       12.720705         2
         7         8        37        63     9        0.000000       -0.456614         3
         7         8        37        63     9      180.000000        0.145586         4
         8         7         6        48     9        0.000000        0.116896         1
         8         7         6        48     9      180.000000       14.395872         2
         8         7         6        48     9        0.000000       -0.536867         3
         8         7         6        48     9      180.000000        0.068196         4
         8         9        10        11     9        0.000000       -0.336806         1
         8         9        10        11     9      180.000000        6.875905         2
         8         9        10        11     9        0.000000       -0.018367         3
         8         9        10        11     9      180.000000       -0.533122         4
         8         9        10        18     9        0.000000        2.351289         1
         8         9        10        18     9      180.000000        5.783877         2
         8         9        10        18     9        0.000000        0.334203         3
         8         9        10        18     9      180.000000       -0.320027         4
         8        37        38        64     9        0.000000        0.116895         1
         8        37        38        64     9      180.000000       14.395872         2
         8        37        38        64     9        0.000000       -0.536867         3
         8        37        38        64     9      180.000000        0.068196         4
         9         8         7        49     9        0.000000       -0.156956         1
         9         8         7        49     9      180.000000       14.233017         2
         9         8         7        49     9        0.000000       -0.041955         3
         9         8         7        49     9      180.000000        0.119427         4
         9         8        37        38     9        0.000000        0.153249         1
         9         8        37        38     9      180.000000       17.090258         2
         9         8        37        38     9        0.000000        0.053905         3
         9         8        37        38     9      180.000000       -0.254708         4
         9         8        37        63     9        0.000000       -0.156956         1
         9         8        37        63     9      180.000000       14.233018         2
         9         8        37        63     9        0.000000       -0.041955         3
         9         8        37        63     9      180.000000        0.119427         4
         9        10        11        12     9        0.000000        1.885078         1
         9        10        11        12     9      180.000000       24.444532         2
         9        10        11        12     9        0.000000        0.721646         3
         9        10        11        12     9      180.000000       -0.999462         4
         9        10        18        14     9        0.000000        0.517582         1
         9        10        18        14     9      180.000000       12.000454         2
         9        10        18        14     9        0.000000        0.165513         3
         9        10        18        14     9      180.000000       -0.596021         4
         9        10        18        17     9        0.000000       -0.373541         1
         9        10        18        17     9      180.000000       10.813194         2
         9        10        18        17     9        0.000000       -0.126761         3
         9        10        18        17     9      180.000000       -0.468506         4
        10         9         8        37     9        0.000000        0.162047         1
        10         9         8        37     9      180.000000        3.310304         2
        10         9         8        37     9        0.000000       -0.172113         3
        10         9         8        37     9      180.000000        0.423830         4
        10        11        12        13     9        0.000000        0.951946         1
        10        11        12        13     9      180.000000       13.730807         2
        10        11        12        13     9        0.000000       -0.261272         3
        10        11        12        13     9      180.000000       -0.029046         4
        10        11        12        19     9        0.000000        1.481008         1
        10        11        12        19     9      180.000000       18.252659         2
        10        11        12        19     9        0.000000        0.657812         3
        10        11        12        19     9      180.000000       -1.039854         4
        10        18        14        13     9        0.000000        0.337956         1
        10        18        14        13     9      180.000000        5.783879         2
        10        18        14        13     9        0.000000       -0.143386         3
        10        18        14        13     9      180.000000        0.124531         4
        10        18        14        15     9        0.000000       -0.529939         1
        10        18        14        15     9      180.000000        7.254573         2
        10        18        14        15     9        0.000000       -2.285934         3
        10        18        14        15     9      180.000000        0.374903         4
        10        18        17        16     9        0.000000        1.546001         1
        10        18        17        16     9      180.000000       16.470755         2
        10        18        17        16     9        0.000000       -0.373495         3
        10        18        17        16     9      180.000000        0.010417         4
        11        10         9        50     9        0.000000       11.430666         1
        11        10         9        50     9      180.000000        6.774550         2
        11        10         9        50     9        0.000000       -0.396037         3
        11        10         9        50     9      180.000000        0.122350         4
        11        10        18        14     9        0.000000       -0.061703         1
        11        10        18        14     9      180.000000        9.290064         2
        11        10        18        14     9        0.000000       -0.534588         3
        11        10        18        14     9      180.000000       -0.340850         4
        11        10        18        17     9        0.000000       -1.860286         1
        11        10        18        17     9      180.000000        6.551764         2
        11        10        18        17     9        0.000000       -0.109909         3
        11        10        18        17     9      180.000000       -0.440551         4
        11        12        13        14     9        0.000000       -0.641144         1
        11        12        13        14     9      180.000000       29.860963         2
        11        12        13        14     9        0.000000       -1.087389         3
        11        12        13        14     9      180.000000       -1.729164         4
        11        12        13        51     9        0.000000        0.306079         1
        11        12        13        51     9      180.000000       17.715560         2
        11        12        13        51     9        0.000000        0.218447         3
        11        12        13        51     9      180.000000       -0.554084         4
        11        12        19        20     9        0.000000       -0.139843         1
        11        12        19        20     9      180.000000        4.074739         2
        11        12        19        20     9        0.000000        0.013887         3
        11        12        19        20     9      180.000000        0.046500         4
        11        12        19        36     9        0.000000       -0.408250         1
        11        12        19        36     9      180.000000        4.131904         2
        11        12        19        36     9        0.000000       -0.059664         3
        11        12        19        36     9      180.000000        0.050454         4
        12        11        10        18     9        0.000000        0.915049         1
        12        11        10        18     9      180.000000       22.127428         2
        12        11        10        18     9        0.000000        0.577544         3
        12        11        10        18     9      180.000000       -0.576502         4
        12        13        14        15     9        0.000000        0.472322         1
        12        13        14        15     9      180.000000        4.954271         2
        12        13        14        15     9        0.000000        0.247714         3
        12        13        14        15     9      180.000000        0.109273         4
        12        13        14        18     9        0.000000       -0.643776         1
        12        13        14        18     9      180.000000        9.283149         2
        12        13        14        18     9        0.000000       -1.033820         3
        12        13        14        18     9      180.000000       -0.052624         4
        12        19        20        21     9        0.000000        0.206089         1
        12        19        20        21     9      180.000000       15.800793         2
        12        19        20        21     9        0.000000       -0.121499         3
        12        19        20        21     9      180.000000       -0.267215         4
        12        19        20        54     9        0.000000       -0.118532         1
        12        19        20        54     9      180.000000       12.350041         2
        12        19        20        54     9        0.000000       -0.220856         3
        12        19        20        54     9      180.000000        0.177279         4
        12        19        36        23     9        0.000000        0.319485         1
        12        19        36        23     9      180.000000       15.799980         2
        12        19        36        23     9        0.000000       -0.130403         3
        12        19        36        23     9      180.000000       -0.388626         4
        12        19        36        62     9        0.000000       -0.104648         1
        12        19        36        62     9      180.000000       12.541019         2
        12        19        36        62     9        0.000000       -0.187175         3
        12        19        36        62     9      180.000000        0.155353         4
        13        12        19        20     9        0.000000       -0.352131         1
        13        12        19        20     9      180.000000        3.292753         2
        13        12        19        20     9        0.000000        0.201578         3
        13        12        19        20     9      180.000000       -0.190414         4
        13        12        19        36     9        0.000000       -0.201173         1
        13        12        19        36     9      180.000000        3.399960         2
        13        12        19        36     9        0.000000        0.259992         3
        13        12        19        36     9      180.000000       -0.216106         4
        13        14        15        16     9        0.000000        0.965502         1
        13        14        15        16     9      180.000000        5.223294         2
        13        14        15        16     9        0.000000        0.739375         3
        13        14        15        16     9      180.000000       -0.040295         4
        13        14        15        52     9        0.000000        0.156545         1
        13        14        15        52     9      180.000000        3.679926         2
        13        14        15        52     9        0.000000        0.374386         3
        13        14        15        52     9      180.000000        0.064056         4
        13        14        18        17     9        0.000000        0.555178         1
        13        14        18        17     9      180.000000        7.752461         2
        13        14        18        17     9        0.000000       -0.729377         3
        13        14        18        17     9      180.000000        0.134979         4
        14        13        12        19     9        0.000000        0.148638         1
        14        13        12        19     9      180.000000       26.633342         2
        14        13        12        19     9        0.000000        0.384082         3
        14        13        12        19     9      180.000000       -1.824086         4
        14        15        16        17     9        0.000000       -0.258793         1
        14        15        16        17     9      180.000000       36.323027         2
        14        15        16        17     9        0.000000       -7.442937         3
        14        15        16        17     9      180.000000       -0.839992         4
        14        15        16        53     9        0.000000        0.279818         1
        14        15        16        53     9      180.000000       18.770131         2
        14        15        16        53     9        0.000000       -0.507968         3
        14        15        16        53     9      180.000000       -0.564047         4
        14        18        17        16     9        0.000000       -0.172777         1
        14        18        17        16     9      180.000000       37.627789         2
        14        18        17        16     9        0.000000       -7.120096         3
        14        18        17        16     9      180.000000        0.116816         4
        15        14        13        51     9        0.000000       -0.211391         1
        15        14        13        51     9      180.000000        3.543757         2
        15        14        13        51     9        0.000000        0.304369         3
        15        14        13        51     9      180.000000        0.067334         4
        15        14        18        17     9        0.000000        0.131710         1
        15        14        18        17     9      180.000000       15.566772         2
        15        14        18        17     9        0.000000       -7.866552         3
        15        14        18        17     9      180.000000        0.257373         4
        15        16        17        18     9        0.000000       -0.255849         1
        15        16        17        18     9      180.000000       31.025341         2
        15        16        17        18     9        0.000000       -4.653101         3
        15        16        17        18     9      180.000000        0.341646         4
        16        15        14        18     9        0.000000        0.086044         1
        16        15        14        18     9      180.000000       25.283693         2
        16        15        14        18     9        0.000000       -9.272059         3
        16        15        14        18     9      180.000000        0.296509         4
        17        16        15        52     9        0.000000        0.292780         1
        17        16        15        52     9      180.000000       15.681650         2
        17        16        15        52     9        0.000000       -0.422047         3
        17        16        15        52     9      180.000000       -0.479005         4
        18        10         9        50     9        0.000000        2.941475         1
        18        10         9        50     9      180.000000        7.228743         2
        18        10         9        50     9        0.000000       -0.167485         3
        18        10         9        50     9      180.000000        0.477374         4
        18        14        13        51     9        0.000000        0.560809         1
        18        14        13        51     9      180.000000        4.562282         2
        18        14        13        51     9        0.000000        0.396933         3
        18        14        13        51     9      180.000000        0.102239         4
        18        14        15        52     9        0.000000        1.026521         1
        18        14        15        52     9      180.000000        6.099844         2
        18        14        15        52     9        0.000000        0.349087         3
        18        14        15        52     9      180.000000        0.232410         4
        18        17        16        53     9        0.000000        2.009586         1
        18        17        16        53     9      180.000000       22.682232         2
        18        17        16        53     9        0.000000        0.566971         3
        18        17        16        53     9      180.000000       -0.265561         4
        19        12        13        51     9        0.000000       -0.045055         1
        19        12        13        51     9      180.000000       15.015172         2
        19        12        13        51     9        0.000000        0.298760         3
        19        12        13        51     9      180.000000       -0.040821         4
        19        20        21        22     9        0.000000       -0.001266         1
        19        20        21        22     9      180.000000       19.008342         2
        19        20        21        22     9        0.000000       -1.598357         3
        19        20        21        22     9      180.000000       -0.439359         4
        19        20        21        55     9        0.000000       -0.007451         1
        19        20        21        55     9      180.000000       14.942970         2
        19        20        21        55     9        0.000000       -0.535508         3
        19        20        21        55     9      180.000000        0.067906         4
        19        36        23        22     9        0.000000       -0.080988         1
        19        36        23        22     9      180.000000       16.566836         2
        19        36        23        22     9        0.000000       -1.153850         3
        19        36        23        22     9      180.000000       -0.289104         4
        19        36        23        24     9        0.000000        0.214518         1
        19        36        23        24     9      180.000000       16.757525         2
        19        36        23        24     9        0.000000        0.059002         3
        19        36        23        24     9      180.000000       -0.304956         4
        20        19        36        23     9        0.000000       -0.136697         1
        20        19        36        23     9      180.000000       17.783672         2
        20        19        36        23     9        0.000000       -1.513235         3
        20        19        36        23     9      180.000000       -0.380172         4
        20        19        36        62     9        0.000000       -0.122577         1
        20        19        36        62     9      180.000000       14.022275         2
        20        19        36        62     9        0.000000       -0.509835         3
        20        19        36        62     9      180.000000        0.123711         4
        20        21        22        23     9        0.000000        0.055844         1
        20        21        22        23     9      180.000000       18.736593         2
        20        21        22        23     9        0.000000       -1.643171         3
        20        21        22        23     9      180.000000       -0.530109         4
        20        21        22        56     9        0.000000        0.019871         1
        20        21        22        56     9      180.000000       14.653912         2
        20        21        22        56     9        0.000000       -0.566056         3
        20        21        22        56     9      180.000000        0.116919         4
        21        20        19        36     9        0.000000       -0.110492         1
        21        20        19        36     9      180.000000       18.034161         2
        21        20        19        36     9        0.000000       -1.427365         3
        21        20        19        36     9      180.000000       -0.314197         4
        21        22        23        24     9        0.000000        0.318294         1
        21        22        23        24     9      180.000000       16.908982         2
        21        22        23        24     9        0.000000        0.103969         3
        21        22        23        24     9      180.000000       -0.171782         4
        21        22        23        36     9        0.000000        0.067818         1
        21        22        23        36     9      180.000000       16.323650         2
        21        22        23        36     9        0.000000       -0.975032         3
        21        22        23        36     9      180.000000       -0.185599         4
        22        21        20        54     9        0.000000        0.092646         1
        22        21        20        54     9      180.000000       14.631968         2
        22        21        20        54     9        0.000000       -0.744108         3
        22        21        20        54     9      180.000000        0.136719         4
        22        23        24        25     9        0.000000        0.063961         1
        22        23        24        25     9      180.000000        2.723474         2
        22        23        24        25     9        0.000000        0.033189         3
        22        23        24        25     9      180.000000        0.077164         4
        22        23        24        57     9        0.000000       -0.137975         1
        22        23        24        57     9      180.000000        2.236218         2
        22        23        24        57     9        0.000000        0.002263         3
        22        23        24        57     9      180.000000        0.141023         4
        22        23        36        62     9        0.000000        0.178153         1
        22        23        36        62     9      180.000000       12.709873         2
        22        23        36        62     9        0.000000       -0.524641         3
        22        23        36        62     9      180.000000        0.149453         4
        23        22        21        55     9        0.000000        0.020736         1
        23        22        21        55     9      180.000000       14.883773         2
        23        22        21        55     9        0.000000       -0.520720         3
        23        22        21        55     9      180.000000       -0.029948         4
        23        24        25        26     9        0.000000       -3.638854         1
        23        24        25        26     9      180.000000        7.550361         2
        23        24        25        26     9        0.000000       -0.056858         3
        23        24        25        26     9      180.000000       -0.454696         4
        23        24        25        27     9        0.000000        2.879171         1
        23        24        25        27     9      180.000000        7.960279         2
        23        24        25        27     9        0.000000        1.231677         3
        23        24        25        27     9      180.000000       -0.618371         4
        24        23        22        56     9        0.000000       -0.115073         1
        24        23        22        56     9      180.000000       13.608180         2
        24        23        22        56     9        0.000000       -0.178569         3
        24        23        22        56     9      180.000000        0.245696         4
        24        23        36        62     9        0.000000       -0.167418         1
        24        23        36        62     9      180.000000       13.837420         2
        24        23        36        62     9        0.000000       -0.190687         3
        24        23        36        62     9      180.000000        0.223666         4
        24        25        27        28     9        0.000000        0.201498         1
        24        25        27        28     9      180.000000        2.720110         2
        24        25        27        28     9        0.000000        0.014263         3
        24        25        27        28     9      180.000000       -0.213963         4
        24        25        27        32     9        0.000000        0.201498         1
        24        25        27        32     9      180.000000        2.720110         2
        24        25        27        32     9        0.000000        0.014263         3
        24        25        27        32     9      180.000000       -0.213963         4
        25        24        23        36     9        0.000000       -0.092431         1
        25        24        23        36     9      180.000000        2.819215         2
        25        24        23        36     9        0.000000       -0.003916         3
        25        24        23        36     9      180.000000        0.048002         4
        25        27        28        29     9        0.000000        0.159333         1
        25        27        28        29     9      180.000000       13.101250         2
        25        27        28        29     9        0.000000       -0.182174         3
        25        27        28        29     9      180.000000       -0.201647         4
        25        27        28        58     9        0.000000        0.109692         1
        25        27        28        58     9      180.000000       12.022150         2
        25        27        28        58     9        0.000000       -0.349448         3
        25        27        28        58     9      180.000000        0.055097         4
        25        27        32        31     9        0.000000        0.159333         1
        25        27        32        31     9      180.000000       13.101250         2
        25        27        32        31     9        0.000000       -0.182174         3
        25        27        32        31     9      180.000000       -0.201647         4
        25        27        32        61     9        0.000000        0.109692         1
        25        27        32        61     9      180.000000       12.022150         2
        25        27        32        61     9        0.000000       -0.349448         3
        25        27        32        61     9      180.000000        0.055097         4
        26        25        24        57     9        0.000000       -1.010889         1
        26        25        24        57     9      180.000000        8.959892         2
        26        25        24        57     9        0.000000        0.601769         3
        26        25        24        57     9      180.000000        0.310216         4
        26        25        27        28     9        0.000000       -0.142219         1
        26        25        27        28     9      180.000000        3.605956         2
        26        25        27        28     9        0.000000        0.034926         3
        26        25        27        28     9      180.000000        0.061794         4
        26        25        27        32     9        0.000000       -0.142219         1
        26        25        27        32     9      180.000000        3.605956         2
        26        25        27        32     9        0.000000        0.034926         3
        26        25        27        32     9      180.000000        0.061794         4
        27        25        24        57     9        0.000000        1.465559         1
        27        25        24        57     9      180.000000        8.592207         2
        27        25        24        57     9        0.000000        0.151518         3
        27        25        24        57     9      180.000000        0.598247         4
        27        28        29        30     9        0.000000       -0.038153         1
        27        28        29        30     9      180.000000       18.698555         2
        27        28        29        30     9        0.000000       -1.575140         3
        27        28        29        30     9      180.000000       -0.482861         4
        27        28        29        59     9        0.000000        0.067627         1
        27        28        29        59     9      180.000000       14.805644         2
        27        28        29        59     9        0.000000       -0.598122         3
        27        28        29        59     9      180.000000        0.109432         4
        27        32        31        30     9        0.000000       -0.038153         1
        27        32        31        30     9      180.000000       18.698555         2
        27        32        31        30     9        0.000000       -1.575140         3
        27        32        31        30     9      180.000000       -0.482861         4
        27        32        31        60     9        0.000000        0.067627         1
        27        32        31        60     9      180.000000       14.805644         2
        27        32        31        60     9        0.000000       -0.598122         3
        27        32        31        60     9      180.000000        0.109432         4
        28        27        32        31     9        0.000000        0.065051         1
        28        27        32        31     9      180.000000       18.038333         2
        28        27        32        31     9        0.000000       -1.335519         3
        28        27        32        31     9      180.000000       -0.432883         4
        28        27        32        61     9        0.000000        0.077259         1
        28        27        32        61     9      180.000000       13.590150         2
        28        27        32        61     9        0.000000       -0.597003         3
        28        27        32        61     9      180.000000        0.109024         4
        28        29        30        31     9        0.000000        0.061215         1
        28        29        30        31     9      180.000000       17.295642         2
        28        29        30        31     9        0.000000       -0.909454         3
        28        29        30        31     9      180.000000       -0.395334         4
        28        29        30        33     9        0.000000       -0.224114         1
        28        29        30        33     9      180.000000       12.407035         2
        28        29        30        33     9        0.000000       -0.028615         3
        28        29        30        33     9      180.000000       -0.377012         4
        29        28        27        32     9        0.000000        0.065051         1
        29        28        27        32     9      180.000000       18.038333         2
        29        28        27        32     9        0.000000       -1.335519         3
        29        28        27        32     9      180.000000       -0.432883         4
        29        30        31        32     9        0.000000        0.061215         1
        29        30        31        32     9      180.000000       17.295642         2
        29        30        31        32     9        0.000000       -0.909454         3
        29        30        31        32     9      180.000000       -0.395334         4
        29        30        31        60     9        0.000000        0.134318         1
        29        30        31        60     9      180.000000       14.104470         2
        29        30        31        60     9        0.000000       -0.404457         3
        29        30        31        60     9      180.000000        0.084817         4
        29        30        33        34     9        0.000000       -0.033042         1
        29        30        33        34     9      180.000000        1.784275         2
        29        30        33        34     9        0.000000        0.010489         3
        29        30        33        34     9      180.000000        0.204301         4
        29        30        33        35     9        0.000000       -0.033042         1
        29        30        33        35     9      180.000000        1.784275         2
        29        30        33        35     9        0.000000        0.010489         3
        29        30        33        35     9      180.000000        0.204301         4
        30        29        28        58     9        0.000000       -0.007194         1
        30        29        28        58     9      180.000000       14.125603         2
        30        29        28        58     9        0.000000       -0.617914         3
        30        29        28        58     9      180.000000        0.242749         4
        30        31        32        61     9        0.000000       -0.007194         1
        30        31        32        61     9      180.000000       14.125603         2
        30        31        32        61     9        0.000000       -0.617914         3
        30        31        32        61     9      180.000000        0.242749         4
        31        30        29        59     9        0.000000        0.134318         1
        31        30        29        59     9      180.000000       14.104470         2
        31        30        29        59     9        0.000000       -0.404457         3
        31        30        29        59     9      180.000000        0.084817         4
        31        30        33        34     9        0.000000       -0.033042         1
        31        30        33        34     9      180.000000        1.784275         2
        31        30        33        34     9        0.000000        0.010489         3
        31        30        33        34     9      180.000000        0.204301         4
        31        30        33        35     9        0.000000       -0.033042         1
        31        30        33        35     9      180.000000        1.784275         2
        31        30        33        35     9        0.000000        0.010489         3
        31        30        33        35     9      180.000000        0.204301         4
        32        27        28        58     9        0.000000        0.077259         1
        32        27        28        58     9      180.000000       13.590150         2
        32        27        28        58     9        0.000000       -0.597003         3
        32        27        28        58     9      180.000000        0.109024         4
        32        31        30        33     9        0.000000       -0.224114         1
        32        31        30        33     9      180.000000       12.407035         2
        32        31        30        33     9        0.000000       -0.028615         3
        32        31        30        33     9      180.000000       -0.377012         4
        33        30        29        59     9        0.000000       -0.075429         1
        33        30        29        59     9      180.000000       12.160710         2
        33        30        29        59     9        0.000000       -0.167302         3
        33        30        29        59     9      180.000000       -0.084310         4
        33        30        31        60     9        0.000000       -0.075429         1
        33        30        31        60     9      180.000000       12.160710         2
        33        30        31        60     9        0.000000       -0.167302         3
        33        30        31        60     9      180.000000       -0.084310         4
        36        19        20        54     9        0.000000       -0.107956         1
        36        19        20        54     9      180.000000       13.840262         2
        36        19        20        54     9        0.000000       -0.641483         3
        36        19        20        54     9      180.000000        0.096024         4
        36        23        22        56     9        0.000000        0.164541         1
        36        23        22        56     9      180.000000       12.935265         2
        36        23        22        56     9        0.000000       -0.449950         3
        36        23        22        56     9      180.000000        0.084585         4
        36        23        24        57     9        0.000000        0.166579         1
        36        23        24        57     9      180.000000        2.268324         2
        36        23        24        57     9        0.000000        0.041768         3
        36        23        24        57     9      180.000000        0.105623         4
        37         8         7        49     9        0.000000        0.053434         1
        37         8         7        49     9      180.000000       12.720703         2
        37         8         7        49     9        0.000000       -0.456614         3
        37         8         7        49     9      180.000000        0.145586         4
        37         8         9        50     9        0.000000        0.166614         1
        37         8         9        50     9      180.000000        3.619739         2
        37         8         9        50     9        0.000000        0.157425         3
        37         8         9        50     9      180.000000        0.868037         4
        38         5         6        48     9        0.000000        0.009801         1
        38         5         6        48     9      180.000000       14.501681         2
        38         5         6        48     9        0.000000       -0.662999         3
        38         5         6        48     9      180.000000        0.060080         4
        48         6         7        49     9        0.000000       -0.204405         1
        48         6         7        49     9      180.000000       11.944355         2
        48         6         7        49     9        0.000000       -0.830550         3
        48         6         7        49     9      180.000000        0.339047         4
        52        15        16        53     9        0.000000       -0.357707         1
        52        15        16        53     9      180.000000        9.061504         2
        52        15        16        53     9        0.000000       -0.277917         3
        52        15        16        53     9      180.000000        0.193706         4
        54        20        21        55     9        0.000000       -0.233618         1
        54        20        21        55     9      180.000000       11.781453         2
        54        20        21        55     9        0.000000       -0.685074         3
        54        20        21        55     9      180.000000        0.359819         4
        55        21        22        56     9        0.000000       -0.093197         1
        55        21        22        56     9      180.000000       11.961988         2
        55        21        22        56     9        0.000000       -0.594945         3
        55        21        22        56     9      180.000000        0.257065         4
        58        28        29        59     9        0.000000       -0.236265         1
        58        28        29        59     9      180.000000       12.353101         2
        58        28        29        59     9        0.000000       -0.721543         3
        58        28        29        59     9      180.000000        0.454015         4
        60        31        32        61     9        0.000000       -0.236265         1
        60        31        32        61     9      180.000000       12.353101         2
        60        31        32        61     9        0.000000       -0.721543         3
        60        31        32        61     9      180.000000        0.454015         4
        63        37        38        64     9        0.000000       -0.204404         1
        63        37        38        64     9      180.000000       11.944355         2
        63        37        38        64     9        0.000000       -0.830550         3
        63        37        38        64     9      180.000000        0.339047         4

[ dihedrals ] ; impropers
;       ai        aj        ak        al funct           phase               k        pn
        25        24        26        27     4      180.000000       27.268031         2
        25        26        27        24     4      180.000000       27.268031         2
        25        27        24        26     4      180.000000       27.268031         2
        29        28        30        59     4      180.000000        0.713478         2
        29        30        59        28     4      180.000000        0.713478         2
        29        59        28        30     4      180.000000        0.713478         2
        30        29        31        33     4      180.000000        1.490003         2
        30        31        33        29     4      180.000000        1.490003         2
        30        33        29        31     4      180.000000        1.490003         2
        31        30        32        60     4      180.000000        0.713478         2
        31        32        60        30     4      180.000000        0.713478         2
        31        60        30        32     4      180.000000        0.713478         2
        33        30        34        35     4      180.000000       27.893333         2
        33        34        35        30     4      180.000000       27.893333         2
        33        35        30        34     4      180.000000       27.893333         2

[ pairs ]
;       ai        aj funct
         1         6     1
         1        38     1
         1        42     1
         1        43     1
         1        44     1
         1        45     1
         1        46     1
         1        47     1
         2         7     1
         2        37     1
         2        48     1
         2        64     1
         3         6     1
         3        38     1
         3        39     1
         3        40     1
         3        41     1
         3        45     1
         3        46     1
         3        47     1
         4         6     1
         4        38     1
         4        39     1
         4        40     1
         4        41     1
         4        42     1
         4        43     1
         4        44     1
         5         8     1
         5        39     1
         5        40     1
         5        41     1
         5        42     1
         5        43     1
         5        44     1
         5        45     1
         5        46     1
         5        47     1
         5        49     1
         5        63     1
         6         9     1
         6        37     1
         6        64     1
         7        10     1
         7        38     1
         7        50     1
         7        63     1
         8        11     1
         8        18     1
         8        48     1
         8        64     1
         9        12     1
         9        14     1
         9        17     1
         9        38     1
         9        49     1
         9        63     1
        10        13     1
        10        15     1
        10        16     1
        10        19     1
        10        37     1
        11        14     1
        11        17     1
        11        20     1
        11        36     1
        11        50     1
        11        51     1
        12        15     1
        12        18     1
        12        21     1
        12        23     1
        12        54     1
        12        62     1
        13        16     1
        13        17     1
        13        20     1
        13        36     1
        13        52     1
        14        19     1
        14        53     1
        15        51     1
        17        52     1
        18        50     1
        18        51     1
        18        52     1
        18        53     1
        19        22     1
        19        24     1
        19        51     1
        19        55     1
        20        23     1
        20        56     1
        20        62     1
        21        24     1
        21        36     1
        22        25     1
        22        54     1
        22        57     1
        22        62     1
        23        26     1
        23        27     1
        23        55     1
        24        28     1
        24        32     1
        24        56     1
        24        62     1
        25        29     1
        25        31     1
        25        36     1
        25        58     1
        25        61     1
        26        28     1
        26        32     1
        26        57     1
        27        30     1
        27        57     1
        27        59     1
        27        60     1
        28        31     1
        28        33     1
        28        61     1
        29        32     1
        29        34     1
        29        35     1
        29        60     1
        30        58     1
        30        61     1
        31        34     1
        31        35     1
        31        59     1
        32        33     1
        32        58     1
        33        59     1
        33        60     1
        36        54     1
        36        56     1
        36        57     1
        37        49     1
        37        50     1
        38        48     1
        48        49     1
        52        53     1
        54        55     1
        55        56     1
        58        59     1
        60        61     1
        63        64     1
