Generated by PDBParser
57
    1SOL     OW    1   2.224   4.844   1.185
    1SOL    HW1    2   2.209   4.821   1.281
    1SOL    HW2    3   2.289   4.920   1.179
    2SOL     OW    4   2.621   3.777   0.061
    2SOL    HW1    5   2.700   3.784   0.122
    2SOL    HW2    6   2.550   3.720   0.104
    3SOL     OW    7   3.884   3.893   1.829
    3SOL    HW1    8   3.899   3.970   1.766
    3SOL    HW2    9   3.817   3.831   1.789
    4SOL     OW   10   1.544   4.091   0.302
    4SOL    HW1   11   1.562   4.008   0.248
    4SOL    HW2   12   1.481   4.068   0.376
    5SOL     OW   13   2.216   4.687   0.014
    5SOL    HW1   14   2.251   4.647   0.098
    5SOL    HW2   15   2.146   4.626  -0.025
    6SOL     OW   16   2.215   5.117   0.930
    6SOL    HW1   17   2.296   5.073   0.970
    6SOL    HW2   18   2.185   5.192   0.990
    7SOL     OW   19   2.228   4.759   0.838
    7SOL    HW1   20   2.297   4.827   0.864
    7SOL    HW2   21   2.232   4.683   0.902
    8SOL     OW   22   1.634   5.145   0.999
    8SOL    HW1   23   1.573   5.183   1.068
    8SOL    HW2   24   1.582   5.085   0.939
    9SOL     OW   25   1.222   3.929   0.802
    9SOL    HW1   26   1.248   3.834   0.786
    9SOL    HW2   27   1.132   3.933   0.846
   10SOL     OW   28   3.686   3.298   2.325
   10SOL    HW1   29   3.591   3.329   2.313
   10SOL    HW2   30   3.700   3.215   2.271
   11SOL     OW   31   2.312   4.471   0.964
   11SOL    HW1   32   2.411   4.485   0.959
   11SOL    HW2   33   2.294   4.373   0.970
   12SOL     OW   34   1.961   5.078   0.698
   12SOL    HW1   35   1.949   5.034   0.609
   12SOL    HW2   36   2.041   5.038   0.744
   13SOL     OW   37   2.153   4.715   1.452
   13SOL    HW1   38   2.160   4.615   1.456
   13SOL    HW2   39   2.227   4.755   1.507
   14SOL     OW   40   2.870   3.823   0.226
   14SOL    HW1   41   2.895   3.740   0.276
   14SOL    HW2   42   2.942   3.891   0.237
   15SOL     OW   43   4.324   3.769   1.879
   15SOL    HW1   44   4.387   3.757   1.802
   15SOL    HW2   45   4.343   3.699   1.948
   16SOL     OW   46   2.502   3.977  -0.113
   16SOL    HW1   47   2.540   3.903  -0.056
   16SOL    HW2   48   2.573   4.043  -0.134
   17SOL     OW   49   1.940   4.169   0.149
   17SOL    HW1   50   1.914   4.073   0.145
   17SOL    HW2   51   1.995   4.185   0.231
   18SOL     OW   52   1.630   4.423   0.993
   18SOL    HW1   53   1.702   4.473   1.041
   18SOL    HW2   54   1.601   4.345   1.049
   19SOL     OW   55   1.412   4.138   0.701
   19SOL    HW1   56   1.350   4.067   0.734
   19SOL    HW2   57   1.380   4.228   0.732
    6.1916    6.1916    6.1916
