; ITP file created by ByteFF-joint-25, 2025-07-14 11:27:51.045986

[ atomtypes ]
;name           bonded.type        at.num        mass        charge   ptype           sigma         epsilon
 h0bf                                   1      0.0000       0.00000       A     2.62559e-01     6.70250e-02    ;  uncertainty sigma = 0.000010, epsilon = 0.000440
 c1bf                                   6      0.0000       0.00000       A     3.31519e-01     4.13367e-01    ;  uncertainty sigma = 0.000003, epsilon = 0.000605
 c2bf                                   6      0.0000       0.00000       A     3.31517e-01     4.13215e-01    ;  uncertainty sigma = 0.000005, epsilon = 0.000530
 c3bf                                   6      0.0000       0.00000       A     3.31522e-01     4.13478e-01    ;  uncertainty sigma = 0.000010, epsilon = 0.000608
 c4bf                                   6      0.0000       0.00000       A     3.31541e-01     4.13238e-01    ;  uncertainty sigma = 0.000006, epsilon = 0.000276
 c5bf                                   6      0.0000       0.00000       A     3.31514e-01     4.13299e-01    ;  uncertainty sigma = 0.000004, epsilon = 0.000689
 c6bf                                   6      0.0000       0.00000       A     3.31520e-01     4.13375e-01    ;  uncertainty sigma = 0.000002, epsilon = 0.000634
 c7bf                                   6      0.0000       0.00000       A     3.31518e-01     4.13340e-01    ;  uncertainty sigma = 0.000003, epsilon = 0.000580
 c8bf                                   6      0.0000       0.00000       A     3.31520e-01     4.13375e-01    ;  uncertainty sigma = 0.000002, epsilon = 0.000634
 c9bf                                   6      0.0000       0.00000       A     3.31514e-01     4.13299e-01    ;  uncertainty sigma = 0.000004, epsilon = 0.000689
 c10bf                                  6      0.0000       0.00000       A     3.31517e-01     4.13301e-01    ;  uncertainty sigma = 0.000003, epsilon = 0.000559
 c11bf                                  6      0.0000       0.00000       A     3.31517e-01     4.13137e-01    ;  uncertainty sigma = 0.000006, epsilon = 0.000608
 c12bf                                  6      0.0000       0.00000       A     3.31514e-01     4.13295e-01    ;  uncertainty sigma = 0.000007, epsilon = 0.001029
 c13bf                                  6      0.0000       0.00000       A     3.39818e-01     4.50546e-01    ;  uncertainty sigma = 0.000009, epsilon = 0.000796
 c14bf                                  6      0.0000       0.00000       A     3.39775e-01     4.50815e-01    ;  uncertainty sigma = 0.000015, epsilon = 0.000794
 c15bf                                  6      0.0000       0.00000       A     3.31462e-01     4.13176e-01    ;  uncertainty sigma = 0.000047, epsilon = 0.001833
 n16bf                                  7      0.0000       0.00000       A     3.38388e-01     3.93364e-01    ;  uncertainty sigma = 0.000042, epsilon = 0.002395
 o17bf                                  8      0.0000       0.00000       A     3.24285e-01     3.88037e-01    ;  uncertainty sigma = 0.000023, epsilon = 0.001869
 c18bf                                  6      0.0000       0.00000       A     3.31558e-01     4.12915e-01    ;  uncertainty sigma = 0.000022, epsilon = 0.001008
 c19bf                                  6      0.0000       0.00000       A     3.39752e-01     4.50840e-01    ;  uncertainty sigma = 0.000012, epsilon = 0.000935
 c20bf                                  6      0.0000       0.00000       A     3.31558e-01     4.13094e-01    ;  uncertainty sigma = 0.000016, epsilon = 0.000723
 n21bf                                  7      0.0000       0.00000       A     3.38426e-01     3.93147e-01    ;  uncertainty sigma = 0.000037, epsilon = 0.001714
 c22bf                                  6      0.0000       0.00000       A     3.31531e-01     4.13128e-01    ;  uncertainty sigma = 0.000018, epsilon = 0.001137
 n23bf                                  7      0.0000       0.00000       A     3.36868e-01     4.69648e-01    ;  uncertainty sigma = 0.000038, epsilon = 0.001840
 n24bf                                  7      0.0000       0.00000       A     3.38457e-01     3.93858e-01    ;  uncertainty sigma = 0.000020, epsilon = 0.000824
 c25bf                                  6      0.0000       0.00000       A     3.31502e-01     4.13464e-01    ;  uncertainty sigma = 0.000021, epsilon = 0.000666
 h26bf                                  1      0.0000       0.00000       A     2.62566e-01     6.70292e-02    ;  uncertainty sigma = 0.000012, epsilon = 0.000344
 h27bf                                  1      0.0000       0.00000       A     2.62562e-01     6.70410e-02    ;  uncertainty sigma = 0.000012, epsilon = 0.000507
 h28bf                                  1      0.0000       0.00000       A     2.62559e-01     6.70250e-02    ;  uncertainty sigma = 0.000010, epsilon = 0.000440
 h29bf                                  1      0.0000       0.00000       A     2.62562e-01     6.70410e-02    ;  uncertainty sigma = 0.000012, epsilon = 0.000507
 h30bf                                  1      0.0000       0.00000       A     2.62559e-01     6.70250e-02    ;  uncertainty sigma = 0.000010, epsilon = 0.000440
 h31bf                                  1      0.0000       0.00000       A     2.62555e-01     6.69955e-02    ;  uncertainty sigma = 0.000015, epsilon = 0.000288
 h32bf                                  1      0.0000       0.00000       A     2.59984e-01     8.70696e-02    ;  uncertainty sigma = 0.000070, epsilon = 0.000845
 h33bf                                  1      0.0000       0.00000       A     2.59998e-01     8.66362e-02    ;  uncertainty sigma = 0.000030, epsilon = 0.000898
 h34bf                                  1      0.0000       0.00000       A     2.59998e-01     8.66362e-02    ;  uncertainty sigma = 0.000030, epsilon = 0.000898
 h35bf                                  1      0.0000       0.00000       A     5.38150e-02     1.95465e-02    ;  uncertainty sigma = 0.000051, epsilon = 0.001777
 h36bf                                  1      0.0000       0.00000       A     2.60043e-01     8.67081e-02    ;  uncertainty sigma = 0.000017, epsilon = 0.001169
 h37bf                                  1      0.0000       0.00000       A     2.60043e-01     8.67081e-02    ;  uncertainty sigma = 0.000017, epsilon = 0.001169
 h38bf                                  1      0.0000       0.00000       A     1.10707e-01     4.06772e-02    ;  uncertainty sigma = 0.000046, epsilon = 0.001139
 h39bf                                  1      0.0000       0.00000       A     1.10707e-01     4.06772e-02    ;  uncertainty sigma = 0.000046, epsilon = 0.001139
 h40bf                                  1      0.0000       0.00000       A     2.62559e-01     6.70249e-02    ;  uncertainty sigma = 0.000010, epsilon = 0.000440
 h41bf                                  1      0.0000       0.00000       A     2.62552e-01     6.70647e-02    ;  uncertainty sigma = 0.000011, epsilon = 0.000453
 h42bf                                  1      0.0000       0.00000       A     2.53573e-01     6.76296e-02    ;  uncertainty sigma = 0.000028, epsilon = 0.000791

[ moleculetype ]
;name             nrexcl
 MOL                   3

[ atoms ]
;       nr            type      resi   res      atom      cgnr      charge          mass ; qtot
         1            h0bf         1   UNL        h0         1     0.13674        1.0080 ; qtot    0.137
         2            c1bf         1   UNL        c1         2    -0.13210       12.0110 ; qtot    0.005
         3            c2bf         1   UNL        c2         3    -0.11956       12.0110 ; qtot   -0.115
         4            c3bf         1   UNL        c3         4    -0.03710       12.0110 ; qtot   -0.152
         5            c4bf         1   UNL        c4         5    -0.04693       12.0110 ; qtot   -0.199
         6            c5bf         1   UNL        c5         6    -0.11952       12.0110 ; qtot   -0.318
         7            c6bf         1   UNL        c6         7    -0.13240       12.0110 ; qtot   -0.451
         8            c7bf         1   UNL        c7         8    -0.12215       12.0110 ; qtot   -0.573
         9            c8bf         1   UNL        c8         9    -0.13240       12.0110 ; qtot   -0.705
        10            c9bf         1   UNL        c9        10    -0.11952       12.0110 ; qtot   -0.825
        11           c10bf         1   UNL       c10        11    -0.12099       12.0110 ; qtot   -0.946
        12           c11bf         1   UNL       c11        12    -0.12954       12.0110 ; qtot   -1.075
        13           c12bf         1   UNL       c12        13    -0.06713       12.0110 ; qtot   -1.143
        14           c13bf         1   UNL       c13        14    -0.00777       12.0110 ; qtot   -1.150
        15           c14bf         1   UNL       c14        15    -0.12428       12.0110 ; qtot   -1.275
        16           c15bf         1   UNL       c15        16     0.44123       12.0110 ; qtot   -0.833
        17           n16bf         1   UNL       n16        17    -0.42277       14.0070 ; qtot   -1.256
        18           o17bf         1   UNL       o17        18    -0.38446       15.9990 ; qtot   -1.641
        19           c18bf         1   UNL       c18        19    -0.45076       12.0110 ; qtot   -2.091
        20           c19bf         1   UNL       c19        20    -0.13123       12.0110 ; qtot   -2.223
        21           c20bf         1   UNL       c20        21     0.51273       12.0110 ; qtot   -1.710
        22           n21bf         1   UNL       n21        22    -0.77404       14.0070 ; qtot   -2.484
        23           c22bf         1   UNL       c22        23     0.88921       12.0110 ; qtot   -1.595
        24           n23bf         1   UNL       n23        24    -0.92787       14.0070 ; qtot   -2.523
        25           n24bf         1   UNL       n24        25    -0.75674       14.0070 ; qtot   -3.279
        26           c25bf         1   UNL       c25        26     0.51719       12.0110 ; qtot   -2.762
        27           h26bf         1   UNL       h26        27     0.13385        1.0080 ; qtot   -2.628
        28           h27bf         1   UNL       h27        28     0.13654        1.0080 ; qtot   -2.492
        29           h28bf         1   UNL       h28        29     0.13308        1.0080 ; qtot   -2.359
        30           h29bf         1   UNL       h29        30     0.13654        1.0080 ; qtot   -2.222
        31           h30bf         1   UNL       h30        31     0.13457        1.0080 ; qtot   -2.088
        32           h31bf         1   UNL       h31        32     0.13294        1.0080 ; qtot   -1.955
        33           h32bf         1   UNL       h32        33     0.06529        1.0080 ; qtot   -1.889
        34           h33bf         1   UNL       h33        34     0.07445        1.0080 ; qtot   -1.815
        35           h34bf         1   UNL       h34        35     0.07445        1.0080 ; qtot   -1.740
        36           h35bf         1   UNL       h35        36     0.42538        1.0080 ; qtot   -1.315
        37           h36bf         1   UNL       h36        37     0.07544        1.0080 ; qtot   -1.240
        38           h37bf         1   UNL       h37        38     0.07544        1.0080 ; qtot   -1.164
        39           h38bf         1   UNL       h38        39     0.42693        1.0080 ; qtot   -0.737
        40           h39bf         1   UNL       h39        40     0.42693        1.0080 ; qtot   -0.310
        41           h40bf         1   UNL       h40        41     0.13308        1.0080 ; qtot   -0.177
        42           h41bf         1   UNL       h41        42     0.13373        1.0080 ; qtot   -0.044
        43           h42bf         1   UNL       h42        43     0.04352        1.0080 ; qtot    0.000

[ bonds ]
;       ai        aj funct               r               k
         1         2     1        0.108818   333357.876123    ;  uncertainty r = 0.000017, k = 0.810528
         2         3     1        0.139360   372660.713232    ;  uncertainty r = 0.000019, k = 1.107672
         2        11     1        0.139438   380960.069482    ;  uncertainty r = 0.000028, k = 1.333090
         3         4     1        0.140372   338257.936670    ;  uncertainty r = 0.000057, k = 5.660495
         3        27     1        0.108819   334211.760449    ;  uncertainty r = 0.000015, k = 1.220858
         4         5     1        0.149170   298024.016553    ;  uncertainty r = 0.000007, k = 12.140543
         4        13     1        0.140798   332225.049951    ;  uncertainty r = 0.000081, k = 6.487336
         5         6     1        0.140281   349434.814404    ;  uncertainty r = 0.000035, k = 3.322929
         5        10     1        0.140281   349434.814404    ;  uncertainty r = 0.000035, k = 3.322929
         6         7     1        0.139517   365773.073926    ;  uncertainty r = 0.000030, k = 0.919891
         6        28     1        0.108822   334502.883496    ;  uncertainty r = 0.000019, k = 1.245227
         7         8     1        0.139635   371417.694434    ;  uncertainty r = 0.000019, k = 0.651038
         7        41     1        0.108846   333796.322754    ;  uncertainty r = 0.000013, k = 0.671742
         8         9     1        0.139635   371417.694434    ;  uncertainty r = 0.000019, k = 0.651038
         8        42     1        0.108841   334518.920801    ;  uncertainty r = 0.000012, k = 0.635598
         9        10     1        0.139517   365773.073926    ;  uncertainty r = 0.000030, k = 0.919891
         9        29     1        0.108846   333796.322754    ;  uncertainty r = 0.000013, k = 0.671742
        10        30     1        0.108822   334502.883496    ;  uncertainty r = 0.000019, k = 1.245227
        11        12     1        0.139522   373153.604980    ;  uncertainty r = 0.000033, k = 2.046128
        11        31     1        0.108823   333344.315918    ;  uncertainty r = 0.000011, k = 1.086969
        12        13     1        0.140043   341801.363818    ;  uncertainty r = 0.000057, k = 4.667046
        12        32     1        0.108805   334424.510107    ;  uncertainty r = 0.000029, k = 1.320649
        13        14     1        0.151579   218802.106348    ;  uncertainty r = 0.000078, k = 11.414886
        14        15     1        0.153866   195964.665259    ;  uncertainty r = 0.000098, k = 9.397203
        14        20     1        0.153746   198307.222607    ;  uncertainty r = 0.000082, k = 6.075272
        14        33     1        0.109504   304391.107422    ;  uncertainty r = 0.000035, k = 5.170274
        15        16     1        0.150873   224391.081494    ;  uncertainty r = 0.000167, k = 25.470352
        15        34     1        0.109600   310792.520166    ;  uncertainty r = 0.000026, k = 2.177810
        15        35     1        0.109600   310792.520166    ;  uncertainty r = 0.000026, k = 2.177810
        16        17     1        0.128594   543382.137402    ;  uncertainty r = 0.000103, k = 14.862596
        16        19     1        0.147256   275661.935986    ;  uncertainty r = 0.000107, k = 43.543197
        17        18     1        0.140074   319960.904248    ;  uncertainty r = 0.000204, k = 25.508082
        18        36     1        0.097177   448930.942188    ;  uncertainty r = 0.000095, k = 7.665798
        19        21     1        0.141501   418011.350732    ;  uncertainty r = 0.000195, k = 17.856549
        19        26     1        0.141179   421730.115674    ;  uncertainty r = 0.000122, k = 14.523872
        20        21     1        0.150645   233925.820947    ;  uncertainty r = 0.000114, k = 11.809046
        20        37     1        0.109625   310367.148535    ;  uncertainty r = 0.000026, k = 3.006573
        20        38     1        0.109625   310367.148535    ;  uncertainty r = 0.000026, k = 3.006573
        21        22     1        0.134017   427053.734717    ;  uncertainty r = 0.000115, k = 16.882425
        22        23     1        0.136316   613827.121875    ;  uncertainty r = 0.000194, k = 17.124932
        23        24     1        0.139782   696744.175195    ;  uncertainty r = 0.000198, k = 11.556484
        23        25     1        0.136832   581630.649414    ;  uncertainty r = 0.000159, k = 14.385658
        24        39     1        0.102280   439973.290332    ;  uncertainty r = 0.000017, k = 2.625454
        24        40     1        0.102280   439973.290332    ;  uncertainty r = 0.000017, k = 2.625454
        25        26     1        0.133452   423305.780859    ;  uncertainty r = 0.000089, k = 3.408555
        26        43     1        0.108652   327898.169824    ;  uncertainty r = 0.000101, k = 4.662890

[ angles ]
;       ai        aj        ak funct           theta             cth
         1         2         3     1      120.482887      286.602883    ;  uncertainty theta = 0.000633, k = 0.052116
         1         2        11     1      120.985214      288.277479    ;  uncertainty theta = 0.001086, k = 0.026282
         2         3         4     1      121.883240      511.373816    ;  uncertainty theta = 0.000892, k = 0.086388
         2         3        27     1      120.571579      292.142105    ;  uncertainty theta = 0.001286, k = 0.020970
         2        11        12     1      118.376907      513.486820    ;  uncertainty theta = 0.001516, k = 0.066831
         2        11        31     1      120.944992      288.231991    ;  uncertainty theta = 0.001203, k = 0.018819
         3         2        11     1      117.841141      511.217082    ;  uncertainty theta = 0.001903, k = 0.037504
         3         4         5     1      120.115196      421.423147    ;  uncertainty theta = 0.002901, k = 0.245232
         3         4        13     1      122.882790      438.876740    ;  uncertainty theta = 0.004766, k = 0.213863
         4         3        27     1      118.858887      271.728506    ;  uncertainty theta = 0.001728, k = 0.144434
         4         5         6     1      122.001266      402.122838    ;  uncertainty theta = 0.000860, k = 0.054990
         4         5        10     1      122.001266      402.122838    ;  uncertainty theta = 0.000860, k = 0.054990
         4        13        12     1      122.693970      459.215260    ;  uncertainty theta = 0.002915, k = 0.136102
         4        13        14     1      118.698830      374.740960    ;  uncertainty theta = 0.003633, k = 0.066369
         5         4        13     1      119.587303      369.677941    ;  uncertainty theta = 0.004213, k = 0.164086
         5         6         7     1      120.516945      522.269224    ;  uncertainty theta = 0.002335, k = 0.020944
         5         6        28     1      119.806557      279.884612    ;  uncertainty theta = 0.002209, k = 0.065302
         5        10         9     1      120.516945      522.269224    ;  uncertainty theta = 0.002335, k = 0.020944
         5        10        30     1      119.806557      279.884612    ;  uncertainty theta = 0.002209, k = 0.065302
         6         5        10     1      119.149048      419.902284    ;  uncertainty theta = 0.001570, k = 0.049136
         6         7         8     1      119.518883      515.278919    ;  uncertainty theta = 0.001368, k = 0.031988
         6         7        41     1      120.148911      285.638793    ;  uncertainty theta = 0.001339, k = 0.029696
         7         6        28     1      120.360023      293.405426    ;  uncertainty theta = 0.001278, k = 0.017730
         7         8         9     1      118.290123      528.095228    ;  uncertainty theta = 0.001610, k = 0.009475
         7         8        42     1      120.637001      288.903553    ;  uncertainty theta = 0.001584, k = 0.007453
         8         7        41     1      120.625977      288.164254    ;  uncertainty theta = 0.001231, k = 0.016572
         8         9        10     1      119.518883      515.278919    ;  uncertainty theta = 0.001368, k = 0.031988
         8         9        29     1      120.625977      288.164254    ;  uncertainty theta = 0.001231, k = 0.016572
         9         8        42     1      120.637001      288.903553    ;  uncertainty theta = 0.001584, k = 0.007453
         9        10        30     1      120.360023      293.405426    ;  uncertainty theta = 0.001278, k = 0.017730
        10         9        29     1      120.148911      285.638793    ;  uncertainty theta = 0.001339, k = 0.029696
        11        12        13     1      122.435501      512.836422    ;  uncertainty theta = 0.002093, k = 0.096010
        11        12        32     1      120.027145      296.284703    ;  uncertainty theta = 0.001958, k = 0.030861
        12        11        31     1      120.401810      284.940066    ;  uncertainty theta = 0.001274, k = 0.037180
        12        13        14     1      119.410995      421.228171    ;  uncertainty theta = 0.002705, k = 0.133054
        13        12        32     1      117.294777      264.758711    ;  uncertainty theta = 0.002669, k = 0.093448
        13        14        15     1      110.241821      545.505471    ;  uncertainty theta = 0.000852, k = 0.097837
        13        14        20     1      110.416855      564.914696    ;  uncertainty theta = 0.001850, k = 0.110618
        13        14        33     1      105.593643      396.805884    ;  uncertainty theta = 0.004731, k = 0.079567
        14        15        16     1      110.448853      523.190315    ;  uncertainty theta = 0.005871, k = 0.218035
        14        15        34     1      108.314499      386.048919    ;  uncertainty theta = 0.002045, k = 0.065395
        14        15        35     1      108.314499      386.048919    ;  uncertainty theta = 0.002045, k = 0.065395
        14        20        21     1      109.743942      536.684315    ;  uncertainty theta = 0.003255, k = 0.094113
        14        20        37     1      108.191910      387.290502    ;  uncertainty theta = 0.003369, k = 0.049945
        14        20        38     1      108.191910      387.290502    ;  uncertainty theta = 0.003369, k = 0.049945
        15        14        20     1      109.389175      610.678090    ;  uncertainty theta = 0.002375, k = 0.176021
        15        14        33     1      106.517906      405.334449    ;  uncertainty theta = 0.002981, k = 0.045641
        15        16        17     1      123.933350      298.096625    ;  uncertainty theta = 0.014715, k = 0.729639
        15        16        19     1      118.210732      384.213025    ;  uncertainty theta = 0.002794, k = 0.207033
        16        15        34     1      107.908493      388.256028    ;  uncertainty theta = 0.001171, k = 0.115940
        16        15        35     1      107.908493      388.256028    ;  uncertainty theta = 0.001171, k = 0.115940
        16        17        18     1      105.572830      752.006646    ;  uncertainty theta = 0.005765, k = 0.118698
        16        19        21     1      121.880150      439.769772    ;  uncertainty theta = 0.005328, k = 0.203352
        16        19        26     1      122.911644      419.896985    ;  uncertainty theta = 0.007837, k = 0.100439
        17        16        19     1      122.396652      350.589271    ;  uncertainty theta = 0.027168, k = 0.544497
        17        18        36     1      101.159744      454.526168    ;  uncertainty theta = 0.007213, k = 0.106575
        19        21        20     1      121.063309      385.778067    ;  uncertainty theta = 0.002016, k = 0.271854
        19        21        22     1      121.433388      650.388742    ;  uncertainty theta = 0.002119, k = 0.185720
        19        26        25     1      122.959717      738.326161    ;  uncertainty theta = 0.003066, k = 0.201689
        19        26        43     1      118.638161      254.004635    ;  uncertainty theta = 0.006235, k = 0.142246
        20        14        33     1      106.816994      403.532040    ;  uncertainty theta = 0.002108, k = 0.038354
        20        21        22     1      120.576965      468.626578    ;  uncertainty theta = 0.003700, k = 0.362573
        21        19        26     1      118.571121      444.073829    ;  uncertainty theta = 0.006096, k = 0.446492
        21        20        37     1      107.268982      390.009693    ;  uncertainty theta = 0.001769, k = 0.071456
        21        20        38     1      107.268982      390.009693    ;  uncertainty theta = 0.001769, k = 0.071456
        21        22        23     1      115.479080      436.578496    ;  uncertainty theta = 0.006725, k = 0.286431
        22        23        24     1      124.629234      810.203611    ;  uncertainty theta = 0.008213, k = 0.092084
        22        23        25     1      126.904709      741.559031    ;  uncertainty theta = 0.005602, k = 0.136133
        23        24        39     1      118.918655      455.494599    ;  uncertainty theta = 0.002825, k = 0.029219
        23        24        40     1      118.918655      455.494599    ;  uncertainty theta = 0.002825, k = 0.029219
        23        25        26     1      115.953003      413.843701    ;  uncertainty theta = 0.006845, k = 0.231271
        24        23        25     1      124.807961      807.002024    ;  uncertainty theta = 0.006940, k = 0.121158
        25        26        43     1      118.113380      321.497938    ;  uncertainty theta = 0.004891, k = 0.081700
        34        15        35     1      105.896484      312.106985    ;  uncertainty theta = 0.001650, k = 0.038816
        37        20        38     1      105.567421      310.833003    ;  uncertainty theta = 0.002248, k = 0.052234
        39        24        40     1      107.607529      265.714724    ;  uncertainty theta = 0.002791, k = 0.046310

[ dihedrals ] ; propers for gromacs 4.5 or higher, use funct 9
;       ai        aj        ak        al funct           phase               k        pn
         1         2         3         4     9        0.000000       -0.104448         1    ;  uncertainty k = 0.153058
         1         2         3         4     9      180.000000        7.367457         2    ;  uncertainty k = 0.215073
         1         2         3         4     9        0.000000        1.272659         3    ;  uncertainty k = 0.228016
         1         2         3         4     9      180.000000        1.792869         4    ;  uncertainty k = 0.123267
         1         2         3        27     9        0.000000       -0.094579         1    ;  uncertainty k = 0.157383
         1         2         3        27     9      180.000000        7.659713         2    ;  uncertainty k = 0.312985
         1         2         3        27     9        0.000000       -0.499346         3    ;  uncertainty k = 0.298497
         1         2         3        27     9      180.000000        0.134584         4    ;  uncertainty k = 0.146871
         1         2        11        12     9        0.000000        0.159827         1    ;  uncertainty k = 0.202505
         1         2        11        12     9      180.000000        7.635458         2    ;  uncertainty k = 0.300390
         1         2        11        12     9        0.000000        1.440008         3    ;  uncertainty k = 0.282713
         1         2        11        12     9      180.000000        1.776764         4    ;  uncertainty k = 0.135814
         1         2        11        31     9        0.000000       -0.059530         1    ;  uncertainty k = 0.155868
         1         2        11        31     9      180.000000        7.586418         2    ;  uncertainty k = 0.418858
         1         2        11        31     9        0.000000       -0.426578         3    ;  uncertainty k = 0.318615
         1         2        11        31     9      180.000000        0.031488         4    ;  uncertainty k = 0.159975
         2         3         4         5     9        0.000000       -0.007380         1    ;  uncertainty k = 0.365656
         2         3         4         5     9      180.000000        9.872893         2    ;  uncertainty k = 0.628661
         2         3         4         5     9        0.000000        1.211912         3    ;  uncertainty k = 0.379190
         2         3         4         5     9      180.000000        1.777313         4    ;  uncertainty k = 0.246203
         2         3         4        13     9        0.000000        0.037842         1    ;  uncertainty k = 0.121048
         2         3         4        13     9      180.000000       10.331351         2    ;  uncertainty k = 0.202550
         2         3         4        13     9        0.000000        0.136000         3    ;  uncertainty k = 0.376370
         2         3         4        13     9      180.000000        1.097624         4    ;  uncertainty k = 0.338088
         2        11        12        13     9        0.000000       -0.029021         1    ;  uncertainty k = 0.121641
         2        11        12        13     9      180.000000       13.360255         2    ;  uncertainty k = 0.281851
         2        11        12        13     9        0.000000       -0.999539         3    ;  uncertainty k = 0.533362
         2        11        12        13     9      180.000000        0.694712         4    ;  uncertainty k = 0.255529
         2        11        12        32     9        0.000000        0.054400         1    ;  uncertainty k = 0.144489
         2        11        12        32     9      180.000000        7.897833         2    ;  uncertainty k = 0.321066
         2        11        12        32     9        0.000000        1.362804         3    ;  uncertainty k = 0.326600
         2        11        12        32     9      180.000000        1.852005         4    ;  uncertainty k = 0.199476
         3         2        11        12     9        0.000000        0.146788         1    ;  uncertainty k = 0.084750
         3         2        11        12     9      180.000000       15.295135         2    ;  uncertainty k = 0.279964
         3         2        11        12     9        0.000000       -1.369169         3    ;  uncertainty k = 0.485650
         3         2        11        12     9      180.000000        0.485712         4    ;  uncertainty k = 0.259749
         3         2        11        31     9        0.000000        0.126634         1    ;  uncertainty k = 0.095391
         3         2        11        31     9      180.000000        7.398920         2    ;  uncertainty k = 0.318262
         3         2        11        31     9        0.000000        1.428694         3    ;  uncertainty k = 0.304461
         3         2        11        31     9      180.000000        1.775231         4    ;  uncertainty k = 0.127803
         3         4         5         6     9        0.000000       -0.533247         1    ;  uncertainty k = 0.326791
         3         4         5         6     9      180.000000        4.817868         2    ;  uncertainty k = 0.118182
         3         4         5         6     9        0.000000        0.291200         3    ;  uncertainty k = 0.177616
         3         4         5         6     9      180.000000        0.458515         4    ;  uncertainty k = 0.041866
         3         4         5        10     9        0.000000       -0.533247         1    ;  uncertainty k = 0.326791
         3         4         5        10     9      180.000000        4.817868         2    ;  uncertainty k = 0.118182
         3         4         5        10     9        0.000000        0.291200         3    ;  uncertainty k = 0.177616
         3         4         5        10     9      180.000000        0.458515         4    ;  uncertainty k = 0.041866
         3         4        13        12     9        0.000000       -0.157928         1    ;  uncertainty k = 0.603980
         3         4        13        12     9      180.000000        7.260216         2    ;  uncertainty k = 0.395929
         3         4        13        12     9        0.000000        0.323996         3    ;  uncertainty k = 0.463978
         3         4        13        12     9      180.000000        1.050593         4    ;  uncertainty k = 0.312788
         3         4        13        14     9        0.000000        0.393634         1    ;  uncertainty k = 0.539255
         3         4        13        14     9      180.000000        7.771025         2    ;  uncertainty k = 0.393833
         3         4        13        14     9        0.000000        1.263843         3    ;  uncertainty k = 0.407697
         3         4        13        14     9      180.000000        1.566236         4    ;  uncertainty k = 0.196290
         4         3         2        11     9        0.000000        0.039759         1    ;  uncertainty k = 0.163512
         4         3         2        11     9      180.000000       14.026685         2    ;  uncertainty k = 0.173004
         4         3         2        11     9        0.000000       -1.055522         3    ;  uncertainty k = 0.490643
         4         3         2        11     9      180.000000        0.674880         4    ;  uncertainty k = 0.223357
         4         5         6         7     9        0.000000        0.043369         1    ;  uncertainty k = 0.212173
         4         5         6         7     9      180.000000        8.996914         2    ;  uncertainty k = 0.584955
         4         5         6         7     9        0.000000        1.313802         3    ;  uncertainty k = 0.393979
         4         5         6         7     9      180.000000        1.861368         4    ;  uncertainty k = 0.228072
         4         5         6        28     9        0.000000       -0.225071         1    ;  uncertainty k = 0.138966
         4         5         6        28     9      180.000000        7.202352         2    ;  uncertainty k = 0.332416
         4         5         6        28     9        0.000000        0.816009         3    ;  uncertainty k = 0.161244
         4         5         6        28     9      180.000000        1.228689         4    ;  uncertainty k = 0.210913
         4         5        10         9     9        0.000000        0.043369         1    ;  uncertainty k = 0.212173
         4         5        10         9     9      180.000000        8.996914         2    ;  uncertainty k = 0.584955
         4         5        10         9     9        0.000000        1.313802         3    ;  uncertainty k = 0.393979
         4         5        10         9     9      180.000000        1.861368         4    ;  uncertainty k = 0.228072
         4         5        10        30     9        0.000000       -0.225071         1    ;  uncertainty k = 0.138966
         4         5        10        30     9      180.000000        7.202352         2    ;  uncertainty k = 0.332416
         4         5        10        30     9        0.000000        0.816009         3    ;  uncertainty k = 0.161244
         4         5        10        30     9      180.000000        1.228689         4    ;  uncertainty k = 0.210913
         4        13        12        11     9        0.000000       -0.119407         1    ;  uncertainty k = 0.279874
         4        13        12        11     9      180.000000       10.665646         2    ;  uncertainty k = 0.324290
         4        13        12        11     9        0.000000        0.180461         3    ;  uncertainty k = 0.234527
         4        13        12        11     9      180.000000        1.123858         4    ;  uncertainty k = 0.295967
         4        13        12        32     9        0.000000       -0.062702         1    ;  uncertainty k = 0.163996
         4        13        12        32     9      180.000000        7.404804         2    ;  uncertainty k = 0.601826
         4        13        12        32     9        0.000000        1.446055         3    ;  uncertainty k = 0.249581
         4        13        12        32     9      180.000000        1.684667         4    ;  uncertainty k = 0.143408
         4        13        14        15     9        0.000000       -0.523743         1    ;  uncertainty k = 0.495613
         4        13        14        15     9      180.000000        2.504586         2    ;  uncertainty k = 0.481946
         4        13        14        15     9        0.000000        0.551530         3    ;  uncertainty k = 0.236604
         4        13        14        15     9      180.000000        0.273850         4    ;  uncertainty k = 0.043675
         4        13        14        20     9        0.000000       -0.507757         1    ;  uncertainty k = 0.567323
         4        13        14        20     9      180.000000        2.665697         2    ;  uncertainty k = 0.396736
         4        13        14        20     9        0.000000        0.569117         3    ;  uncertainty k = 0.154147
         4        13        14        20     9      180.000000        0.279760         4    ;  uncertainty k = 0.049460
         4        13        14        33     9        0.000000       -0.287277         1    ;  uncertainty k = 0.365841
         4        13        14        33     9      180.000000        2.236881         2    ;  uncertainty k = 0.408779
         4        13        14        33     9        0.000000        0.283583         3    ;  uncertainty k = 0.165788
         4        13        14        33     9      180.000000        0.405711         4    ;  uncertainty k = 0.050643
         5         4         3        27     9        0.000000       -0.144327         1    ;  uncertainty k = 0.146807
         5         4         3        27     9      180.000000        7.735481         2    ;  uncertainty k = 0.297328
         5         4         3        27     9        0.000000        0.878922         3    ;  uncertainty k = 0.214073
         5         4         3        27     9      180.000000        1.279420         4    ;  uncertainty k = 0.202664
         5         4        13        12     9        0.000000        0.320655         1    ;  uncertainty k = 0.350275
         5         4        13        12     9      180.000000        7.484571         2    ;  uncertainty k = 0.343123
         5         4        13        12     9        0.000000        1.247385         3    ;  uncertainty k = 0.289609
         5         4        13        12     9      180.000000        1.616031         4    ;  uncertainty k = 0.118128
         5         4        13        14     9        0.000000       -0.906412         1    ;  uncertainty k = 1.884312
         5         4        13        14     9      180.000000        8.665162         2    ;  uncertainty k = 0.552588
         5         4        13        14     9        0.000000        0.831512         3    ;  uncertainty k = 0.295079
         5         4        13        14     9      180.000000        1.176589         4    ;  uncertainty k = 0.339259
         5         6         7         8     9        0.000000        0.036166         1    ;  uncertainty k = 0.063982
         5         6         7         8     9      180.000000       14.316978         2    ;  uncertainty k = 0.198226
         5         6         7         8     9        0.000000       -0.962893         3    ;  uncertainty k = 0.532750
         5         6         7         8     9      180.000000        0.668926         4    ;  uncertainty k = 0.321906
         5         6         7        41     9        0.000000        0.014136         1    ;  uncertainty k = 0.206746
         5         6         7        41     9      180.000000        7.711015         2    ;  uncertainty k = 0.351910
         5         6         7        41     9        0.000000        1.332214         3    ;  uncertainty k = 0.180308
         5         6         7        41     9      180.000000        1.828035         4    ;  uncertainty k = 0.184566
         5        10         9         8     9        0.000000        0.036166         1    ;  uncertainty k = 0.063982
         5        10         9         8     9      180.000000       14.316978         2    ;  uncertainty k = 0.198226
         5        10         9         8     9        0.000000       -0.962893         3    ;  uncertainty k = 0.532750
         5        10         9         8     9      180.000000        0.668926         4    ;  uncertainty k = 0.321906
         5        10         9        29     9        0.000000        0.014136         1    ;  uncertainty k = 0.206746
         5        10         9        29     9      180.000000        7.711015         2    ;  uncertainty k = 0.351910
         5        10         9        29     9        0.000000        1.332214         3    ;  uncertainty k = 0.180308
         5        10         9        29     9      180.000000        1.828035         4    ;  uncertainty k = 0.184566
         6         5         4        13     9        0.000000        0.785732         1    ;  uncertainty k = 0.576042
         6         5         4        13     9      180.000000        5.021526         2    ;  uncertainty k = 0.202832
         6         5         4        13     9        0.000000        0.250255         3    ;  uncertainty k = 0.247132
         6         5         4        13     9      180.000000        0.566370         4    ;  uncertainty k = 0.037472
         6         5        10         9     9        0.000000       -0.115649         1    ;  uncertainty k = 0.122518
         6         5        10         9     9      180.000000       11.701217         2    ;  uncertainty k = 0.208616
         6         5        10         9     9        0.000000       -0.481437         3    ;  uncertainty k = 0.333793
         6         5        10         9     9      180.000000        0.869763         4    ;  uncertainty k = 0.308176
         6         5        10        30     9        0.000000        0.151958         1    ;  uncertainty k = 0.121873
         6         5        10        30     9      180.000000        7.051908         2    ;  uncertainty k = 0.544872
         6         5        10        30     9        0.000000        1.433519         3    ;  uncertainty k = 0.182196
         6         5        10        30     9      180.000000        1.677755         4    ;  uncertainty k = 0.266495
         6         7         8         9     9        0.000000        0.015514         1    ;  uncertainty k = 0.059704
         6         7         8         9     9      180.000000       14.949469         2    ;  uncertainty k = 0.250585
         6         7         8         9     9        0.000000       -1.182344         3    ;  uncertainty k = 0.483382
         6         7         8         9     9      180.000000        0.537262         4    ;  uncertainty k = 0.271344
         6         7         8        42     9        0.000000        0.064785         1    ;  uncertainty k = 0.063124
         6         7         8        42     9      180.000000        7.516704         2    ;  uncertainty k = 0.290545
         6         7         8        42     9        0.000000        1.447188         3    ;  uncertainty k = 0.281496
         6         7         8        42     9      180.000000        1.793575         4    ;  uncertainty k = 0.171663
         7         6         5        10     9        0.000000       -0.115649         1    ;  uncertainty k = 0.122518
         7         6         5        10     9      180.000000       11.701217         2    ;  uncertainty k = 0.208616
         7         6         5        10     9        0.000000       -0.481437         3    ;  uncertainty k = 0.333793
         7         6         5        10     9      180.000000        0.869763         4    ;  uncertainty k = 0.308176
         7         8         9        10     9        0.000000        0.015514         1    ;  uncertainty k = 0.059704
         7         8         9        10     9      180.000000       14.949469         2    ;  uncertainty k = 0.250585
         7         8         9        10     9        0.000000       -1.182344         3    ;  uncertainty k = 0.483382
         7         8         9        10     9      180.000000        0.537262         4    ;  uncertainty k = 0.271344
         7         8         9        29     9        0.000000        0.072466         1    ;  uncertainty k = 0.048534
         7         8         9        29     9      180.000000        7.567595         2    ;  uncertainty k = 0.302858
         7         8         9        29     9        0.000000        1.437008         3    ;  uncertainty k = 0.328858
         7         8         9        29     9      180.000000        1.801943         4    ;  uncertainty k = 0.135711
         8         7         6        28     9        0.000000        0.056673         1    ;  uncertainty k = 0.091796
         8         7         6        28     9      180.000000        7.867545         2    ;  uncertainty k = 0.267583
         8         7         6        28     9        0.000000        1.411892         3    ;  uncertainty k = 0.308438
         8         7         6        28     9      180.000000        1.860524         4    ;  uncertainty k = 0.187160
         8         9        10        30     9        0.000000        0.056673         1    ;  uncertainty k = 0.091796
         8         9        10        30     9      180.000000        7.867545         2    ;  uncertainty k = 0.267583
         8         9        10        30     9        0.000000        1.411892         3    ;  uncertainty k = 0.308438
         8         9        10        30     9      180.000000        1.860524         4    ;  uncertainty k = 0.187160
         9         8         7        41     9        0.000000        0.072466         1    ;  uncertainty k = 0.048534
         9         8         7        41     9      180.000000        7.567595         2    ;  uncertainty k = 0.302858
         9         8         7        41     9        0.000000        1.437008         3    ;  uncertainty k = 0.328858
         9         8         7        41     9      180.000000        1.801943         4    ;  uncertainty k = 0.135711
        10         5         4        13     9        0.000000        0.785732         1    ;  uncertainty k = 0.576042
        10         5         4        13     9      180.000000        5.021526         2    ;  uncertainty k = 0.202832
        10         5         4        13     9        0.000000        0.250255         3    ;  uncertainty k = 0.247132
        10         5         4        13     9      180.000000        0.566370         4    ;  uncertainty k = 0.037472
        10         5         6        28     9        0.000000        0.151958         1    ;  uncertainty k = 0.121873
        10         5         6        28     9      180.000000        7.051908         2    ;  uncertainty k = 0.544872
        10         5         6        28     9        0.000000        1.433519         3    ;  uncertainty k = 0.182196
        10         5         6        28     9      180.000000        1.677755         4    ;  uncertainty k = 0.266495
        10         9         8        42     9        0.000000        0.064785         1    ;  uncertainty k = 0.063124
        10         9         8        42     9      180.000000        7.516704         2    ;  uncertainty k = 0.290545
        10         9         8        42     9        0.000000        1.447188         3    ;  uncertainty k = 0.281496
        10         9         8        42     9      180.000000        1.793575         4    ;  uncertainty k = 0.171663
        11         2         3        27     9        0.000000        0.026161         1    ;  uncertainty k = 0.179044
        11         2         3        27     9      180.000000        7.737370         2    ;  uncertainty k = 0.217516
        11         2         3        27     9        0.000000        1.366016         3    ;  uncertainty k = 0.323834
        11         2         3        27     9      180.000000        1.820934         4    ;  uncertainty k = 0.209437
        11        12        13        14     9        0.000000        0.227869         1    ;  uncertainty k = 0.407721
        11        12        13        14     9      180.000000        9.575141         2    ;  uncertainty k = 0.517720
        11        12        13        14     9        0.000000        1.427900         3    ;  uncertainty k = 0.423771
        11        12        13        14     9      180.000000        1.848542         4    ;  uncertainty k = 0.187074
        12        13        14        15     9        0.000000       -1.191299         1    ;  uncertainty k = 0.408073
        12        13        14        15     9      180.000000        2.753819         2    ;  uncertainty k = 0.279229
        12        13        14        15     9        0.000000        0.034807         3    ;  uncertainty k = 0.066474
        12        13        14        15     9      180.000000        0.282307         4    ;  uncertainty k = 0.052570
        12        13        14        20     9        0.000000       -1.031316         1    ;  uncertainty k = 0.399279
        12        13        14        20     9      180.000000        2.835482         2    ;  uncertainty k = 0.157663
        12        13        14        20     9        0.000000        0.034940         3    ;  uncertainty k = 0.156239
        12        13        14        20     9      180.000000        0.326825         4    ;  uncertainty k = 0.042834
        12        13        14        33     9        0.000000        0.122336         1    ;  uncertainty k = 0.437916
        12        13        14        33     9      180.000000        2.159486         2    ;  uncertainty k = 0.149761
        12        13        14        33     9        0.000000        0.359925         3    ;  uncertainty k = 0.053165
        12        13        14        33     9      180.000000        0.328061         4    ;  uncertainty k = 0.042323
        13         4         3        27     9        0.000000        0.137082         1    ;  uncertainty k = 0.420242
        13         4         3        27     9      180.000000        6.944932         2    ;  uncertainty k = 0.446861
        13         4         3        27     9        0.000000        1.402034         3    ;  uncertainty k = 0.336047
        13         4         3        27     9      180.000000        1.662051         4    ;  uncertainty k = 0.141476
        13        12        11        31     9        0.000000        0.123183         1    ;  uncertainty k = 0.266833
        13        12        11        31     9      180.000000        7.020763         2    ;  uncertainty k = 0.239015
        13        12        11        31     9        0.000000        1.424952         3    ;  uncertainty k = 0.242740
        13        12        11        31     9      180.000000        1.821220         4    ;  uncertainty k = 0.110736
        13        14        15        16     9        0.000000       -2.450640         1    ;  uncertainty k = 0.638225
        13        14        15        16     9      180.000000        0.159521         2    ;  uncertainty k = 0.471606
        13        14        15        16     9        0.000000        0.895404         3    ;  uncertainty k = 0.184471
        13        14        15        16     9      180.000000        0.023416         4    ;  uncertainty k = 0.092721
        13        14        15        34     9        0.000000        0.893390         1    ;  uncertainty k = 0.166017
        13        14        15        34     9      180.000000       -0.488326         2    ;  uncertainty k = 0.266918
        13        14        15        34     9        0.000000        0.848170         3    ;  uncertainty k = 0.105733
        13        14        15        34     9      180.000000       -0.039270         4    ;  uncertainty k = 0.035929
        13        14        15        35     9        0.000000        0.893390         1    ;  uncertainty k = 0.166017
        13        14        15        35     9      180.000000       -0.488326         2    ;  uncertainty k = 0.266918
        13        14        15        35     9        0.000000        0.848170         3    ;  uncertainty k = 0.105733
        13        14        15        35     9      180.000000       -0.039270         4    ;  uncertainty k = 0.035929
        13        14        20        21     9        0.000000       -2.402410         1    ;  uncertainty k = 0.789736
        13        14        20        21     9      180.000000        0.096087         2    ;  uncertainty k = 0.803266
        13        14        20        21     9        0.000000        1.031006         3    ;  uncertainty k = 0.218603
        13        14        20        21     9      180.000000        0.021946         4    ;  uncertainty k = 0.043176
        13        14        20        37     9        0.000000        1.064110         1    ;  uncertainty k = 0.183804
        13        14        20        37     9      180.000000       -0.478788         2    ;  uncertainty k = 0.155750
        13        14        20        37     9        0.000000        0.869283         3    ;  uncertainty k = 0.106710
        13        14        20        37     9      180.000000       -0.039170         4    ;  uncertainty k = 0.058906
        13        14        20        38     9        0.000000        1.064110         1    ;  uncertainty k = 0.183804
        13        14        20        38     9      180.000000       -0.478788         2    ;  uncertainty k = 0.155750
        13        14        20        38     9        0.000000        0.869283         3    ;  uncertainty k = 0.106710
        13        14        20        38     9      180.000000       -0.039170         4    ;  uncertainty k = 0.058906
        14        13        12        32     9        0.000000        0.003006         1    ;  uncertainty k = 0.124283
        14        13        12        32     9      180.000000        8.166819         2    ;  uncertainty k = 0.330488
        14        13        12        32     9        0.000000        0.756498         3    ;  uncertainty k = 0.246514
        14        13        12        32     9      180.000000        1.162478         4    ;  uncertainty k = 0.225423
        14        15        16        17     9        0.000000       -2.209174         1    ;  uncertainty k = 1.353733
        14        15        16        17     9      180.000000        2.835493         2    ;  uncertainty k = 0.811597
        14        15        16        17     9        0.000000        0.127916         3    ;  uncertainty k = 0.214365
        14        15        16        17     9      180.000000        0.342979         4    ;  uncertainty k = 0.164611
        14        15        16        19     9        0.000000       -3.738764         1    ;  uncertainty k = 1.671537
        14        15        16        19     9      180.000000        1.912405         2    ;  uncertainty k = 0.859359
        14        15        16        19     9        0.000000        0.513074         3    ;  uncertainty k = 0.330145
        14        15        16        19     9      180.000000        0.202241         4    ;  uncertainty k = 0.188716
        14        20        21        19     9        0.000000       -3.109776         1    ;  uncertainty k = 2.488106
        14        20        21        19     9      180.000000        3.166772         2    ;  uncertainty k = 1.267750
        14        20        21        19     9        0.000000       -0.114647         3    ;  uncertainty k = 0.345724
        14        20        21        19     9      180.000000        0.580859         4    ;  uncertainty k = 0.237899
        14        20        21        22     9        0.000000       -2.649341         1    ;  uncertainty k = 1.371165
        14        20        21        22     9      180.000000        3.155426         2    ;  uncertainty k = 0.438646
        14        20        21        22     9        0.000000        0.514596         3    ;  uncertainty k = 0.350933
        14        20        21        22     9      180.000000        0.401729         4    ;  uncertainty k = 0.193544
        15        14        20        21     9        0.000000        0.169057         1    ;  uncertainty k = 1.200366
        15        14        20        21     9      180.000000       -1.118040         2    ;  uncertainty k = 0.906366
        15        14        20        21     9        0.000000        0.757785         3    ;  uncertainty k = 0.352398
        15        14        20        21     9      180.000000       -0.430230         4    ;  uncertainty k = 0.177685
        15        14        20        37     9        0.000000       -0.432985         1    ;  uncertainty k = 0.273832
        15        14        20        37     9      180.000000       -0.697152         2    ;  uncertainty k = 0.224558
        15        14        20        37     9        0.000000        0.266339         3    ;  uncertainty k = 0.087769
        15        14        20        37     9      180.000000        0.095649         4    ;  uncertainty k = 0.112043
        15        14        20        38     9        0.000000       -0.432985         1    ;  uncertainty k = 0.273832
        15        14        20        38     9      180.000000       -0.697152         2    ;  uncertainty k = 0.224558
        15        14        20        38     9        0.000000        0.266339         3    ;  uncertainty k = 0.087769
        15        14        20        38     9      180.000000        0.095649         4    ;  uncertainty k = 0.112043
        15        16        17        18     9        0.000000        5.241417         1    ;  uncertainty k = 3.004829
        15        16        17        18     9      180.000000       43.473816         2    ;  uncertainty k = 0.241809
        15        16        17        18     9        0.000000        2.083488         3    ;  uncertainty k = 0.911415
        15        16        17        18     9      180.000000       -0.267888         4    ;  uncertainty k = 0.429664
        15        16        19        21     9        0.000000       -1.657421         1    ;  uncertainty k = 2.356171
        15        16        19        21     9      180.000000        2.726458         2    ;  uncertainty k = 0.631566
        15        16        19        21     9        0.000000       -0.128815         3    ;  uncertainty k = 0.303560
        15        16        19        21     9      180.000000        0.042254         4    ;  uncertainty k = 0.156688
        15        16        19        26     9        0.000000       -2.544353         1    ;  uncertainty k = 1.295941
        15        16        19        26     9      180.000000        3.512947         2    ;  uncertainty k = 0.528591
        15        16        19        26     9        0.000000        0.029522         3    ;  uncertainty k = 0.186361
        15        16        19        26     9      180.000000        0.052534         4    ;  uncertainty k = 0.191284
        16        15        14        20     9        0.000000       -1.619318         1    ;  uncertainty k = 1.482243
        16        15        14        20     9      180.000000       -0.614133         2    ;  uncertainty k = 0.686676
        16        15        14        20     9        0.000000        0.640623         3    ;  uncertainty k = 0.360353
        16        15        14        20     9      180.000000       -0.411605         4    ;  uncertainty k = 0.144942
        16        15        14        33     9        0.000000       -1.002636         1    ;  uncertainty k = 0.446191
        16        15        14        33     9      180.000000       -0.424527         2    ;  uncertainty k = 0.315880
        16        15        14        33     9        0.000000        0.518100         3    ;  uncertainty k = 0.190909
        16        15        14        33     9      180.000000       -0.026604         4    ;  uncertainty k = 0.087202
        16        17        18        36     9        0.000000       -0.959480         1    ;  uncertainty k = 1.029715
        16        17        18        36     9      180.000000       11.825906         2    ;  uncertainty k = 0.272036
        16        17        18        36     9        0.000000        0.224133         3    ;  uncertainty k = 0.406126
        16        17        18        36     9      180.000000       -0.213411         4    ;  uncertainty k = 0.249970
        16        19        21        20     9        0.000000       -0.421234         1    ;  uncertainty k = 0.667555
        16        19        21        20     9      180.000000        5.529041         2    ;  uncertainty k = 0.795655
        16        19        21        20     9        0.000000        0.665699         3    ;  uncertainty k = 0.241718
        16        19        21        20     9      180.000000        1.212161         4    ;  uncertainty k = 0.284278
        16        19        21        22     9        0.000000        0.304815         1    ;  uncertainty k = 0.654260
        16        19        21        22     9      180.000000        7.065801         2    ;  uncertainty k = 0.687411
        16        19        21        22     9        0.000000        0.613694         3    ;  uncertainty k = 0.336798
        16        19        21        22     9      180.000000        1.677364         4    ;  uncertainty k = 0.281885
        16        19        26        25     9        0.000000        0.350143         1    ;  uncertainty k = 0.389652
        16        19        26        25     9      180.000000        9.602006         2    ;  uncertainty k = 0.268579
        16        19        26        25     9        0.000000        0.785224         3    ;  uncertainty k = 0.205421
        16        19        26        25     9      180.000000        1.737877         4    ;  uncertainty k = 0.237531
        16        19        26        43     9        0.000000       -0.716672         1    ;  uncertainty k = 0.310998
        16        19        26        43     9      180.000000        6.357406         2    ;  uncertainty k = 0.781928
        16        19        26        43     9        0.000000        0.591946         3    ;  uncertainty k = 0.359279
        16        19        26        43     9      180.000000        0.925474         4    ;  uncertainty k = 0.277043
        17        16        15        34     9        0.000000        2.305810         1    ;  uncertainty k = 0.429477
        17        16        15        34     9      180.000000        3.911646         2    ;  uncertainty k = 0.441918
        17        16        15        34     9        0.000000        0.165031         3    ;  uncertainty k = 0.107150
        17        16        15        34     9      180.000000        0.050803         4    ;  uncertainty k = 0.217294
        17        16        15        35     9        0.000000        2.305810         1    ;  uncertainty k = 0.429477
        17        16        15        35     9      180.000000        3.911646         2    ;  uncertainty k = 0.441918
        17        16        15        35     9        0.000000        0.165031         3    ;  uncertainty k = 0.107150
        17        16        15        35     9      180.000000        0.050803         4    ;  uncertainty k = 0.217294
        17        16        19        21     9        0.000000       -0.306118         1    ;  uncertainty k = 2.989864
        17        16        19        21     9      180.000000        3.966207         2    ;  uncertainty k = 0.454347
        17        16        19        21     9        0.000000        0.497638         3    ;  uncertainty k = 0.279357
        17        16        19        21     9      180.000000        0.011307         4    ;  uncertainty k = 0.126935
        17        16        19        26     9        0.000000       -0.042318         1    ;  uncertainty k = 1.828393
        17        16        19        26     9      180.000000        4.392915         2    ;  uncertainty k = 0.378281
        17        16        19        26     9        0.000000        0.710668         3    ;  uncertainty k = 0.437048
        17        16        19        26     9      180.000000       -0.020124         4    ;  uncertainty k = 0.212057
        18        17        16        19     9        0.000000        0.825745         1    ;  uncertainty k = 2.100441
        18        17        16        19     9      180.000000       38.561598         2    ;  uncertainty k = 0.500692
        18        17        16        19     9        0.000000        3.466590         3    ;  uncertainty k = 1.409039
        18        17        16        19     9      180.000000        0.087000         4    ;  uncertainty k = 1.741942
        19        16        15        34     9        0.000000       -0.800445         1    ;  uncertainty k = 0.582594
        19        16        15        34     9      180.000000        2.190344         2    ;  uncertainty k = 0.878319
        19        16        15        34     9        0.000000        0.794590         3    ;  uncertainty k = 0.231449
        19        16        15        34     9      180.000000        0.119537         4    ;  uncertainty k = 0.116487
        19        16        15        35     9        0.000000       -0.800445         1    ;  uncertainty k = 0.582594
        19        16        15        35     9      180.000000        2.190344         2    ;  uncertainty k = 0.878319
        19        16        15        35     9        0.000000        0.794590         3    ;  uncertainty k = 0.231449
        19        16        15        35     9      180.000000        0.119537         4    ;  uncertainty k = 0.116487
        19        21        20        37     9        0.000000       -1.156547         1    ;  uncertainty k = 0.685644
        19        21        20        37     9      180.000000        2.959284         2    ;  uncertainty k = 0.390286
        19        21        20        37     9        0.000000        0.562998         3    ;  uncertainty k = 0.162320
        19        21        20        37     9      180.000000        0.169908         4    ;  uncertainty k = 0.054939
        19        21        20        38     9        0.000000       -1.156547         1    ;  uncertainty k = 0.685644
        19        21        20        38     9      180.000000        2.959284         2    ;  uncertainty k = 0.390286
        19        21        20        38     9        0.000000        0.562998         3    ;  uncertainty k = 0.162320
        19        21        20        38     9      180.000000        0.169908         4    ;  uncertainty k = 0.054939
        19        21        22        23     9        0.000000       -0.531810         1    ;  uncertainty k = 1.030029
        19        21        22        23     9      180.000000       15.397972         2    ;  uncertainty k = 0.432391
        19        21        22        23     9        0.000000        0.150583         3    ;  uncertainty k = 0.773298
        19        21        22        23     9      180.000000        1.499452         4    ;  uncertainty k = 0.342373
        19        26        25        23     9        0.000000       -0.709545         1    ;  uncertainty k = 0.681281
        19        26        25        23     9      180.000000       16.331343         2    ;  uncertainty k = 0.596262
        19        26        25        23     9        0.000000       -0.079275         3    ;  uncertainty k = 0.680096
        19        26        25        23     9      180.000000        1.560983         4    ;  uncertainty k = 0.673541
        20        14        15        34     9        0.000000       -0.592172         1    ;  uncertainty k = 0.369707
        20        14        15        34     9      180.000000       -0.710598         2    ;  uncertainty k = 0.244936
        20        14        15        34     9        0.000000        0.243636         3    ;  uncertainty k = 0.071934
        20        14        15        34     9      180.000000        0.039525         4    ;  uncertainty k = 0.055004
        20        14        15        35     9        0.000000       -0.592172         1    ;  uncertainty k = 0.369707
        20        14        15        35     9      180.000000       -0.710598         2    ;  uncertainty k = 0.244936
        20        14        15        35     9        0.000000        0.243636         3    ;  uncertainty k = 0.071934
        20        14        15        35     9      180.000000        0.039525         4    ;  uncertainty k = 0.055004
        20        21        19        26     9        0.000000       -0.349770         1    ;  uncertainty k = 0.477505
        20        21        19        26     9      180.000000        4.671386         2    ;  uncertainty k = 0.604008
        20        21        19        26     9        0.000000        0.740813         3    ;  uncertainty k = 0.302986
        20        21        19        26     9      180.000000        1.284030         4    ;  uncertainty k = 0.364932
        20        21        22        23     9        0.000000        0.287487         1    ;  uncertainty k = 1.155762
        20        21        22        23     9      180.000000       16.846859         2    ;  uncertainty k = 0.671275
        20        21        22        23     9        0.000000        1.438751         3    ;  uncertainty k = 0.708301
        20        21        22        23     9      180.000000        1.431602         4    ;  uncertainty k = 0.502385
        21        19        26        25     9        0.000000        0.065252         1    ;  uncertainty k = 0.347644
        21        19        26        25     9      180.000000       11.880472         2    ;  uncertainty k = 0.592539
        21        19        26        25     9        0.000000       -0.582345         3    ;  uncertainty k = 0.582217
        21        19        26        25     9      180.000000        0.980285         4    ;  uncertainty k = 0.288543
        21        19        26        43     9        0.000000       -0.754135         1    ;  uncertainty k = 0.969830
        21        19        26        43     9      180.000000        5.112640         2    ;  uncertainty k = 0.965897
        21        19        26        43     9        0.000000        0.650877         3    ;  uncertainty k = 0.198178
        21        19        26        43     9      180.000000        1.217220         4    ;  uncertainty k = 0.086739
        21        20        14        33     9        0.000000       -0.949868         1    ;  uncertainty k = 0.607028
        21        20        14        33     9      180.000000       -0.007273         2    ;  uncertainty k = 0.277216
        21        20        14        33     9        0.000000        0.499834         3    ;  uncertainty k = 0.135011
        21        20        14        33     9      180.000000        0.008783         4    ;  uncertainty k = 0.057184
        21        22        23        24     9        0.000000        1.310992         1    ;  uncertainty k = 1.450552
        21        22        23        24     9      180.000000        9.468843         2    ;  uncertainty k = 0.511860
        21        22        23        24     9        0.000000        2.225778         3    ;  uncertainty k = 0.499658
        21        22        23        24     9      180.000000        0.881605         4    ;  uncertainty k = 0.281343
        21        22        23        25     9        0.000000        0.305198         1    ;  uncertainty k = 1.811399
        21        22        23        25     9      180.000000        6.858915         2    ;  uncertainty k = 1.078897
        21        22        23        25     9        0.000000        0.858300         3    ;  uncertainty k = 0.329044
        21        22        23        25     9      180.000000        0.689224         4    ;  uncertainty k = 0.141524
        22        21        19        26     9        0.000000        0.218535         1    ;  uncertainty k = 0.579805
        22        21        19        26     9      180.000000        8.664460         2    ;  uncertainty k = 0.682048
        22        21        19        26     9        0.000000       -0.416638         3    ;  uncertainty k = 0.202440
        22        21        19        26     9      180.000000        1.257994         4    ;  uncertainty k = 0.255220
        22        21        20        37     9        0.000000        1.954085         1    ;  uncertainty k = 1.050924
        22        21        20        37     9      180.000000        3.592378         2    ;  uncertainty k = 0.325388
        22        21        20        37     9        0.000000        0.303325         3    ;  uncertainty k = 0.286431
        22        21        20        37     9      180.000000        0.227678         4    ;  uncertainty k = 0.105402
        22        21        20        38     9        0.000000        1.954085         1    ;  uncertainty k = 1.050924
        22        21        20        38     9      180.000000        3.592378         2    ;  uncertainty k = 0.325388
        22        21        20        38     9        0.000000        0.303325         3    ;  uncertainty k = 0.286431
        22        21        20        38     9      180.000000        0.227678         4    ;  uncertainty k = 0.105402
        22        23        24        39     9        0.000000       20.245312         1    ;  uncertainty k = 0.267573
        22        23        24        39     9      180.000000       11.433631         2    ;  uncertainty k = 0.158571
        22        23        24        39     9        0.000000        1.021256         3    ;  uncertainty k = 0.271982
        22        23        24        39     9      180.000000       -0.450927         4    ;  uncertainty k = 0.179087
        22        23        24        40     9        0.000000       20.245312         1    ;  uncertainty k = 0.267573
        22        23        24        40     9      180.000000       11.433631         2    ;  uncertainty k = 0.158571
        22        23        24        40     9        0.000000        1.021256         3    ;  uncertainty k = 0.271982
        22        23        24        40     9      180.000000       -0.450927         4    ;  uncertainty k = 0.179087
        22        23        25        26     9        0.000000        0.078141         1    ;  uncertainty k = 1.029483
        22        23        25        26     9      180.000000        7.296374         2    ;  uncertainty k = 0.834056
        22        23        25        26     9        0.000000        0.720870         3    ;  uncertainty k = 0.507499
        22        23        25        26     9      180.000000        0.714600         4    ;  uncertainty k = 0.109920
        23        25        26        43     9        0.000000        0.226821         1    ;  uncertainty k = 0.816040
        23        25        26        43     9      180.000000       17.438592         2    ;  uncertainty k = 0.780377
        23        25        26        43     9        0.000000        1.242980         3    ;  uncertainty k = 0.910028
        23        25        26        43     9      180.000000        1.159219         4    ;  uncertainty k = 0.571825
        24        23        25        26     9        0.000000        0.925800         1    ;  uncertainty k = 1.498649
        24        23        25        26     9      180.000000        8.808187         2    ;  uncertainty k = 0.205521
        24        23        25        26     9        0.000000        2.091113         3    ;  uncertainty k = 0.487983
        24        23        25        26     9      180.000000        0.939354         4    ;  uncertainty k = 0.189438
        25        23        24        39     9        0.000000       20.446590         1    ;  uncertainty k = 0.445343
        25        23        24        39     9      180.000000       11.436313         2    ;  uncertainty k = 0.244172
        25        23        24        39     9        0.000000        1.046554         3    ;  uncertainty k = 0.190893
        25        23        24        39     9      180.000000       -0.438020         4    ;  uncertainty k = 0.188912
        25        23        24        40     9        0.000000       20.446590         1    ;  uncertainty k = 0.445343
        25        23        24        40     9      180.000000       11.436313         2    ;  uncertainty k = 0.244172
        25        23        24        40     9        0.000000        1.046554         3    ;  uncertainty k = 0.190893
        25        23        24        40     9      180.000000       -0.438020         4    ;  uncertainty k = 0.188912
        28         6         7        41     9        0.000000       -0.123966         1    ;  uncertainty k = 0.092149
        28         6         7        41     9      180.000000        7.737481         2    ;  uncertainty k = 0.274309
        28         6         7        41     9        0.000000       -0.475654         3    ;  uncertainty k = 0.264760
        28         6         7        41     9      180.000000        0.141491         4    ;  uncertainty k = 0.116897
        29         9         8        42     9        0.000000       -0.054066         1    ;  uncertainty k = 0.098599
        29         9         8        42     9      180.000000        7.627307         2    ;  uncertainty k = 0.408951
        29         9         8        42     9        0.000000       -0.419010         3    ;  uncertainty k = 0.294816
        29         9         8        42     9      180.000000        0.038054         4    ;  uncertainty k = 0.143388
        29         9        10        30     9        0.000000       -0.123966         1    ;  uncertainty k = 0.092149
        29         9        10        30     9      180.000000        7.737481         2    ;  uncertainty k = 0.274309
        29         9        10        30     9        0.000000       -0.475654         3    ;  uncertainty k = 0.264760
        29         9        10        30     9      180.000000        0.141491         4    ;  uncertainty k = 0.116897
        31        11        12        32     9        0.000000       -0.021922         1    ;  uncertainty k = 0.115432
        31        11        12        32     9      180.000000        7.841865         2    ;  uncertainty k = 0.223805
        31        11        12        32     9        0.000000       -0.472004         3    ;  uncertainty k = 0.327377
        31        11        12        32     9      180.000000        0.162856         4    ;  uncertainty k = 0.152675
        33        14        15        34     9        0.000000        1.016428         1    ;  uncertainty k = 0.231898
        33        14        15        34     9      180.000000       -0.130490         2    ;  uncertainty k = 0.193331
        33        14        15        34     9        0.000000        0.100379         3    ;  uncertainty k = 0.109158
        33        14        15        34     9      180.000000        0.046655         4    ;  uncertainty k = 0.071254
        33        14        15        35     9        0.000000        1.016428         1    ;  uncertainty k = 0.231898
        33        14        15        35     9      180.000000       -0.130490         2    ;  uncertainty k = 0.193331
        33        14        15        35     9        0.000000        0.100379         3    ;  uncertainty k = 0.109158
        33        14        15        35     9      180.000000        0.046655         4    ;  uncertainty k = 0.071254
        33        14        20        37     9        0.000000        0.897578         1    ;  uncertainty k = 0.285057
        33        14        20        37     9      180.000000       -0.113607         2    ;  uncertainty k = 0.319140
        33        14        20        37     9        0.000000        0.116853         3    ;  uncertainty k = 0.092613
        33        14        20        37     9      180.000000        0.077264         4    ;  uncertainty k = 0.070959
        33        14        20        38     9        0.000000        0.897578         1    ;  uncertainty k = 0.285057
        33        14        20        38     9      180.000000       -0.113607         2    ;  uncertainty k = 0.319140
        33        14        20        38     9        0.000000        0.116853         3    ;  uncertainty k = 0.092613
        33        14        20        38     9      180.000000        0.077264         4    ;  uncertainty k = 0.070959
        41         7         8        42     9        0.000000       -0.054066         1    ;  uncertainty k = 0.098599
        41         7         8        42     9      180.000000        7.627307         2    ;  uncertainty k = 0.408951
        41         7         8        42     9        0.000000       -0.419010         3    ;  uncertainty k = 0.294816
        41         7         8        42     9      180.000000        0.038054         4    ;  uncertainty k = 0.143388

[ dihedrals ] ; impropers
;       ai        aj        ak        al funct           phase               k        pn
         2         1         3        11     4      180.000000        3.692605         2    ;  uncertainty k = 0.105308
         2         3        11         1     4      180.000000        3.692605         2    ;  uncertainty k = 0.105308
         2        11         1         3     4      180.000000        3.692605         2    ;  uncertainty k = 0.105308
         3         2         4        27     4      180.000000        3.673620         2    ;  uncertainty k = 0.143978
         3         4        27         2     4      180.000000        3.673620         2    ;  uncertainty k = 0.143978
         3        27         2         4     4      180.000000        3.673620         2    ;  uncertainty k = 0.143978
         4         3         5        13     4      180.000000       17.257022         2    ;  uncertainty k = 0.114490
         4         5        13         3     4      180.000000       17.257022         2    ;  uncertainty k = 0.114490
         4        13         3         5     4      180.000000       17.257022         2    ;  uncertainty k = 0.114490
         5         4         6        10     4      180.000000       14.923142         2    ;  uncertainty k = 0.087869
         5         6        10         4     4      180.000000       14.923142         2    ;  uncertainty k = 0.087869
         5        10         4         6     4      180.000000       14.923142         2    ;  uncertainty k = 0.087869
         6         5         7        28     4      180.000000        3.931945         2    ;  uncertainty k = 0.086610
         6         7        28         5     4      180.000000        3.931945         2    ;  uncertainty k = 0.086610
         6        28         5         7     4      180.000000        3.931945         2    ;  uncertainty k = 0.086610
         7         6         8        41     4      180.000000        4.427488         2    ;  uncertainty k = 0.076975
         7         8        41         6     4      180.000000        4.427488         2    ;  uncertainty k = 0.076975
         7        41         6         8     4      180.000000        4.427488         2    ;  uncertainty k = 0.076975
         8         7         9        42     4      180.000000        4.364183         2    ;  uncertainty k = 0.168223
         8         9        42         7     4      180.000000        4.364183         2    ;  uncertainty k = 0.168223
         8        42         7         9     4      180.000000        4.364183         2    ;  uncertainty k = 0.168223
         9         8        10        29     4      180.000000        4.427488         2    ;  uncertainty k = 0.076975
         9        10        29         8     4      180.000000        4.427488         2    ;  uncertainty k = 0.076975
         9        29         8        10     4      180.000000        4.427488         2    ;  uncertainty k = 0.076975
        10         5         9        30     4      180.000000        3.931945         2    ;  uncertainty k = 0.086610
        10         9        30         5     4      180.000000        3.931945         2    ;  uncertainty k = 0.086610
        10        30         5         9     4      180.000000        3.931945         2    ;  uncertainty k = 0.086610
        11         2        12        31     4      180.000000        3.912087         2    ;  uncertainty k = 0.135146
        11        12        31         2     4      180.000000        3.912087         2    ;  uncertainty k = 0.135146
        11        31         2        12     4      180.000000        3.912087         2    ;  uncertainty k = 0.135146
        12        11        13        32     4      180.000000        3.767785         2    ;  uncertainty k = 0.301117
        12        13        32        11     4      180.000000        3.767785         2    ;  uncertainty k = 0.301117
        12        32        11        13     4      180.000000        3.767785         2    ;  uncertainty k = 0.301117
        13         4        12        14     4      180.000000       15.199560         2    ;  uncertainty k = 0.156052
        13        12        14         4     4      180.000000       15.199560         2    ;  uncertainty k = 0.156052
        13        14         4        12     4      180.000000       15.199560         2    ;  uncertainty k = 0.156052
        16        15        17        19     4      180.000000       18.376993         2    ;  uncertainty k = 0.243651
        16        17        19        15     4      180.000000       18.376993         2    ;  uncertainty k = 0.243651
        16        19        15        17     4      180.000000       18.376993         2    ;  uncertainty k = 0.243651
        19        16        21        26     4      180.000000        5.779438         2    ;  uncertainty k = 0.591272
        19        21        26        16     4      180.000000        5.779438         2    ;  uncertainty k = 0.591272
        19        26        16        21     4      180.000000        5.779438         2    ;  uncertainty k = 0.591272
        21        19        20        22     4      180.000000       30.743581         2    ;  uncertainty k = 0.080549
        21        20        22        19     4      180.000000       30.743581         2    ;  uncertainty k = 0.080549
        21        22        19        20     4      180.000000       30.743581         2    ;  uncertainty k = 0.080549
        23        22        24        25     4      180.000000       47.545006         2    ;  uncertainty k = 0.081441
        23        24        25        22     4      180.000000       47.545006         2    ;  uncertainty k = 0.081441
        23        25        22        24     4      180.000000       47.545006         2    ;  uncertainty k = 0.081441
        24        23        39        40     4      180.000000        0.337878         2    ;  uncertainty k = 0.461884
        24        39        40        23     4      180.000000        0.337878         2    ;  uncertainty k = 0.461884
        24        40        23        39     4      180.000000        0.337878         2    ;  uncertainty k = 0.461884
        26        19        25        43     4      180.000000       17.982934         2    ;  uncertainty k = 0.113309
        26        25        43        19     4      180.000000       17.982934         2    ;  uncertainty k = 0.113309
        26        43        19        25     4      180.000000       17.982934         2    ;  uncertainty k = 0.113309

[ pairs ]
;       ai        aj funct
         1         4     1
         1        12     1
         1        27     1
         1        31     1
         2         5     1
         2        13     1
         2        32     1
         3         6     1
         3        10     1
         3        12     1
         3        14     1
         3        31     1
         4         7     1
         4         9     1
         4        11     1
         4        15     1
         4        20     1
         4        28     1
         4        30     1
         4        32     1
         4        33     1
         5         8     1
         5        12     1
         5        14     1
         5        27     1
         5        29     1
         5        41     1
         6         9     1
         6        13     1
         6        30     1
         6        42     1
         7        10     1
         7        29     1
         8        28     1
         8        30     1
         9        41     1
        10        13     1
        10        28     1
        10        42     1
        11        14     1
        11        27     1
        12        15     1
        12        20     1
        12        33     1
        13        16     1
        13        21     1
        13        27     1
        13        31     1
        13        34     1
        13        35     1
        13        37     1
        13        38     1
        14        17     1
        14        19     1
        14        22     1
        14        32     1
        15        18     1
        15        21     1
        15        26     1
        15        37     1
        15        38     1
        16        20     1
        16        22     1
        16        25     1
        16        33     1
        16        36     1
        16        43     1
        17        21     1
        17        26     1
        17        34     1
        17        35     1
        18        19     1
        19        23     1
        19        34     1
        19        35     1
        19        37     1
        19        38     1
        20        23     1
        20        26     1
        20        34     1
        20        35     1
        21        24     1
        21        25     1
        21        33     1
        21        43     1
        22        26     1
        22        37     1
        22        38     1
        22        39     1
        22        40     1
        23        43     1
        24        26     1
        25        39     1
        25        40     1
        28        41     1
        29        30     1
        29        42     1
        31        32     1
        33        34     1
        33        35     1
        33        37     1
        33        38     1
        41        42     1
