; ITP file created by ByteFF-joint-25, 2025-07-14 11:27:48.873711

[ atomtypes ]
;name           bonded.type        at.num        mass        charge   ptype           sigma         epsilon
 h0bf                                   1      0.0000       0.00000       A     2.62559e-01     6.70250e-02    ;  uncertainty sigma = 0.000010, epsilon = 0.000440
 c1bf                                   6      0.0000       0.00000       A     3.31519e-01     4.13367e-01    ;  uncertainty sigma = 0.000003, epsilon = 0.000605
 c2bf                                   6      0.0000       0.00000       A     3.31517e-01     4.13215e-01    ;  uncertainty sigma = 0.000005, epsilon = 0.000530
 c3bf                                   6      0.0000       0.00000       A     3.31518e-01     4.13611e-01    ;  uncertainty sigma = 0.000015, epsilon = 0.000675
 c4bf                                   6      0.0000       0.00000       A     3.31539e-01     4.13182e-01    ;  uncertainty sigma = 0.000010, epsilon = 0.000422
 c5bf                                   6      0.0000       0.00000       A     3.31520e-01     4.13543e-01    ;  uncertainty sigma = 0.000004, epsilon = 0.000645
 c6bf                                   6      0.0000       0.00000       A     3.31521e-01     4.13172e-01    ;  uncertainty sigma = 0.000006, epsilon = 0.000487
 n7bf                                   7      0.0000       0.00000       A     3.38417e-01     3.93531e-01    ;  uncertainty sigma = 0.000010, epsilon = 0.000899
 c8bf                                   6      0.0000       0.00000       A     3.31521e-01     4.13172e-01    ;  uncertainty sigma = 0.000006, epsilon = 0.000487
 c9bf                                   6      0.0000       0.00000       A     3.31520e-01     4.13543e-01    ;  uncertainty sigma = 0.000004, epsilon = 0.000645
 c10bf                                  6      0.0000       0.00000       A     3.31517e-01     4.13301e-01    ;  uncertainty sigma = 0.000003, epsilon = 0.000559
 c11bf                                  6      0.0000       0.00000       A     3.31517e-01     4.13137e-01    ;  uncertainty sigma = 0.000006, epsilon = 0.000608
 c12bf                                  6      0.0000       0.00000       A     3.31514e-01     4.13295e-01    ;  uncertainty sigma = 0.000007, epsilon = 0.001029
 c13bf                                  6      0.0000       0.00000       A     3.39818e-01     4.50546e-01    ;  uncertainty sigma = 0.000009, epsilon = 0.000796
 c14bf                                  6      0.0000       0.00000       A     3.39767e-01     4.50747e-01    ;  uncertainty sigma = 0.000014, epsilon = 0.000949
 c15bf                                  6      0.0000       0.00000       A     3.31488e-01     4.13161e-01    ;  uncertainty sigma = 0.000028, epsilon = 0.002203
 n16bf                                  7      0.0000       0.00000       A     3.38394e-01     3.92793e-01    ;  uncertainty sigma = 0.000033, epsilon = 0.002769
 o17bf                                  8      0.0000       0.00000       A     3.24285e-01     3.88037e-01    ;  uncertainty sigma = 0.000023, epsilon = 0.001869
 c18bf                                  6      0.0000       0.00000       A     3.31531e-01     4.13066e-01    ;  uncertainty sigma = 0.000011, epsilon = 0.000641
 c19bf                                  6      0.0000       0.00000       A     3.39754e-01     4.50880e-01    ;  uncertainty sigma = 0.000011, epsilon = 0.001039
 c20bf                                  6      0.0000       0.00000       A     3.31534e-01     4.12744e-01    ;  uncertainty sigma = 0.000023, epsilon = 0.000730
 n21bf                                  7      0.0000       0.00000       A     3.38441e-01     3.93298e-01    ;  uncertainty sigma = 0.000034, epsilon = 0.001875
 c22bf                                  6      0.0000       0.00000       A     3.31537e-01     4.13073e-01    ;  uncertainty sigma = 0.000017, epsilon = 0.001187
 n23bf                                  7      0.0000       0.00000       A     3.36867e-01     4.69651e-01    ;  uncertainty sigma = 0.000042, epsilon = 0.002086
 n24bf                                  7      0.0000       0.00000       A     3.38459e-01     3.94097e-01    ;  uncertainty sigma = 0.000017, epsilon = 0.000959
 c25bf                                  6      0.0000       0.00000       A     3.31528e-01     4.12772e-01    ;  uncertainty sigma = 0.000011, epsilon = 0.000736
 c26bf                                  6      0.0000       0.00000       A     3.39785e-01     4.51049e-01    ;  uncertainty sigma = 0.000008, epsilon = 0.000698
 h27bf                                  1      0.0000       0.00000       A     2.62566e-01     6.70292e-02    ;  uncertainty sigma = 0.000012, epsilon = 0.000344
 h28bf                                  1      0.0000       0.00000       A     2.62545e-01     6.69761e-02    ;  uncertainty sigma = 0.000014, epsilon = 0.000517
 h29bf                                  1      0.0000       0.00000       A     2.53630e-01     6.70766e-02    ;  uncertainty sigma = 0.000014, epsilon = 0.000406
 h30bf                                  1      0.0000       0.00000       A     2.62545e-01     6.69761e-02    ;  uncertainty sigma = 0.000014, epsilon = 0.000517
 h31bf                                  1      0.0000       0.00000       A     2.62559e-01     6.70250e-02    ;  uncertainty sigma = 0.000010, epsilon = 0.000440
 h32bf                                  1      0.0000       0.00000       A     2.62555e-01     6.69955e-02    ;  uncertainty sigma = 0.000015, epsilon = 0.000288
 h33bf                                  1      0.0000       0.00000       A     2.59984e-01     8.70696e-02    ;  uncertainty sigma = 0.000070, epsilon = 0.000845
 h34bf                                  1      0.0000       0.00000       A     2.59998e-01     8.66362e-02    ;  uncertainty sigma = 0.000030, epsilon = 0.000898
 h35bf                                  1      0.0000       0.00000       A     2.59998e-01     8.66362e-02    ;  uncertainty sigma = 0.000030, epsilon = 0.000898
 h36bf                                  1      0.0000       0.00000       A     5.38150e-02     1.95465e-02    ;  uncertainty sigma = 0.000051, epsilon = 0.001777
 h37bf                                  1      0.0000       0.00000       A     2.60043e-01     8.67081e-02    ;  uncertainty sigma = 0.000017, epsilon = 0.001169
 h38bf                                  1      0.0000       0.00000       A     2.60043e-01     8.67081e-02    ;  uncertainty sigma = 0.000017, epsilon = 0.001169
 h39bf                                  1      0.0000       0.00000       A     1.10707e-01     4.06772e-02    ;  uncertainty sigma = 0.000046, epsilon = 0.001139
 h40bf                                  1      0.0000       0.00000       A     1.10707e-01     4.06772e-02    ;  uncertainty sigma = 0.000046, epsilon = 0.001139
 h41bf                                  1      0.0000       0.00000       A     2.60035e-01     8.66577e-02    ;  uncertainty sigma = 0.000008, epsilon = 0.000584
 h42bf                                  1      0.0000       0.00000       A     2.60035e-01     8.66577e-02    ;  uncertainty sigma = 0.000008, epsilon = 0.000584
 h43bf                                  1      0.0000       0.00000       A     2.60035e-01     8.66577e-02    ;  uncertainty sigma = 0.000008, epsilon = 0.000584
 h44bf                                  1      0.0000       0.00000       A     2.53630e-01     6.70767e-02    ;  uncertainty sigma = 0.000014, epsilon = 0.000406

[ moleculetype ]
;name             nrexcl
 MOL                   3

[ atoms ]
;       nr            type      resi   res      atom      cgnr      charge          mass ; qtot
         1            h0bf         1   UNL        h0         1     0.13674        1.0080 ; qtot    0.137
         2            c1bf         1   UNL        c1         2    -0.13210       12.0110 ; qtot    0.005
         3            c2bf         1   UNL        c2         3    -0.11290       12.0110 ; qtot   -0.108
         4            c3bf         1   UNL        c3         4    -0.04985       12.0110 ; qtot   -0.158
         5            c4bf         1   UNL        c4         5    -0.00094       12.0110 ; qtot   -0.159
         6            c5bf         1   UNL        c5         6    -0.23782       12.0110 ; qtot   -0.397
         7            c6bf         1   UNL        c6         7     0.39549       12.0110 ; qtot   -0.001
         8            n7bf         1   UNL        n7         8    -0.65657       14.0070 ; qtot   -0.658
         9            c8bf         1   UNL        c8         9     0.39549       12.0110 ; qtot   -0.262
        10            c9bf         1   UNL        c9        10    -0.23782       12.0110 ; qtot   -0.500
        11           c10bf         1   UNL       c10        11    -0.12099       12.0110 ; qtot   -0.621
        12           c11bf         1   UNL       c11        12    -0.12954       12.0110 ; qtot   -0.751
        13           c12bf         1   UNL       c12        13    -0.06005       12.0110 ; qtot   -0.811
        14           c13bf         1   UNL       c13        14    -0.00759       12.0110 ; qtot   -0.818
        15           c14bf         1   UNL       c14        15    -0.12701       12.0110 ; qtot   -0.945
        16           c15bf         1   UNL       c15        16     0.44872       12.0110 ; qtot   -0.497
        17           n16bf         1   UNL       n16        17    -0.43040       14.0070 ; qtot   -0.927
        18           o17bf         1   UNL       o17        18    -0.38482       15.9990 ; qtot   -1.312
        19           c18bf         1   UNL       c18        19    -0.44013       12.0110 ; qtot   -1.752
        20           c19bf         1   UNL       c19        20    -0.13206       12.0110 ; qtot   -1.884
        21           c20bf         1   UNL       c20        21     0.50709       12.0110 ; qtot   -1.377
        22           n21bf         1   UNL       n21        22    -0.77682       14.0070 ; qtot   -2.154
        23           c22bf         1   UNL       c22        23     0.90016       12.0110 ; qtot   -1.254
        24           n23bf         1   UNL       n23        24    -0.92842       14.0070 ; qtot   -2.182
        25           n24bf         1   UNL       n24        25    -0.78354       14.0070 ; qtot   -2.966
        26           c25bf         1   UNL       c25        26     0.53925       12.0110 ; qtot   -2.426
        27           c26bf         1   UNL       c26        27    -0.15365       12.0110 ; qtot   -2.580
        28           h27bf         1   UNL       h27        28     0.13385        1.0080 ; qtot   -2.446
        29           h28bf         1   UNL       h28        29     0.14821        1.0080 ; qtot   -2.298
        30           h29bf         1   UNL       h29        30     0.02241        1.0080 ; qtot   -2.276
        31           h30bf         1   UNL       h30        31     0.14821        1.0080 ; qtot   -2.127
        32           h31bf         1   UNL       h31        32     0.13457        1.0080 ; qtot   -1.993
        33           h32bf         1   UNL       h32        33     0.13294        1.0080 ; qtot   -1.860
        34           h33bf         1   UNL       h33        34     0.06529        1.0080 ; qtot   -1.795
        35           h34bf         1   UNL       h34        35     0.07441        1.0080 ; qtot   -1.720
        36           h35bf         1   UNL       h35        36     0.07441        1.0080 ; qtot   -1.646
        37           h36bf         1   UNL       h36        37     0.42538        1.0080 ; qtot   -1.220
        38           h37bf         1   UNL       h37        38     0.07454        1.0080 ; qtot   -1.146
        39           h38bf         1   UNL       h38        39     0.07454        1.0080 ; qtot   -1.071
        40           h39bf         1   UNL       h39        40     0.42595        1.0080 ; qtot   -0.645
        41           h40bf         1   UNL       h40        41     0.42595        1.0080 ; qtot   -0.219
        42           h41bf         1   UNL       h41        42     0.06567        1.0080 ; qtot   -0.154
        43           h42bf         1   UNL       h42        43     0.06567        1.0080 ; qtot   -0.088
        44           h43bf         1   UNL       h43        44     0.06567        1.0080 ; qtot   -0.022
        45           h44bf         1   UNL       h44        45     0.02241        1.0080 ; qtot    0.000

[ bonds ]
;       ai        aj funct               r               k
         1         2     1        0.108818   333357.876123    ;  uncertainty r = 0.000017, k = 0.810528
         2         3     1        0.139360   372660.713232    ;  uncertainty r = 0.000019, k = 1.107672
         2        11     1        0.139438   380960.069482    ;  uncertainty r = 0.000028, k = 1.333090
         3         4     1        0.140301   338623.602539    ;  uncertainty r = 0.000046, k = 6.521717
         3        28     1        0.108819   334211.760449    ;  uncertainty r = 0.000015, k = 1.220858
         4         5     1        0.148968   296494.879980    ;  uncertainty r = 0.000081, k = 12.237279
         4        13     1        0.140711   330709.371436    ;  uncertainty r = 0.000085, k = 7.771299
         5         6     1        0.139965   369012.583936    ;  uncertainty r = 0.000024, k = 8.550885
         5        10     1        0.139965   369012.583936    ;  uncertainty r = 0.000024, k = 8.550885
         6         7     1        0.139761   361768.829639    ;  uncertainty r = 0.000029, k = 2.186780
         6        29     1        0.108880   339047.314258    ;  uncertainty r = 0.000027, k = 0.678451
         7         8     1        0.133862   393430.503955    ;  uncertainty r = 0.000023, k = 2.934684
         7        45     1        0.109037   337097.045215    ;  uncertainty r = 0.000017, k = 1.686174
         8         9     1        0.133862   393430.503955    ;  uncertainty r = 0.000023, k = 2.934684
         9        10     1        0.139761   361768.829639    ;  uncertainty r = 0.000029, k = 2.186780
         9        30     1        0.109037   337097.045215    ;  uncertainty r = 0.000017, k = 1.686174
        10        31     1        0.108880   339047.314258    ;  uncertainty r = 0.000027, k = 0.678451
        11        12     1        0.139522   373153.604980    ;  uncertainty r = 0.000033, k = 2.046128
        11        32     1        0.108823   333344.315918    ;  uncertainty r = 0.000011, k = 1.086969
        12        13     1        0.140043   341801.363818    ;  uncertainty r = 0.000057, k = 4.667046
        12        33     1        0.108805   334424.510107    ;  uncertainty r = 0.000029, k = 1.320649
        13        14     1        0.151579   218802.106348    ;  uncertainty r = 0.000078, k = 11.414886
        14        15     1        0.153712   197690.858936    ;  uncertainty r = 0.000134, k = 7.753784
        14        20     1        0.153581   200100.042603    ;  uncertainty r = 0.000081, k = 5.242508
        14        34     1        0.109504   304391.107422    ;  uncertainty r = 0.000035, k = 5.170274
        15        16     1        0.151000   221439.808838    ;  uncertainty r = 0.000205, k = 19.108169
        15        35     1        0.109587   311328.058887    ;  uncertainty r = 0.000026, k = 2.462394
        15        36     1        0.109587   311328.058887    ;  uncertainty r = 0.000026, k = 2.462394
        16        17     1        0.128719   538362.154590    ;  uncertainty r = 0.000104, k = 17.832749
        16        19     1        0.147580   268546.250293    ;  uncertainty r = 0.000150, k = 29.555881
        17        18     1        0.140415   306152.478467    ;  uncertainty r = 0.000201, k = 24.633051
        18        37     1        0.097177   448930.942188    ;  uncertainty r = 0.000095, k = 7.665798
        19        21     1        0.141778   414658.430420    ;  uncertainty r = 0.000103, k = 22.818674
        19        26     1        0.142574   354867.808887    ;  uncertainty r = 0.000250, k = 17.133293
        20        21     1        0.150743   232553.737598    ;  uncertainty r = 0.000144, k = 13.618856
        20        38     1        0.109629   310429.178174    ;  uncertainty r = 0.000025, k = 3.047848
        20        39     1        0.109629   310429.178174    ;  uncertainty r = 0.000025, k = 3.047848
        21        22     1        0.134152   434505.488770    ;  uncertainty r = 0.000091, k = 31.222654
        22        23     1        0.136065   620995.082031    ;  uncertainty r = 0.000146, k = 14.893506
        23        24     1        0.140031   671109.258691    ;  uncertainty r = 0.000284, k = 13.485473
        23        25     1        0.136102   618618.190039    ;  uncertainty r = 0.000301, k = 19.721898
        24        40     1        0.102294   440101.282324    ;  uncertainty r = 0.000017, k = 2.101026
        24        41     1        0.102294   440101.282324    ;  uncertainty r = 0.000017, k = 2.101026
        25        26     1        0.134232   424598.367188    ;  uncertainty r = 0.000078, k = 13.923217
        26        27     1        0.150459   234131.088232    ;  uncertainty r = 0.000127, k = 9.848991
        27        42     1        0.109341   310719.662793    ;  uncertainty r = 0.000031, k = 1.724441
        27        43     1        0.109341   310719.662793    ;  uncertainty r = 0.000031, k = 1.724441
        27        44     1        0.109341   310719.662793    ;  uncertainty r = 0.000031, k = 1.724441

[ angles ]
;       ai        aj        ak funct           theta             cth
         1         2         3     1      120.482887      286.602883    ;  uncertainty theta = 0.000633, k = 0.052116
         1         2        11     1      120.985214      288.277479    ;  uncertainty theta = 0.001086, k = 0.026282
         2         3         4     1      121.853905      510.144460    ;  uncertainty theta = 0.001394, k = 0.087046
         2         3        28     1      120.571579      292.142105    ;  uncertainty theta = 0.001286, k = 0.020970
         2        11        12     1      118.376907      513.486820    ;  uncertainty theta = 0.001516, k = 0.066831
         2        11        32     1      120.944992      288.231991    ;  uncertainty theta = 0.001203, k = 0.018819
         3         2        11     1      117.841141      511.217082    ;  uncertainty theta = 0.001903, k = 0.037504
         3         4         5     1      119.521042      422.590448    ;  uncertainty theta = 0.002710, k = 0.255991
         3         4        13     1      123.318802      437.642148    ;  uncertainty theta = 0.004413, k = 0.168524
         4         3        28     1      118.652420      272.474062    ;  uncertainty theta = 0.001666, k = 0.125127
         4         5         6     1      123.211227      405.377990    ;  uncertainty theta = 0.002625, k = 0.127586
         4         5        10     1      123.211227      405.377990    ;  uncertainty theta = 0.002625, k = 0.127586
         4        13        12     1      122.655457      460.214144    ;  uncertainty theta = 0.002895, k = 0.126335
         4        13        14     1      118.584030      377.109239    ;  uncertainty theta = 0.004236, k = 0.067467
         5         4        13     1      119.082375      372.903309    ;  uncertainty theta = 0.004900, k = 0.224753
         5         6         7     1      118.072975      499.086125    ;  uncertainty theta = 0.000979, k = 0.111051
         5         6        29     1      121.432007      275.464043    ;  uncertainty theta = 0.000779, k = 0.064994
         5        10         9     1      118.072975      499.086125    ;  uncertainty theta = 0.000979, k = 0.111051
         5        10        31     1      121.432007      275.464043    ;  uncertainty theta = 0.000779, k = 0.064994
         6         5        10     1      116.367172      427.115049    ;  uncertainty theta = 0.002960, k = 0.176609
         6         7         8     1      123.579956      721.791649    ;  uncertainty theta = 0.001450, k = 0.051486
         6         7        45     1      120.189674      280.119426    ;  uncertainty theta = 0.000762, k = 0.044526
         7         6        29     1      121.462784      298.960545    ;  uncertainty theta = 0.001191, k = 0.063107
         7         8         9     1      114.701065      417.106386    ;  uncertainty theta = 0.003537, k = 0.034491
         8         7        45     1      116.316788      340.108649    ;  uncertainty theta = 0.001118, k = 0.036440
         8         9        10     1      123.579956      721.791649    ;  uncertainty theta = 0.001450, k = 0.051486
         8         9        30     1      116.316788      340.108649    ;  uncertainty theta = 0.001118, k = 0.036440
         9        10        31     1      121.462784      298.960545    ;  uncertainty theta = 0.001191, k = 0.063107
        10         9        30     1      120.189674      280.119426    ;  uncertainty theta = 0.000762, k = 0.044526
        11        12        13     1      122.435501      512.836422    ;  uncertainty theta = 0.002093, k = 0.096010
        11        12        33     1      120.027145      296.284703    ;  uncertainty theta = 0.001958, k = 0.030861
        12        11        32     1      120.401810      284.940066    ;  uncertainty theta = 0.001274, k = 0.037180
        12        13        14     1      119.410995      421.228171    ;  uncertainty theta = 0.002705, k = 0.133054
        13        12        33     1      117.294777      264.758711    ;  uncertainty theta = 0.002669, k = 0.093448
        13        14        15     1      110.280502      543.829216    ;  uncertainty theta = 0.000958, k = 0.098522
        13        14        20     1      110.464432      563.103349    ;  uncertainty theta = 0.002063, k = 0.114851
        13        14        34     1      105.593643      396.805884    ;  uncertainty theta = 0.004731, k = 0.079567
        14        15        16     1      110.442848      524.210651    ;  uncertainty theta = 0.006307, k = 0.202426
        14        15        35     1      108.316689      385.168528    ;  uncertainty theta = 0.001758, k = 0.069081
        14        15        36     1      108.316689      385.168528    ;  uncertainty theta = 0.001758, k = 0.069081
        14        20        21     1      109.543861      533.817200    ;  uncertainty theta = 0.004180, k = 0.079531
        14        20        38     1      108.193039      387.004837    ;  uncertainty theta = 0.003192, k = 0.046670
        14        20        39     1      108.193039      387.004837    ;  uncertainty theta = 0.003192, k = 0.046670
        15        14        20     1      108.833412      613.705067    ;  uncertainty theta = 0.003622, k = 0.198897
        15        14        34     1      106.568481      403.696882    ;  uncertainty theta = 0.002808, k = 0.050271
        15        16        17     1      123.949326      300.966996    ;  uncertainty theta = 0.014071, k = 1.064558
        15        16        19     1      119.575157      378.819523    ;  uncertainty theta = 0.005398, k = 0.070089
        16        15        35     1      107.834732      384.883374    ;  uncertainty theta = 0.001134, k = 0.069370
        16        15        36     1      107.834732      384.883374    ;  uncertainty theta = 0.001134, k = 0.069370
        16        17        18     1      105.597755      751.923650    ;  uncertainty theta = 0.005956, k = 0.197459
        16        19        21     1      121.139709      442.091989    ;  uncertainty theta = 0.006639, k = 0.288361
        16        19        26     1      121.664322      407.424597    ;  uncertainty theta = 0.011051, k = 0.074406
        17        16        19     1      118.242088      351.990396    ;  uncertainty theta = 0.018131, k = 0.348316
        17        18        37     1      100.908386      466.465852    ;  uncertainty theta = 0.006628, k = 0.052873
        19        21        20     1      120.854263      386.536774    ;  uncertainty theta = 0.003501, k = 0.239283
        19        21        22     1      122.464279      644.290033    ;  uncertainty theta = 0.004943, k = 0.176115
        19        26        25     1      122.213196      667.482644    ;  uncertainty theta = 0.002874, k = 0.143312
        19        26        27     1      119.354332      417.362715    ;  uncertainty theta = 0.005777, k = 0.161239
        20        14        34     1      106.847672      402.645487    ;  uncertainty theta = 0.001842, k = 0.037966
        20        21        22     1      120.097069      454.401706    ;  uncertainty theta = 0.003876, k = 0.660562
        21        19        26     1      120.470840      462.243482    ;  uncertainty theta = 0.009839, k = 0.463716
        21        20        38     1      107.266640      389.754322    ;  uncertainty theta = 0.001426, k = 0.061998
        21        20        39     1      107.266640      389.754322    ;  uncertainty theta = 0.001426, k = 0.061998
        21        22        23     1      115.226517      435.407459    ;  uncertainty theta = 0.005848, k = 0.330032
        22        23        24     1      124.793900      807.195659    ;  uncertainty theta = 0.008387, k = 0.065508
        22        23        25     1      126.788757      745.872951    ;  uncertainty theta = 0.005006, k = 0.175477
        23        24        40     1      119.001221      455.807077    ;  uncertainty theta = 0.002454, k = 0.026560
        23        24        41     1      119.001221      455.807077    ;  uncertainty theta = 0.002454, k = 0.026560
        23        25        26     1      117.326431      426.790568    ;  uncertainty theta = 0.011682, k = 0.374636
        24        23        25     1      124.927368      805.097275    ;  uncertainty theta = 0.007310, k = 0.087549
        25        26        27     1      119.482216      553.323657    ;  uncertainty theta = 0.005815, k = 0.207804
        26        27        42     1      108.647873      388.767504    ;  uncertainty theta = 0.000432, k = 0.100436
        26        27        43     1      108.647873      388.767504    ;  uncertainty theta = 0.000432, k = 0.100436
        26        27        44     1      108.647873      388.767504    ;  uncertainty theta = 0.000432, k = 0.100436
        35        15        36     1      105.849609      311.340872    ;  uncertainty theta = 0.001154, k = 0.052904
        38        20        39     1      105.607933      309.669436    ;  uncertainty theta = 0.002037, k = 0.051234
        40        24        41     1      107.578018      266.499560    ;  uncertainty theta = 0.002398, k = 0.032762
        42        27        43     1      107.123596      313.024757    ;  uncertainty theta = 0.001401, k = 0.041914
        42        27        44     1      107.123596      313.024757    ;  uncertainty theta = 0.001401, k = 0.041914
        43        27        44     1      107.123596      313.024757    ;  uncertainty theta = 0.001401, k = 0.041914

[ dihedrals ] ; propers for gromacs 4.5 or higher, use funct 9
;       ai        aj        ak        al funct           phase               k        pn
         1         2         3         4     9        0.000000       -0.096168         1    ;  uncertainty k = 0.183410
         1         2         3         4     9      180.000000        7.237014         2    ;  uncertainty k = 0.216698
         1         2         3         4     9        0.000000        1.322019         3    ;  uncertainty k = 0.209988
         1         2         3         4     9      180.000000        1.809985         4    ;  uncertainty k = 0.133621
         1         2         3        28     9        0.000000       -0.094579         1    ;  uncertainty k = 0.157383
         1         2         3        28     9      180.000000        7.659713         2    ;  uncertainty k = 0.312985
         1         2         3        28     9        0.000000       -0.499346         3    ;  uncertainty k = 0.298497
         1         2         3        28     9      180.000000        0.134584         4    ;  uncertainty k = 0.146871
         1         2        11        12     9        0.000000        0.159827         1    ;  uncertainty k = 0.202505
         1         2        11        12     9      180.000000        7.635458         2    ;  uncertainty k = 0.300390
         1         2        11        12     9        0.000000        1.440008         3    ;  uncertainty k = 0.282713
         1         2        11        12     9      180.000000        1.776764         4    ;  uncertainty k = 0.135814
         1         2        11        32     9        0.000000       -0.059530         1    ;  uncertainty k = 0.155868
         1         2        11        32     9      180.000000        7.586418         2    ;  uncertainty k = 0.418858
         1         2        11        32     9        0.000000       -0.426578         3    ;  uncertainty k = 0.318615
         1         2        11        32     9      180.000000        0.031488         4    ;  uncertainty k = 0.159975
         2         3         4         5     9        0.000000        0.031544         1    ;  uncertainty k = 0.296967
         2         3         4         5     9      180.000000        9.899850         2    ;  uncertainty k = 0.648057
         2         3         4         5     9        0.000000        1.227943         3    ;  uncertainty k = 0.420422
         2         3         4         5     9      180.000000        1.777106         4    ;  uncertainty k = 0.247821
         2         3         4        13     9        0.000000        0.058310         1    ;  uncertainty k = 0.105013
         2         3         4        13     9      180.000000       10.581767         2    ;  uncertainty k = 0.212254
         2         3         4        13     9        0.000000        0.098047         3    ;  uncertainty k = 0.366137
         2         3         4        13     9      180.000000        1.071375         4    ;  uncertainty k = 0.333841
         2        11        12        13     9        0.000000       -0.029021         1    ;  uncertainty k = 0.121641
         2        11        12        13     9      180.000000       13.360255         2    ;  uncertainty k = 0.281851
         2        11        12        13     9        0.000000       -0.999539         3    ;  uncertainty k = 0.533362
         2        11        12        13     9      180.000000        0.694712         4    ;  uncertainty k = 0.255529
         2        11        12        33     9        0.000000        0.054400         1    ;  uncertainty k = 0.144489
         2        11        12        33     9      180.000000        7.897833         2    ;  uncertainty k = 0.321066
         2        11        12        33     9        0.000000        1.362804         3    ;  uncertainty k = 0.326600
         2        11        12        33     9      180.000000        1.852005         4    ;  uncertainty k = 0.199476
         3         2        11        12     9        0.000000        0.146788         1    ;  uncertainty k = 0.084750
         3         2        11        12     9      180.000000       15.295135         2    ;  uncertainty k = 0.279964
         3         2        11        12     9        0.000000       -1.369169         3    ;  uncertainty k = 0.485650
         3         2        11        12     9      180.000000        0.485712         4    ;  uncertainty k = 0.259749
         3         2        11        32     9        0.000000        0.126634         1    ;  uncertainty k = 0.095391
         3         2        11        32     9      180.000000        7.398920         2    ;  uncertainty k = 0.318262
         3         2        11        32     9        0.000000        1.428694         3    ;  uncertainty k = 0.304461
         3         2        11        32     9      180.000000        1.775231         4    ;  uncertainty k = 0.127803
         3         4         5         6     9        0.000000       -0.295011         1    ;  uncertainty k = 0.313035
         3         4         5         6     9      180.000000        4.729712         2    ;  uncertainty k = 0.135510
         3         4         5         6     9        0.000000        0.372664         3    ;  uncertainty k = 0.109344
         3         4         5         6     9      180.000000        0.364408         4    ;  uncertainty k = 0.108166
         3         4         5        10     9        0.000000       -0.295011         1    ;  uncertainty k = 0.313035
         3         4         5        10     9      180.000000        4.729712         2    ;  uncertainty k = 0.135510
         3         4         5        10     9        0.000000        0.372664         3    ;  uncertainty k = 0.109344
         3         4         5        10     9      180.000000        0.364408         4    ;  uncertainty k = 0.108166
         3         4        13        12     9        0.000000       -0.083952         1    ;  uncertainty k = 0.599079
         3         4        13        12     9      180.000000        7.466682         2    ;  uncertainty k = 0.381231
         3         4        13        12     9        0.000000        0.315668         3    ;  uncertainty k = 0.471690
         3         4        13        12     9      180.000000        1.035607         4    ;  uncertainty k = 0.313804
         3         4        13        14     9        0.000000        0.368885         1    ;  uncertainty k = 0.589460
         3         4        13        14     9      180.000000        7.773229         2    ;  uncertainty k = 0.419201
         3         4        13        14     9        0.000000        1.249739         3    ;  uncertainty k = 0.400406
         3         4        13        14     9      180.000000        1.561247         4    ;  uncertainty k = 0.190428
         4         3         2        11     9        0.000000        0.059539         1    ;  uncertainty k = 0.177278
         4         3         2        11     9      180.000000       13.914960         2    ;  uncertainty k = 0.191655
         4         3         2        11     9        0.000000       -1.039778         3    ;  uncertainty k = 0.528503
         4         3         2        11     9      180.000000        0.688771         4    ;  uncertainty k = 0.231230
         4         5         6         7     9        0.000000        0.061663         1    ;  uncertainty k = 0.216397
         4         5         6         7     9      180.000000        8.589163         2    ;  uncertainty k = 0.595651
         4         5         6         7     9        0.000000        1.036935         3    ;  uncertainty k = 0.233587
         4         5         6         7     9      180.000000        1.748282         4    ;  uncertainty k = 0.177577
         4         5         6        29     9        0.000000       -0.209340         1    ;  uncertainty k = 0.282659
         4         5         6        29     9      180.000000        7.021629         2    ;  uncertainty k = 0.315343
         4         5         6        29     9        0.000000        0.864430         3    ;  uncertainty k = 0.149135
         4         5         6        29     9      180.000000        1.215494         4    ;  uncertainty k = 0.210593
         4         5        10         9     9        0.000000        0.061663         1    ;  uncertainty k = 0.216397
         4         5        10         9     9      180.000000        8.589163         2    ;  uncertainty k = 0.595651
         4         5        10         9     9        0.000000        1.036935         3    ;  uncertainty k = 0.233587
         4         5        10         9     9      180.000000        1.748282         4    ;  uncertainty k = 0.177577
         4         5        10        31     9        0.000000       -0.209340         1    ;  uncertainty k = 0.282659
         4         5        10        31     9      180.000000        7.021629         2    ;  uncertainty k = 0.315343
         4         5        10        31     9        0.000000        0.864430         3    ;  uncertainty k = 0.149135
         4         5        10        31     9      180.000000        1.215494         4    ;  uncertainty k = 0.210593
         4        13        12        11     9        0.000000       -0.118016         1    ;  uncertainty k = 0.262030
         4        13        12        11     9      180.000000       10.546149         2    ;  uncertainty k = 0.361328
         4        13        12        11     9        0.000000        0.194380         3    ;  uncertainty k = 0.246566
         4        13        12        11     9      180.000000        1.132763         4    ;  uncertainty k = 0.301320
         4        13        12        33     9        0.000000       -0.074242         1    ;  uncertainty k = 0.186562
         4        13        12        33     9      180.000000        7.311990         2    ;  uncertainty k = 0.593393
         4        13        12        33     9        0.000000        1.463482         3    ;  uncertainty k = 0.245765
         4        13        12        33     9      180.000000        1.679016         4    ;  uncertainty k = 0.141020
         4        13        14        15     9        0.000000       -0.466658         1    ;  uncertainty k = 0.384672
         4        13        14        15     9      180.000000        2.551020         2    ;  uncertainty k = 0.494644
         4        13        14        15     9        0.000000        0.501309         3    ;  uncertainty k = 0.225669
         4        13        14        15     9      180.000000        0.284800         4    ;  uncertainty k = 0.047177
         4        13        14        20     9        0.000000       -0.453101         1    ;  uncertainty k = 0.583943
         4        13        14        20     9      180.000000        2.736559         2    ;  uncertainty k = 0.355092
         4        13        14        20     9        0.000000        0.512806         3    ;  uncertainty k = 0.142279
         4        13        14        20     9      180.000000        0.290144         4    ;  uncertainty k = 0.053109
         4        13        14        34     9        0.000000       -0.302942         1    ;  uncertainty k = 0.267740
         4        13        14        34     9      180.000000        2.208467         2    ;  uncertainty k = 0.428585
         4        13        14        34     9        0.000000        0.272702         3    ;  uncertainty k = 0.141947
         4        13        14        34     9      180.000000        0.402487         4    ;  uncertainty k = 0.047640
         5         4         3        28     9        0.000000       -0.207352         1    ;  uncertainty k = 0.175637
         5         4         3        28     9      180.000000        7.882977         2    ;  uncertainty k = 0.240870
         5         4         3        28     9        0.000000        0.887320         3    ;  uncertainty k = 0.206459
         5         4         3        28     9      180.000000        1.285138         4    ;  uncertainty k = 0.191381
         5         4        13        12     9        0.000000        0.355701         1    ;  uncertainty k = 0.323652
         5         4        13        12     9      180.000000        7.578346         2    ;  uncertainty k = 0.369992
         5         4        13        12     9        0.000000        1.295852         3    ;  uncertainty k = 0.290991
         5         4        13        12     9      180.000000        1.631074         4    ;  uncertainty k = 0.131033
         5         4        13        14     9        0.000000       -0.823513         1    ;  uncertainty k = 1.880670
         5         4        13        14     9      180.000000        8.580621         2    ;  uncertainty k = 0.524471
         5         4        13        14     9        0.000000        0.853046         3    ;  uncertainty k = 0.301013
         5         4        13        14     9      180.000000        1.192688         4    ;  uncertainty k = 0.388643
         5         6         7         8     9        0.000000       -0.205376         1    ;  uncertainty k = 0.293456
         5         6         7         8     9      180.000000       15.303786         2    ;  uncertainty k = 0.258318
         5         6         7         8     9        0.000000       -1.179438         3    ;  uncertainty k = 0.668674
         5         6         7         8     9      180.000000        0.855823         4    ;  uncertainty k = 0.200740
         5         6         7        45     9        0.000000       -0.242896         1    ;  uncertainty k = 0.316168
         5         6         7        45     9      180.000000        6.716576         2    ;  uncertainty k = 0.389680
         5         6         7        45     9        0.000000        1.083796         3    ;  uncertainty k = 0.218618
         5         6         7        45     9      180.000000        1.528150         4    ;  uncertainty k = 0.131961
         5        10         9         8     9        0.000000       -0.205376         1    ;  uncertainty k = 0.293456
         5        10         9         8     9      180.000000       15.303786         2    ;  uncertainty k = 0.258318
         5        10         9         8     9        0.000000       -1.179438         3    ;  uncertainty k = 0.668674
         5        10         9         8     9      180.000000        0.855823         4    ;  uncertainty k = 0.200740
         5        10         9        30     9        0.000000       -0.242896         1    ;  uncertainty k = 0.316168
         5        10         9        30     9      180.000000        6.716576         2    ;  uncertainty k = 0.389680
         5        10         9        30     9        0.000000        1.083796         3    ;  uncertainty k = 0.218618
         5        10         9        30     9      180.000000        1.528150         4    ;  uncertainty k = 0.131961
         6         5         4        13     9        0.000000        0.806876         1    ;  uncertainty k = 0.374790
         6         5         4        13     9      180.000000        4.850396         2    ;  uncertainty k = 0.167849
         6         5         4        13     9        0.000000        0.164361         3    ;  uncertainty k = 0.252959
         6         5         4        13     9      180.000000        0.501682         4    ;  uncertainty k = 0.062041
         6         5        10         9     9        0.000000        0.125829         1    ;  uncertainty k = 0.313127
         6         5        10         9     9      180.000000       11.656921         2    ;  uncertainty k = 0.349528
         6         5        10         9     9        0.000000       -0.768809         3    ;  uncertainty k = 0.347513
         6         5        10         9     9      180.000000        0.828168         4    ;  uncertainty k = 0.306102
         6         5        10        31     9        0.000000        0.319206         1    ;  uncertainty k = 0.304304
         6         5        10        31     9      180.000000        7.507552         2    ;  uncertainty k = 0.508157
         6         5        10        31     9        0.000000        1.579421         3    ;  uncertainty k = 0.197380
         6         5        10        31     9      180.000000        1.691811         4    ;  uncertainty k = 0.204479
         6         7         8         9     9        0.000000       -0.190659         1    ;  uncertainty k = 0.501314
         6         7         8         9     9      180.000000       15.568667         2    ;  uncertainty k = 0.434429
         6         7         8         9     9        0.000000        0.678080         3    ;  uncertainty k = 0.603059
         6         7         8         9     9      180.000000        1.327144         4    ;  uncertainty k = 0.147900
         7         6         5        10     9        0.000000        0.125829         1    ;  uncertainty k = 0.313127
         7         6         5        10     9      180.000000       11.656921         2    ;  uncertainty k = 0.349528
         7         6         5        10     9        0.000000       -0.768809         3    ;  uncertainty k = 0.347513
         7         6         5        10     9      180.000000        0.828168         4    ;  uncertainty k = 0.306102
         7         8         9        10     9        0.000000       -0.190659         1    ;  uncertainty k = 0.501314
         7         8         9        10     9      180.000000       15.568667         2    ;  uncertainty k = 0.434429
         7         8         9        10     9        0.000000        0.678080         3    ;  uncertainty k = 0.603059
         7         8         9        10     9      180.000000        1.327144         4    ;  uncertainty k = 0.147900
         7         8         9        30     9        0.000000        0.172331         1    ;  uncertainty k = 0.269369
         7         8         9        30     9      180.000000       15.380184         2    ;  uncertainty k = 0.327146
         7         8         9        30     9        0.000000        2.061383         3    ;  uncertainty k = 0.609175
         7         8         9        30     9      180.000000        1.577895         4    ;  uncertainty k = 0.233600
         8         7         6        29     9        0.000000       -0.178169         1    ;  uncertainty k = 0.271447
         8         7         6        29     9      180.000000        9.305249         2    ;  uncertainty k = 0.430918
         8         7         6        29     9        0.000000        1.073647         3    ;  uncertainty k = 0.292439
         8         7         6        29     9      180.000000        1.713849         4    ;  uncertainty k = 0.144127
         8         9        10        31     9        0.000000       -0.178169         1    ;  uncertainty k = 0.271447
         8         9        10        31     9      180.000000        9.305249         2    ;  uncertainty k = 0.430918
         8         9        10        31     9        0.000000        1.073647         3    ;  uncertainty k = 0.292439
         8         9        10        31     9      180.000000        1.713849         4    ;  uncertainty k = 0.144127
         9         8         7        45     9        0.000000        0.172331         1    ;  uncertainty k = 0.269369
         9         8         7        45     9      180.000000       15.380184         2    ;  uncertainty k = 0.327146
         9         8         7        45     9        0.000000        2.061383         3    ;  uncertainty k = 0.609175
         9         8         7        45     9      180.000000        1.577895         4    ;  uncertainty k = 0.233600
        10         5         4        13     9        0.000000        0.806876         1    ;  uncertainty k = 0.374790
        10         5         4        13     9      180.000000        4.850396         2    ;  uncertainty k = 0.167849
        10         5         4        13     9        0.000000        0.164361         3    ;  uncertainty k = 0.252959
        10         5         4        13     9      180.000000        0.501682         4    ;  uncertainty k = 0.062041
        10         5         6        29     9        0.000000        0.319206         1    ;  uncertainty k = 0.304304
        10         5         6        29     9      180.000000        7.507552         2    ;  uncertainty k = 0.508157
        10         5         6        29     9        0.000000        1.579421         3    ;  uncertainty k = 0.197380
        10         5         6        29     9      180.000000        1.691811         4    ;  uncertainty k = 0.204479
        11         2         3        28     9        0.000000        0.026161         1    ;  uncertainty k = 0.179044
        11         2         3        28     9      180.000000        7.737370         2    ;  uncertainty k = 0.217516
        11         2         3        28     9        0.000000        1.366016         3    ;  uncertainty k = 0.323834
        11         2         3        28     9      180.000000        1.820934         4    ;  uncertainty k = 0.209437
        11        12        13        14     9        0.000000        0.227869         1    ;  uncertainty k = 0.407721
        11        12        13        14     9      180.000000        9.575141         2    ;  uncertainty k = 0.517720
        11        12        13        14     9        0.000000        1.427900         3    ;  uncertainty k = 0.423771
        11        12        13        14     9      180.000000        1.848542         4    ;  uncertainty k = 0.187074
        12        13        14        15     9        0.000000       -1.236395         1    ;  uncertainty k = 0.401358
        12        13        14        15     9      180.000000        2.755240         2    ;  uncertainty k = 0.263028
        12        13        14        15     9        0.000000        0.047431         3    ;  uncertainty k = 0.065138
        12        13        14        15     9      180.000000        0.277661         4    ;  uncertainty k = 0.053265
        12        13        14        20     9        0.000000       -1.058274         1    ;  uncertainty k = 0.446571
        12        13        14        20     9      180.000000        2.841634         2    ;  uncertainty k = 0.145941
        12        13        14        20     9        0.000000        0.032799         3    ;  uncertainty k = 0.153354
        12        13        14        20     9      180.000000        0.330962         4    ;  uncertainty k = 0.041422
        12        13        14        34     9        0.000000        0.122336         1    ;  uncertainty k = 0.437916
        12        13        14        34     9      180.000000        2.159486         2    ;  uncertainty k = 0.149761
        12        13        14        34     9        0.000000        0.359925         3    ;  uncertainty k = 0.053165
        12        13        14        34     9      180.000000        0.328061         4    ;  uncertainty k = 0.042323
        13         4         3        28     9        0.000000        0.125252         1    ;  uncertainty k = 0.459469
        13         4         3        28     9      180.000000        7.024857         2    ;  uncertainty k = 0.453771
        13         4         3        28     9        0.000000        1.414760         3    ;  uncertainty k = 0.353445
        13         4         3        28     9      180.000000        1.647239         4    ;  uncertainty k = 0.115848
        13        12        11        32     9        0.000000        0.123183         1    ;  uncertainty k = 0.266833
        13        12        11        32     9      180.000000        7.020763         2    ;  uncertainty k = 0.239015
        13        12        11        32     9        0.000000        1.424952         3    ;  uncertainty k = 0.242740
        13        12        11        32     9      180.000000        1.821220         4    ;  uncertainty k = 0.110736
        13        14        15        16     9        0.000000       -2.711778         1    ;  uncertainty k = 0.510895
        13        14        15        16     9      180.000000        0.224518         2    ;  uncertainty k = 0.499748
        13        14        15        16     9        0.000000        0.873236         3    ;  uncertainty k = 0.153142
        13        14        15        16     9      180.000000        0.030386         4    ;  uncertainty k = 0.094505
        13        14        15        35     9        0.000000        0.891863         1    ;  uncertainty k = 0.142160
        13        14        15        35     9      180.000000       -0.493756         2    ;  uncertainty k = 0.250797
        13        14        15        35     9        0.000000        0.825800         3    ;  uncertainty k = 0.101014
        13        14        15        35     9      180.000000       -0.048114         4    ;  uncertainty k = 0.035198
        13        14        15        36     9        0.000000        0.891863         1    ;  uncertainty k = 0.142160
        13        14        15        36     9      180.000000       -0.493756         2    ;  uncertainty k = 0.250797
        13        14        15        36     9        0.000000        0.825800         3    ;  uncertainty k = 0.101014
        13        14        15        36     9      180.000000       -0.048114         4    ;  uncertainty k = 0.035198
        13        14        20        21     9        0.000000       -2.550599         1    ;  uncertainty k = 0.737902
        13        14        20        21     9      180.000000        0.182163         2    ;  uncertainty k = 0.827420
        13        14        20        21     9        0.000000        1.012834         3    ;  uncertainty k = 0.233063
        13        14        20        21     9      180.000000        0.038558         4    ;  uncertainty k = 0.037932
        13        14        20        38     9        0.000000        1.072782         1    ;  uncertainty k = 0.199294
        13        14        20        38     9      180.000000       -0.495384         2    ;  uncertainty k = 0.136241
        13        14        20        38     9        0.000000        0.853904         3    ;  uncertainty k = 0.107393
        13        14        20        38     9      180.000000       -0.045891         4    ;  uncertainty k = 0.062299
        13        14        20        39     9        0.000000        1.072782         1    ;  uncertainty k = 0.199294
        13        14        20        39     9      180.000000       -0.495384         2    ;  uncertainty k = 0.136241
        13        14        20        39     9        0.000000        0.853904         3    ;  uncertainty k = 0.107393
        13        14        20        39     9      180.000000       -0.045891         4    ;  uncertainty k = 0.062299
        14        13        12        33     9        0.000000        0.003006         1    ;  uncertainty k = 0.124283
        14        13        12        33     9      180.000000        8.166819         2    ;  uncertainty k = 0.330488
        14        13        12        33     9        0.000000        0.756498         3    ;  uncertainty k = 0.246514
        14        13        12        33     9      180.000000        1.162478         4    ;  uncertainty k = 0.225423
        14        15        16        17     9        0.000000       -1.631294         1    ;  uncertainty k = 1.347631
        14        15        16        17     9      180.000000        2.819968         2    ;  uncertainty k = 0.711686
        14        15        16        17     9        0.000000        0.149381         3    ;  uncertainty k = 0.386642
        14        15        16        17     9      180.000000        0.415498         4    ;  uncertainty k = 0.163170
        14        15        16        19     9        0.000000       -3.461538         1    ;  uncertainty k = 1.041968
        14        15        16        19     9      180.000000        2.279206         2    ;  uncertainty k = 0.485384
        14        15        16        19     9        0.000000        0.547295         3    ;  uncertainty k = 0.272536
        14        15        16        19     9      180.000000        0.218026         4    ;  uncertainty k = 0.279230
        14        20        21        19     9        0.000000       -2.955163         1    ;  uncertainty k = 1.919614
        14        20        21        19     9      180.000000        3.243695         2    ;  uncertainty k = 1.282483
        14        20        21        19     9        0.000000       -0.176591         3    ;  uncertainty k = 0.322000
        14        20        21        19     9      180.000000        0.550809         4    ;  uncertainty k = 0.262937
        14        20        21        22     9        0.000000       -2.688645         1    ;  uncertainty k = 1.751436
        14        20        21        22     9      180.000000        3.223908         2    ;  uncertainty k = 0.447826
        14        20        21        22     9        0.000000        0.530658         3    ;  uncertainty k = 0.401879
        14        20        21        22     9      180.000000        0.393401         4    ;  uncertainty k = 0.187166
        15        14        20        21     9        0.000000       -0.481940         1    ;  uncertainty k = 1.329874
        15        14        20        21     9      180.000000       -0.899526         2    ;  uncertainty k = 0.781562
        15        14        20        21     9        0.000000        0.763154         3    ;  uncertainty k = 0.321688
        15        14        20        21     9      180.000000       -0.434826         4    ;  uncertainty k = 0.208830
        15        14        20        38     9        0.000000       -0.438651         1    ;  uncertainty k = 0.256270
        15        14        20        38     9      180.000000       -0.735675         2    ;  uncertainty k = 0.249709
        15        14        20        38     9        0.000000        0.244633         3    ;  uncertainty k = 0.088314
        15        14        20        38     9      180.000000        0.105236         4    ;  uncertainty k = 0.109145
        15        14        20        39     9        0.000000       -0.438651         1    ;  uncertainty k = 0.256270
        15        14        20        39     9      180.000000       -0.735675         2    ;  uncertainty k = 0.249709
        15        14        20        39     9        0.000000        0.244633         3    ;  uncertainty k = 0.088314
        15        14        20        39     9      180.000000        0.105236         4    ;  uncertainty k = 0.109145
        15        16        17        18     9        0.000000        6.640027         1    ;  uncertainty k = 2.537065
        15        16        17        18     9      180.000000       45.146030         2    ;  uncertainty k = 0.172354
        15        16        17        18     9        0.000000        1.375936         3    ;  uncertainty k = 1.257984
        15        16        17        18     9      180.000000       -0.484198         4    ;  uncertainty k = 0.502506
        15        16        19        21     9        0.000000       -1.968261         1    ;  uncertainty k = 1.933592
        15        16        19        21     9      180.000000        2.536386         2    ;  uncertainty k = 0.703482
        15        16        19        21     9        0.000000       -0.268290         3    ;  uncertainty k = 0.256087
        15        16        19        21     9      180.000000        0.074273         4    ;  uncertainty k = 0.211813
        15        16        19        26     9        0.000000       -3.403021         1    ;  uncertainty k = 1.504083
        15        16        19        26     9      180.000000        3.186093         2    ;  uncertainty k = 0.704306
        15        16        19        26     9        0.000000        0.041987         3    ;  uncertainty k = 0.324326
        15        16        19        26     9      180.000000        0.131128         4    ;  uncertainty k = 0.211423
        16        15        14        20     9        0.000000       -2.243130         1    ;  uncertainty k = 1.461995
        16        15        14        20     9      180.000000       -0.228369         2    ;  uncertainty k = 0.751886
        16        15        14        20     9        0.000000        0.591296         3    ;  uncertainty k = 0.284685
        16        15        14        20     9      180.000000       -0.428883         4    ;  uncertainty k = 0.141447
        16        15        14        34     9        0.000000       -0.965211         1    ;  uncertainty k = 0.587263
        16        15        14        34     9      180.000000       -0.471431         2    ;  uncertainty k = 0.312771
        16        15        14        34     9        0.000000        0.502941         3    ;  uncertainty k = 0.224192
        16        15        14        34     9      180.000000       -0.014698         4    ;  uncertainty k = 0.110916
        16        17        18        37     9        0.000000       -0.514746         1    ;  uncertainty k = 1.082545
        16        17        18        37     9      180.000000       11.253069         2    ;  uncertainty k = 0.197862
        16        17        18        37     9        0.000000        0.335412         3    ;  uncertainty k = 0.336749
        16        17        18        37     9      180.000000       -0.149950         4    ;  uncertainty k = 0.268482
        16        19        21        20     9        0.000000       -0.351495         1    ;  uncertainty k = 0.571784
        16        19        21        20     9      180.000000        5.547387         2    ;  uncertainty k = 0.849140
        16        19        21        20     9        0.000000        0.712529         3    ;  uncertainty k = 0.347529
        16        19        21        20     9      180.000000        1.354926         4    ;  uncertainty k = 0.342316
        16        19        21        22     9        0.000000        0.419160         1    ;  uncertainty k = 0.692401
        16        19        21        22     9      180.000000        7.253415         2    ;  uncertainty k = 0.538745
        16        19        21        22     9        0.000000        0.689941         3    ;  uncertainty k = 0.415909
        16        19        21        22     9      180.000000        1.738244         4    ;  uncertainty k = 0.319965
        16        19        26        25     9        0.000000        0.445367         1    ;  uncertainty k = 0.809384
        16        19        26        25     9      180.000000        7.561495         2    ;  uncertainty k = 0.569990
        16        19        26        25     9        0.000000        1.037783         3    ;  uncertainty k = 0.265107
        16        19        26        25     9      180.000000        1.767024         4    ;  uncertainty k = 0.277313
        16        19        26        27     9        0.000000       -0.564662         1    ;  uncertainty k = 0.802801
        16        19        26        27     9      180.000000        6.561939         2    ;  uncertainty k = 0.420448
        16        19        26        27     9        0.000000        0.804414         3    ;  uncertainty k = 0.415549
        16        19        26        27     9      180.000000        1.151595         4    ;  uncertainty k = 0.239110
        17        16        15        35     9        0.000000        2.295482         1    ;  uncertainty k = 0.502611
        17        16        15        35     9      180.000000        4.153545         2    ;  uncertainty k = 0.605516
        17        16        15        35     9        0.000000        0.151060         3    ;  uncertainty k = 0.119024
        17        16        15        35     9      180.000000        0.031216         4    ;  uncertainty k = 0.218015
        17        16        15        36     9        0.000000        2.295482         1    ;  uncertainty k = 0.502611
        17        16        15        36     9      180.000000        4.153545         2    ;  uncertainty k = 0.605516
        17        16        15        36     9        0.000000        0.151060         3    ;  uncertainty k = 0.119024
        17        16        15        36     9      180.000000        0.031216         4    ;  uncertainty k = 0.218015
        17        16        19        21     9        0.000000        1.246252         1    ;  uncertainty k = 2.529750
        17        16        19        21     9      180.000000        4.015056         2    ;  uncertainty k = 0.605916
        17        16        19        21     9        0.000000        0.631658         3    ;  uncertainty k = 0.464166
        17        16        19        21     9      180.000000       -0.179748         4    ;  uncertainty k = 0.292208
        17        16        19        26     9        0.000000        0.272889         1    ;  uncertainty k = 1.687053
        17        16        19        26     9      180.000000        4.620500         2    ;  uncertainty k = 0.238752
        17        16        19        26     9        0.000000        0.568204         3    ;  uncertainty k = 0.406557
        17        16        19        26     9      180.000000       -0.135078         4    ;  uncertainty k = 0.294144
        18        17        16        19     9        0.000000       -0.236048         1    ;  uncertainty k = 2.195517
        18        17        16        19     9      180.000000       36.214167         2    ;  uncertainty k = 0.476471
        18        17        16        19     9        0.000000        3.933111         3    ;  uncertainty k = 1.286901
        18        17        16        19     9      180.000000        0.327484         4    ;  uncertainty k = 1.983576
        19        16        15        35     9        0.000000       -0.487345         1    ;  uncertainty k = 0.548243
        19        16        15        35     9      180.000000        2.287410         2    ;  uncertainty k = 0.958373
        19        16        15        35     9        0.000000        0.812567         3    ;  uncertainty k = 0.250612
        19        16        15        35     9      180.000000        0.168105         4    ;  uncertainty k = 0.147890
        19        16        15        36     9        0.000000       -0.487345         1    ;  uncertainty k = 0.548243
        19        16        15        36     9      180.000000        2.287410         2    ;  uncertainty k = 0.958373
        19        16        15        36     9        0.000000        0.812567         3    ;  uncertainty k = 0.250612
        19        16        15        36     9      180.000000        0.168105         4    ;  uncertainty k = 0.147890
        19        21        20        38     9        0.000000       -1.012157         1    ;  uncertainty k = 0.694002
        19        21        20        38     9      180.000000        3.099092         2    ;  uncertainty k = 0.405185
        19        21        20        38     9        0.000000        0.483673         3    ;  uncertainty k = 0.221693
        19        21        20        38     9      180.000000        0.185812         4    ;  uncertainty k = 0.059113
        19        21        20        39     9        0.000000       -1.012157         1    ;  uncertainty k = 0.694002
        19        21        20        39     9      180.000000        3.099092         2    ;  uncertainty k = 0.405185
        19        21        20        39     9        0.000000        0.483673         3    ;  uncertainty k = 0.221693
        19        21        20        39     9      180.000000        0.185812         4    ;  uncertainty k = 0.059113
        19        21        22        23     9        0.000000       -0.569880         1    ;  uncertainty k = 1.141472
        19        21        22        23     9      180.000000       15.205357         2    ;  uncertainty k = 0.566956
        19        21        22        23     9        0.000000        0.193978         3    ;  uncertainty k = 0.700767
        19        21        22        23     9      180.000000        1.451318         4    ;  uncertainty k = 0.290893
        19        26        25        23     9        0.000000       -0.941806         1    ;  uncertainty k = 0.701286
        19        26        25        23     9      180.000000       14.288563         2    ;  uncertainty k = 0.590726
        19        26        25        23     9        0.000000        0.682968         3    ;  uncertainty k = 0.795542
        19        26        25        23     9      180.000000        1.478145         4    ;  uncertainty k = 0.575126
        19        26        27        42     9        0.000000        0.259047         1    ;  uncertainty k = 0.394428
        19        26        27        42     9      180.000000        3.763858         2    ;  uncertainty k = 0.313658
        19        26        27        42     9        0.000000        0.127772         3    ;  uncertainty k = 0.040355
        19        26        27        42     9      180.000000        0.289344         4    ;  uncertainty k = 0.056743
        19        26        27        43     9        0.000000        0.259047         1    ;  uncertainty k = 0.394428
        19        26        27        43     9      180.000000        3.763858         2    ;  uncertainty k = 0.313658
        19        26        27        43     9        0.000000        0.127772         3    ;  uncertainty k = 0.040355
        19        26        27        43     9      180.000000        0.289344         4    ;  uncertainty k = 0.056743
        19        26        27        44     9        0.000000        0.259047         1    ;  uncertainty k = 0.394428
        19        26        27        44     9      180.000000        3.763858         2    ;  uncertainty k = 0.313658
        19        26        27        44     9        0.000000        0.127772         3    ;  uncertainty k = 0.040355
        19        26        27        44     9      180.000000        0.289344         4    ;  uncertainty k = 0.056743
        20        14        15        35     9        0.000000       -0.582328         1    ;  uncertainty k = 0.315439
        20        14        15        35     9      180.000000       -0.750871         2    ;  uncertainty k = 0.202716
        20        14        15        35     9        0.000000        0.196446         3    ;  uncertainty k = 0.088847
        20        14        15        35     9      180.000000        0.050639         4    ;  uncertainty k = 0.051995
        20        14        15        36     9        0.000000       -0.582328         1    ;  uncertainty k = 0.315439
        20        14        15        36     9      180.000000       -0.750871         2    ;  uncertainty k = 0.202716
        20        14        15        36     9        0.000000        0.196446         3    ;  uncertainty k = 0.088847
        20        14        15        36     9      180.000000        0.050639         4    ;  uncertainty k = 0.051995
        20        21        19        26     9        0.000000        0.022992         1    ;  uncertainty k = 0.470797
        20        21        19        26     9      180.000000        4.261956         2    ;  uncertainty k = 0.870956
        20        21        19        26     9        0.000000        0.864705         3    ;  uncertainty k = 0.282328
        20        21        19        26     9      180.000000        1.429790         4    ;  uncertainty k = 0.433861
        20        21        22        23     9        0.000000        0.203232         1    ;  uncertainty k = 1.274627
        20        21        22        23     9      180.000000       17.249609         2    ;  uncertainty k = 0.653216
        20        21        22        23     9        0.000000        1.490485         3    ;  uncertainty k = 0.699727
        20        21        22        23     9      180.000000        1.431605         4    ;  uncertainty k = 0.547646
        21        19        26        25     9        0.000000        0.480565         1    ;  uncertainty k = 0.612429
        21        19        26        25     9      180.000000        8.606537         2    ;  uncertainty k = 0.676306
        21        19        26        25     9        0.000000       -0.088422         3    ;  uncertainty k = 0.457630
        21        19        26        25     9      180.000000        1.175507         4    ;  uncertainty k = 0.391954
        21        19        26        27     9        0.000000       -0.455902         1    ;  uncertainty k = 0.887706
        21        19        26        27     9      180.000000        4.489311         2    ;  uncertainty k = 0.952603
        21        19        26        27     9        0.000000        0.822559         3    ;  uncertainty k = 0.339733
        21        19        26        27     9      180.000000        1.126314         4    ;  uncertainty k = 0.144634
        21        20        14        34     9        0.000000       -0.820126         1    ;  uncertainty k = 0.731827
        21        20        14        34     9      180.000000       -0.072160         2    ;  uncertainty k = 0.266630
        21        20        14        34     9        0.000000        0.493567         3    ;  uncertainty k = 0.163130
        21        20        14        34     9      180.000000        0.029316         4    ;  uncertainty k = 0.061391
        21        22        23        24     9        0.000000        1.202746         1    ;  uncertainty k = 1.372754
        21        22        23        24     9      180.000000        9.607805         2    ;  uncertainty k = 0.473413
        21        22        23        24     9        0.000000        2.167433         3    ;  uncertainty k = 0.395551
        21        22        23        24     9      180.000000        0.826406         4    ;  uncertainty k = 0.246249
        21        22        23        25     9        0.000000        0.218431         1    ;  uncertainty k = 1.789727
        21        22        23        25     9      180.000000        6.958171         2    ;  uncertainty k = 1.063501
        21        22        23        25     9        0.000000        0.838166         3    ;  uncertainty k = 0.267049
        21        22        23        25     9      180.000000        0.657016         4    ;  uncertainty k = 0.074490
        22        21        19        26     9        0.000000        0.309327         1    ;  uncertainty k = 0.477753
        22        21        19        26     9      180.000000        8.033128         2    ;  uncertainty k = 0.605212
        22        21        19        26     9        0.000000       -0.084435         3    ;  uncertainty k = 0.159827
        22        21        19        26     9      180.000000        1.313043         4    ;  uncertainty k = 0.245391
        22        21        20        38     9        0.000000        1.868200         1    ;  uncertainty k = 0.940710
        22        21        20        38     9      180.000000        3.681327         2    ;  uncertainty k = 0.251043
        22        21        20        38     9        0.000000        0.305477         3    ;  uncertainty k = 0.279011
        22        21        20        38     9      180.000000        0.237940         4    ;  uncertainty k = 0.089761
        22        21        20        39     9        0.000000        1.868200         1    ;  uncertainty k = 0.940710
        22        21        20        39     9      180.000000        3.681327         2    ;  uncertainty k = 0.251043
        22        21        20        39     9        0.000000        0.305477         3    ;  uncertainty k = 0.279011
        22        21        20        39     9      180.000000        0.237940         4    ;  uncertainty k = 0.089761
        22        23        24        40     9        0.000000       20.054934         1    ;  uncertainty k = 0.271416
        22        23        24        40     9      180.000000       11.122135         2    ;  uncertainty k = 0.198074
        22        23        24        40     9        0.000000        1.036002         3    ;  uncertainty k = 0.243769
        22        23        24        40     9      180.000000       -0.419666         4    ;  uncertainty k = 0.168834
        22        23        24        41     9        0.000000       20.054934         1    ;  uncertainty k = 0.271416
        22        23        24        41     9      180.000000       11.122135         2    ;  uncertainty k = 0.198074
        22        23        24        41     9        0.000000        1.036002         3    ;  uncertainty k = 0.243769
        22        23        24        41     9      180.000000       -0.419666         4    ;  uncertainty k = 0.168834
        22        23        25        26     9        0.000000       -0.218256         1    ;  uncertainty k = 1.291881
        22        23        25        26     9      180.000000        6.876945         2    ;  uncertainty k = 0.940938
        22        23        25        26     9        0.000000        0.728585         3    ;  uncertainty k = 0.505236
        22        23        25        26     9      180.000000        0.680204         4    ;  uncertainty k = 0.093411
        23        25        26        27     9        0.000000        0.517008         1    ;  uncertainty k = 0.804234
        23        25        26        27     9      180.000000       16.257214         2    ;  uncertainty k = 0.500976
        23        25        26        27     9        0.000000        2.289223         3    ;  uncertainty k = 0.321921
        23        25        26        27     9      180.000000        1.636862         4    ;  uncertainty k = 0.504078
        24        23        25        26     9        0.000000        1.208470         1    ;  uncertainty k = 1.519936
        24        23        25        26     9      180.000000        8.727299         2    ;  uncertainty k = 0.175158
        24        23        25        26     9        0.000000        2.101019         3    ;  uncertainty k = 0.443649
        24        23        25        26     9      180.000000        0.899683         4    ;  uncertainty k = 0.241562
        25        23        24        40     9        0.000000       20.651679         1    ;  uncertainty k = 0.452891
        25        23        24        40     9      180.000000       11.324182         2    ;  uncertainty k = 0.280575
        25        23        24        40     9        0.000000        0.996208         3    ;  uncertainty k = 0.165865
        25        23        24        40     9      180.000000       -0.440881         4    ;  uncertainty k = 0.167646
        25        23        24        41     9        0.000000       20.651679         1    ;  uncertainty k = 0.452891
        25        23        24        41     9      180.000000       11.324182         2    ;  uncertainty k = 0.280575
        25        23        24        41     9        0.000000        0.996208         3    ;  uncertainty k = 0.165865
        25        23        24        41     9      180.000000       -0.440881         4    ;  uncertainty k = 0.167646
        25        26        27        42     9        0.000000        0.223396         1    ;  uncertainty k = 0.342352
        25        26        27        42     9      180.000000        4.413775         2    ;  uncertainty k = 0.237647
        25        26        27        42     9        0.000000        0.674297         3    ;  uncertainty k = 0.087544
        25        26        27        42     9      180.000000        0.371038         4    ;  uncertainty k = 0.069501
        25        26        27        43     9        0.000000        0.223396         1    ;  uncertainty k = 0.342352
        25        26        27        43     9      180.000000        4.413775         2    ;  uncertainty k = 0.237647
        25        26        27        43     9        0.000000        0.674297         3    ;  uncertainty k = 0.087544
        25        26        27        43     9      180.000000        0.371038         4    ;  uncertainty k = 0.069501
        25        26        27        44     9        0.000000        0.223396         1    ;  uncertainty k = 0.342352
        25        26        27        44     9      180.000000        4.413775         2    ;  uncertainty k = 0.237647
        25        26        27        44     9        0.000000        0.674297         3    ;  uncertainty k = 0.087544
        25        26        27        44     9      180.000000        0.371038         4    ;  uncertainty k = 0.069501
        29         6         7        45     9        0.000000       -0.537174         1    ;  uncertainty k = 0.385448
        29         6         7        45     9      180.000000        6.735992         2    ;  uncertainty k = 0.268251
        29         6         7        45     9        0.000000       -0.171065         3    ;  uncertainty k = 0.174540
        29         6         7        45     9      180.000000        0.306208         4    ;  uncertainty k = 0.077352
        30         9        10        31     9        0.000000       -0.537174         1    ;  uncertainty k = 0.385448
        30         9        10        31     9      180.000000        6.735992         2    ;  uncertainty k = 0.268251
        30         9        10        31     9        0.000000       -0.171065         3    ;  uncertainty k = 0.174540
        30         9        10        31     9      180.000000        0.306208         4    ;  uncertainty k = 0.077352
        32        11        12        33     9        0.000000       -0.021922         1    ;  uncertainty k = 0.115432
        32        11        12        33     9      180.000000        7.841865         2    ;  uncertainty k = 0.223805
        32        11        12        33     9        0.000000       -0.472004         3    ;  uncertainty k = 0.327377
        32        11        12        33     9      180.000000        0.162856         4    ;  uncertainty k = 0.152675
        34        14        15        35     9        0.000000        1.015875         1    ;  uncertainty k = 0.257480
        34        14        15        35     9      180.000000       -0.086527         2    ;  uncertainty k = 0.243797
        34        14        15        35     9        0.000000        0.084680         3    ;  uncertainty k = 0.114741
        34        14        15        35     9      180.000000        0.036730         4    ;  uncertainty k = 0.081513
        34        14        15        36     9        0.000000        1.015875         1    ;  uncertainty k = 0.257480
        34        14        15        36     9      180.000000       -0.086527         2    ;  uncertainty k = 0.243797
        34        14        15        36     9        0.000000        0.084680         3    ;  uncertainty k = 0.114741
        34        14        15        36     9      180.000000        0.036730         4    ;  uncertainty k = 0.081513
        34        14        20        38     9        0.000000        0.908188         1    ;  uncertainty k = 0.266376
        34        14        20        38     9      180.000000       -0.112103         2    ;  uncertainty k = 0.314879
        34        14        20        38     9        0.000000        0.101891         3    ;  uncertainty k = 0.081024
        34        14        20        38     9      180.000000        0.071320         4    ;  uncertainty k = 0.072464
        34        14        20        39     9        0.000000        0.908188         1    ;  uncertainty k = 0.266376
        34        14        20        39     9      180.000000       -0.112103         2    ;  uncertainty k = 0.314879
        34        14        20        39     9        0.000000        0.101891         3    ;  uncertainty k = 0.081024
        34        14        20        39     9      180.000000        0.071320         4    ;  uncertainty k = 0.072464

[ dihedrals ] ; impropers
;       ai        aj        ak        al funct           phase               k        pn
         2         1         3        11     4      180.000000        3.692605         2    ;  uncertainty k = 0.105308
         2         3        11         1     4      180.000000        3.692605         2    ;  uncertainty k = 0.105308
         2        11         1         3     4      180.000000        3.692605         2    ;  uncertainty k = 0.105308
         3         2         4        28     4      180.000000        3.785539         2    ;  uncertainty k = 0.147918
         3         4        28         2     4      180.000000        3.785539         2    ;  uncertainty k = 0.147918
         3        28         2         4     4      180.000000        3.785539         2    ;  uncertainty k = 0.147918
         4         3         5        13     4      180.000000       16.035616         2    ;  uncertainty k = 0.159737
         4         5        13         3     4      180.000000       16.035616         2    ;  uncertainty k = 0.159737
         4        13         3         5     4      180.000000       16.035616         2    ;  uncertainty k = 0.159737
         5         4         6        10     4      180.000000       17.717069         2    ;  uncertainty k = 0.169909
         5         6        10         4     4      180.000000       17.717069         2    ;  uncertainty k = 0.169909
         5        10         4         6     4      180.000000       17.717069         2    ;  uncertainty k = 0.169909
         6         5         7        29     4      180.000000        3.030205         2    ;  uncertainty k = 0.414042
         6         7        29         5     4      180.000000        3.030205         2    ;  uncertainty k = 0.414042
         6        29         5         7     4      180.000000        3.030205         2    ;  uncertainty k = 0.414042
         7         6         8        45     4      180.000000       13.705348         2    ;  uncertainty k = 0.031948
         7         8        45         6     4      180.000000       13.705348         2    ;  uncertainty k = 0.031948
         7        45         6         8     4      180.000000       13.705348         2    ;  uncertainty k = 0.031948
         9         8        10        30     4      180.000000       13.705348         2    ;  uncertainty k = 0.031948
         9        10        30         8     4      180.000000       13.705348         2    ;  uncertainty k = 0.031948
         9        30         8        10     4      180.000000       13.705348         2    ;  uncertainty k = 0.031948
        10         5         9        31     4      180.000000        3.030205         2    ;  uncertainty k = 0.414042
        10         9        31         5     4      180.000000        3.030205         2    ;  uncertainty k = 0.414042
        10        31         5         9     4      180.000000        3.030205         2    ;  uncertainty k = 0.414042
        11         2        12        32     4      180.000000        3.912087         2    ;  uncertainty k = 0.135146
        11        12        32         2     4      180.000000        3.912087         2    ;  uncertainty k = 0.135146
        11        32         2        12     4      180.000000        3.912087         2    ;  uncertainty k = 0.135146
        12        11        13        33     4      180.000000        3.767785         2    ;  uncertainty k = 0.301117
        12        13        33        11     4      180.000000        3.767785         2    ;  uncertainty k = 0.301117
        12        33        11        13     4      180.000000        3.767785         2    ;  uncertainty k = 0.301117
        13         4        12        14     4      180.000000       15.380805         2    ;  uncertainty k = 0.147329
        13        12        14         4     4      180.000000       15.380805         2    ;  uncertainty k = 0.147329
        13        14         4        12     4      180.000000       15.380805         2    ;  uncertainty k = 0.147329
        16        15        17        19     4      180.000000       20.140377         2    ;  uncertainty k = 0.038065
        16        17        19        15     4      180.000000       20.140377         2    ;  uncertainty k = 0.038065
        16        19        15        17     4      180.000000       20.140377         2    ;  uncertainty k = 0.038065
        19        16        21        26     4      180.000000        7.009766         2    ;  uncertainty k = 0.510332
        19        21        26        16     4      180.000000        7.009766         2    ;  uncertainty k = 0.510332
        19        26        16        21     4      180.000000        7.009766         2    ;  uncertainty k = 0.510332
        21        19        20        22     4      180.000000       30.864079         2    ;  uncertainty k = 0.115894
        21        20        22        19     4      180.000000       30.864079         2    ;  uncertainty k = 0.115894
        21        22        19        20     4      180.000000       30.864079         2    ;  uncertainty k = 0.115894
        23        22        24        25     4      180.000000       47.643324         2    ;  uncertainty k = 0.088982
        23        24        25        22     4      180.000000       47.643324         2    ;  uncertainty k = 0.088982
        23        25        22        24     4      180.000000       47.643324         2    ;  uncertainty k = 0.088982
        24        23        40        41     4      180.000000        0.305102         2    ;  uncertainty k = 0.433595
        24        40        41        23     4      180.000000        0.305102         2    ;  uncertainty k = 0.433595
        24        41        23        40     4      180.000000        0.305102         2    ;  uncertainty k = 0.433595
        26        19        25        27     4      180.000000       31.633238         2    ;  uncertainty k = 0.098581
        26        25        27        19     4      180.000000       31.633238         2    ;  uncertainty k = 0.098581
        26        27        19        25     4      180.000000       31.633238         2    ;  uncertainty k = 0.098581

[ pairs ]
;       ai        aj funct
         1         4     1
         1        12     1
         1        28     1
         1        32     1
         2         5     1
         2        13     1
         2        33     1
         3         6     1
         3        10     1
         3        12     1
         3        14     1
         3        32     1
         4         7     1
         4         9     1
         4        11     1
         4        15     1
         4        20     1
         4        29     1
         4        31     1
         4        33     1
         4        34     1
         5         8     1
         5        12     1
         5        14     1
         5        28     1
         5        30     1
         5        45     1
         6         9     1
         6        13     1
         6        31     1
         7        10     1
         7        30     1
         8        29     1
         8        31     1
         9        45     1
        10        13     1
        10        29     1
        11        14     1
        11        28     1
        12        15     1
        12        20     1
        12        34     1
        13        16     1
        13        21     1
        13        28     1
        13        32     1
        13        35     1
        13        36     1
        13        38     1
        13        39     1
        14        17     1
        14        19     1
        14        22     1
        14        33     1
        15        18     1
        15        21     1
        15        26     1
        15        38     1
        15        39     1
        16        20     1
        16        22     1
        16        25     1
        16        27     1
        16        34     1
        16        37     1
        17        21     1
        17        26     1
        17        35     1
        17        36     1
        18        19     1
        19        23     1
        19        35     1
        19        36     1
        19        38     1
        19        39     1
        19        42     1
        19        43     1
        19        44     1
        20        23     1
        20        26     1
        20        35     1
        20        36     1
        21        24     1
        21        25     1
        21        27     1
        21        34     1
        22        26     1
        22        38     1
        22        39     1
        22        40     1
        22        41     1
        23        27     1
        24        26     1
        25        40     1
        25        41     1
        25        42     1
        25        43     1
        25        44     1
        29        45     1
        30        31     1
        32        33     1
        34        35     1
        34        36     1
        34        38     1
        34        39     1
