; ITP file created by ByteFF-joint-25, 2025-07-14 11:27:51.474488

[ atomtypes ]
;name           bonded.type        at.num        mass        charge   ptype           sigma         epsilon
 h0bf                                   1      0.0000       0.00000       A     2.62559e-01     6.70250e-02    ;  uncertainty sigma = 0.000010, epsilon = 0.000440
 c1bf                                   6      0.0000       0.00000       A     3.31519e-01     4.13367e-01    ;  uncertainty sigma = 0.000003, epsilon = 0.000605
 c2bf                                   6      0.0000       0.00000       A     3.31514e-01     4.13147e-01    ;  uncertainty sigma = 0.000005, epsilon = 0.000543
 c3bf                                   6      0.0000       0.00000       A     3.31538e-01     4.13253e-01    ;  uncertainty sigma = 0.000006, epsilon = 0.000725
 c4bf                                   6      0.0000       0.00000       A     3.31524e-01     4.12727e-01    ;  uncertainty sigma = 0.000007, epsilon = 0.000686
 c5bf                                   6      0.0000       0.00000       A     3.31514e-01     4.13391e-01    ;  uncertainty sigma = 0.000006, epsilon = 0.000540
 n6bf                                   7      0.0000       0.00000       A     3.38406e-01     3.93558e-01    ;  uncertainty sigma = 0.000008, epsilon = 0.000926
 c7bf                                   6      0.0000       0.00000       A     3.31524e-01     4.13109e-01    ;  uncertainty sigma = 0.000005, epsilon = 0.000496
 c8bf                                   6      0.0000       0.00000       A     3.31520e-01     4.13305e-01    ;  uncertainty sigma = 0.000007, epsilon = 0.000588
 c9bf                                   6      0.0000       0.00000       A     3.31516e-01     4.13371e-01    ;  uncertainty sigma = 0.000001, epsilon = 0.000698
 c10bf                                  6      0.0000       0.00000       A     3.31517e-01     4.13301e-01    ;  uncertainty sigma = 0.000003, epsilon = 0.000559
 c11bf                                  6      0.0000       0.00000       A     3.31517e-01     4.13137e-01    ;  uncertainty sigma = 0.000006, epsilon = 0.000608
 c12bf                                  6      0.0000       0.00000       A     3.31508e-01     4.13242e-01    ;  uncertainty sigma = 0.000008, epsilon = 0.001056
 c13bf                                  6      0.0000       0.00000       A     3.39818e-01     4.50546e-01    ;  uncertainty sigma = 0.000009, epsilon = 0.000796
 c14bf                                  6      0.0000       0.00000       A     3.39767e-01     4.50747e-01    ;  uncertainty sigma = 0.000014, epsilon = 0.000949
 c15bf                                  6      0.0000       0.00000       A     3.31488e-01     4.13161e-01    ;  uncertainty sigma = 0.000028, epsilon = 0.002203
 n16bf                                  7      0.0000       0.00000       A     3.38394e-01     3.92793e-01    ;  uncertainty sigma = 0.000033, epsilon = 0.002769
 o17bf                                  8      0.0000       0.00000       A     3.24285e-01     3.88037e-01    ;  uncertainty sigma = 0.000023, epsilon = 0.001869
 c18bf                                  6      0.0000       0.00000       A     3.31531e-01     4.13066e-01    ;  uncertainty sigma = 0.000011, epsilon = 0.000641
 c19bf                                  6      0.0000       0.00000       A     3.39754e-01     4.50880e-01    ;  uncertainty sigma = 0.000011, epsilon = 0.001039
 c20bf                                  6      0.0000       0.00000       A     3.31534e-01     4.12744e-01    ;  uncertainty sigma = 0.000023, epsilon = 0.000730
 n21bf                                  7      0.0000       0.00000       A     3.38441e-01     3.93298e-01    ;  uncertainty sigma = 0.000034, epsilon = 0.001875
 c22bf                                  6      0.0000       0.00000       A     3.31537e-01     4.13073e-01    ;  uncertainty sigma = 0.000017, epsilon = 0.001187
 n23bf                                  7      0.0000       0.00000       A     3.36867e-01     4.69651e-01    ;  uncertainty sigma = 0.000042, epsilon = 0.002086
 n24bf                                  7      0.0000       0.00000       A     3.38459e-01     3.94097e-01    ;  uncertainty sigma = 0.000017, epsilon = 0.000959
 c25bf                                  6      0.0000       0.00000       A     3.31528e-01     4.12772e-01    ;  uncertainty sigma = 0.000011, epsilon = 0.000736
 c26bf                                  6      0.0000       0.00000       A     3.39785e-01     4.51049e-01    ;  uncertainty sigma = 0.000008, epsilon = 0.000698
 h27bf                                  1      0.0000       0.00000       A     2.62566e-01     6.70292e-02    ;  uncertainty sigma = 0.000012, epsilon = 0.000344
 h28bf                                  1      0.0000       0.00000       A     2.53644e-01     6.67557e-02    ;  uncertainty sigma = 0.000027, epsilon = 0.000598
 h29bf                                  1      0.0000       0.00000       A     2.53636e-01     6.70819e-02    ;  uncertainty sigma = 0.000013, epsilon = 0.000406
 h30bf                                  1      0.0000       0.00000       A     2.62565e-01     6.71316e-02    ;  uncertainty sigma = 0.000013, epsilon = 0.000533
 h31bf                                  1      0.0000       0.00000       A     2.62564e-01     6.70712e-02    ;  uncertainty sigma = 0.000018, epsilon = 0.000644
 h32bf                                  1      0.0000       0.00000       A     2.62559e-01     6.70250e-02    ;  uncertainty sigma = 0.000010, epsilon = 0.000440
 h33bf                                  1      0.0000       0.00000       A     2.62555e-01     6.69955e-02    ;  uncertainty sigma = 0.000015, epsilon = 0.000288
 h34bf                                  1      0.0000       0.00000       A     2.59984e-01     8.70696e-02    ;  uncertainty sigma = 0.000070, epsilon = 0.000845
 h35bf                                  1      0.0000       0.00000       A     2.59998e-01     8.66362e-02    ;  uncertainty sigma = 0.000030, epsilon = 0.000898
 h36bf                                  1      0.0000       0.00000       A     2.59998e-01     8.66362e-02    ;  uncertainty sigma = 0.000030, epsilon = 0.000898
 h37bf                                  1      0.0000       0.00000       A     5.38150e-02     1.95465e-02    ;  uncertainty sigma = 0.000051, epsilon = 0.001777
 h38bf                                  1      0.0000       0.00000       A     2.60043e-01     8.67081e-02    ;  uncertainty sigma = 0.000017, epsilon = 0.001169
 h39bf                                  1      0.0000       0.00000       A     2.60043e-01     8.67081e-02    ;  uncertainty sigma = 0.000017, epsilon = 0.001169
 h40bf                                  1      0.0000       0.00000       A     1.10707e-01     4.06772e-02    ;  uncertainty sigma = 0.000046, epsilon = 0.001139
 h41bf                                  1      0.0000       0.00000       A     1.10707e-01     4.06772e-02    ;  uncertainty sigma = 0.000046, epsilon = 0.001139
 h42bf                                  1      0.0000       0.00000       A     2.60035e-01     8.66577e-02    ;  uncertainty sigma = 0.000008, epsilon = 0.000584
 h43bf                                  1      0.0000       0.00000       A     2.60035e-01     8.66577e-02    ;  uncertainty sigma = 0.000008, epsilon = 0.000584
 h44bf                                  1      0.0000       0.00000       A     2.60035e-01     8.66577e-02    ;  uncertainty sigma = 0.000008, epsilon = 0.000584

[ moleculetype ]
;name             nrexcl
 MOL                   3

[ atoms ]
;       nr            type      resi   res      atom      cgnr      charge          mass ; qtot
         1            h0bf         1   UNL        h0         1     0.13674        1.0080 ; qtot    0.137
         2            c1bf         1   UNL        c1         2    -0.12950       12.0110 ; qtot    0.007
         3            c2bf         1   UNL        c2         3    -0.11812       12.0110 ; qtot   -0.111
         4            c3bf         1   UNL        c3         4    -0.03629       12.0110 ; qtot   -0.147
         5            c4bf         1   UNL        c4         5    -0.15889       12.0110 ; qtot   -0.306
         6            c5bf         1   UNL        c5         6     0.40667       12.0110 ; qtot    0.101
         7            n6bf         1   UNL        n6         7    -0.66167       14.0070 ; qtot   -0.561
         8            c7bf         1   UNL        c7         8     0.39854       12.0110 ; qtot   -0.163
         9            c8bf         1   UNL        c8         9    -0.24795       12.0110 ; qtot   -0.410
        10            c9bf         1   UNL        c9        10    -0.08319       12.0110 ; qtot   -0.494
        11           c10bf         1   UNL       c10        11    -0.12099       12.0110 ; qtot   -0.615
        12           c11bf         1   UNL       c11        12    -0.12798       12.0110 ; qtot   -0.743
        13           c12bf         1   UNL       c12        13    -0.06470       12.0110 ; qtot   -0.807
        14           c13bf         1   UNL       c13        14    -0.00839       12.0110 ; qtot   -0.816
        15           c14bf         1   UNL       c14        15    -0.12701       12.0110 ; qtot   -0.943
        16           c15bf         1   UNL       c15        16     0.44872       12.0110 ; qtot   -0.494
        17           n16bf         1   UNL       n16        17    -0.43040       14.0070 ; qtot   -0.924
        18           o17bf         1   UNL       o17        18    -0.38482       15.9990 ; qtot   -1.309
        19           c18bf         1   UNL       c18        19    -0.44013       12.0110 ; qtot   -1.749
        20           c19bf         1   UNL       c19        20    -0.13206       12.0110 ; qtot   -1.881
        21           c20bf         1   UNL       c20        21     0.50709       12.0110 ; qtot   -1.374
        22           n21bf         1   UNL       n21        22    -0.77682       14.0070 ; qtot   -2.151
        23           c22bf         1   UNL       c22        23     0.90016       12.0110 ; qtot   -1.251
        24           n23bf         1   UNL       n23        24    -0.92842       14.0070 ; qtot   -2.179
        25           n24bf         1   UNL       n24        25    -0.78354       14.0070 ; qtot   -2.963
        26           c25bf         1   UNL       c25        26     0.53925       12.0110 ; qtot   -2.424
        27           c26bf         1   UNL       c26        27    -0.15365       12.0110 ; qtot   -2.577
        28           h27bf         1   UNL       h27        28     0.13441        1.0080 ; qtot   -2.443
        29           h28bf         1   UNL       h28        29     0.02496        1.0080 ; qtot   -2.418
        30           h29bf         1   UNL       h29        30     0.02336        1.0080 ; qtot   -2.395
        31           h30bf         1   UNL       h30        31     0.14521        1.0080 ; qtot   -2.249
        32           h31bf         1   UNL       h31        32     0.14441        1.0080 ; qtot   -2.105
        33           h32bf         1   UNL       h32        33     0.13457        1.0080 ; qtot   -1.970
        34           h33bf         1   UNL       h33        34     0.13294        1.0080 ; qtot   -1.837
        35           h34bf         1   UNL       h34        35     0.06529        1.0080 ; qtot   -1.772
        36           h35bf         1   UNL       h35        36     0.07441        1.0080 ; qtot   -1.698
        37           h36bf         1   UNL       h36        37     0.07441        1.0080 ; qtot   -1.623
        38           h37bf         1   UNL       h37        38     0.42538        1.0080 ; qtot   -1.198
        39           h38bf         1   UNL       h38        39     0.07454        1.0080 ; qtot   -1.123
        40           h39bf         1   UNL       h39        40     0.07454        1.0080 ; qtot   -1.049
        41           h40bf         1   UNL       h40        41     0.42595        1.0080 ; qtot   -0.623
        42           h41bf         1   UNL       h41        42     0.42595        1.0080 ; qtot   -0.197
        43           h42bf         1   UNL       h42        43     0.06567        1.0080 ; qtot   -0.131
        44           h43bf         1   UNL       h43        44     0.06567        1.0080 ; qtot   -0.066
        45           h44bf         1   UNL       h44        45     0.06568        1.0080 ; qtot    0.000

[ bonds ]
;       ai        aj funct               r               k
         1         2     1        0.108818   333357.876123    ;  uncertainty r = 0.000017, k = 0.810528
         2         3     1        0.139356   372557.747607    ;  uncertainty r = 0.000023, k = 1.516899
         2        11     1        0.139438   380960.069482    ;  uncertainty r = 0.000028, k = 1.333090
         3         4     1        0.140373   339744.247510    ;  uncertainty r = 0.000055, k = 6.226490
         3        28     1        0.108822   334259.668066    ;  uncertainty r = 0.000019, k = 1.225427
         4         5     1        0.148932   293809.499707    ;  uncertainty r = 0.000038, k = 9.673917
         4        13     1        0.140776   331678.249365    ;  uncertainty r = 0.000076, k = 5.339861
         5         6     1        0.140370   334812.112354    ;  uncertainty r = 0.000050, k = 5.672169
         5        10     1        0.139970   363534.031250    ;  uncertainty r = 0.000037, k = 3.253289
         6         7     1        0.133574   385255.538965    ;  uncertainty r = 0.000050, k = 4.144109
         6        29     1        0.109044   334677.455176    ;  uncertainty r = 0.000020, k = 2.673026
         7         8     1        0.133863   392320.201514    ;  uncertainty r = 0.000040, k = 4.166966
         8         9     1        0.139716   360881.185254    ;  uncertainty r = 0.000009, k = 2.079196
         8        30     1        0.109042   338059.794238    ;  uncertainty r = 0.000021, k = 2.477369
         9        10     1        0.139153   380275.623877    ;  uncertainty r = 0.000036, k = 2.028155
         9        31     1        0.108880   338001.773926    ;  uncertainty r = 0.000014, k = 1.254488
        10        32     1        0.108775   332597.712988    ;  uncertainty r = 0.000020, k = 1.370176
        11        12     1        0.139522   373153.604980    ;  uncertainty r = 0.000033, k = 2.046128
        11        33     1        0.108823   333344.315918    ;  uncertainty r = 0.000011, k = 1.086969
        12        13     1        0.140017   342231.791797    ;  uncertainty r = 0.000056, k = 4.464975
        12        34     1        0.108805   334424.510107    ;  uncertainty r = 0.000029, k = 1.320649
        13        14     1        0.151549   218739.387207    ;  uncertainty r = 0.000077, k = 11.384403
        14        15     1        0.153712   197690.858936    ;  uncertainty r = 0.000134, k = 7.753784
        14        20     1        0.153581   200100.042603    ;  uncertainty r = 0.000081, k = 5.242508
        14        35     1        0.109504   304391.107422    ;  uncertainty r = 0.000035, k = 5.170274
        15        16     1        0.151000   221439.808838    ;  uncertainty r = 0.000205, k = 19.108169
        15        36     1        0.109587   311328.058887    ;  uncertainty r = 0.000026, k = 2.462394
        15        37     1        0.109587   311328.058887    ;  uncertainty r = 0.000026, k = 2.462394
        16        17     1        0.128719   538362.154590    ;  uncertainty r = 0.000104, k = 17.832749
        16        19     1        0.147580   268546.250293    ;  uncertainty r = 0.000150, k = 29.555881
        17        18     1        0.140415   306152.478467    ;  uncertainty r = 0.000201, k = 24.633051
        18        38     1        0.097177   448930.942188    ;  uncertainty r = 0.000095, k = 7.665798
        19        21     1        0.141778   414658.430420    ;  uncertainty r = 0.000103, k = 22.818674
        19        26     1        0.142574   354867.808887    ;  uncertainty r = 0.000250, k = 17.133293
        20        21     1        0.150743   232553.737598    ;  uncertainty r = 0.000144, k = 13.618856
        20        39     1        0.109629   310429.178174    ;  uncertainty r = 0.000025, k = 3.047848
        20        40     1        0.109629   310429.178174    ;  uncertainty r = 0.000025, k = 3.047848
        21        22     1        0.134152   434505.488770    ;  uncertainty r = 0.000091, k = 31.222654
        22        23     1        0.136065   620995.082031    ;  uncertainty r = 0.000146, k = 14.893506
        23        24     1        0.140031   671109.258691    ;  uncertainty r = 0.000284, k = 13.485473
        23        25     1        0.136102   618618.190039    ;  uncertainty r = 0.000301, k = 19.721898
        24        41     1        0.102294   440101.282324    ;  uncertainty r = 0.000017, k = 2.101026
        24        42     1        0.102294   440101.282324    ;  uncertainty r = 0.000017, k = 2.101026
        25        26     1        0.134232   424598.367188    ;  uncertainty r = 0.000078, k = 13.923217
        26        27     1        0.150459   234131.088232    ;  uncertainty r = 0.000127, k = 9.848991
        27        43     1        0.109341   310719.662793    ;  uncertainty r = 0.000031, k = 1.724441
        27        44     1        0.109341   310719.662793    ;  uncertainty r = 0.000031, k = 1.724441
        27        45     1        0.109341   310719.662793    ;  uncertainty r = 0.000031, k = 1.724441

[ angles ]
;       ai        aj        ak funct           theta             cth
         1         2         3     1      120.438759      286.600489    ;  uncertainty theta = 0.000833, k = 0.047983
         1         2        11     1      120.985214      288.277479    ;  uncertainty theta = 0.001086, k = 0.026282
         2         3         4     1      121.789902      511.918171    ;  uncertainty theta = 0.001564, k = 0.094793
         2         3        28     1      120.569664      292.299222    ;  uncertainty theta = 0.001059, k = 0.023781
         2        11        12     1      118.376907      513.486820    ;  uncertainty theta = 0.001516, k = 0.066831
         2        11        33     1      120.944992      288.231991    ;  uncertainty theta = 0.001203, k = 0.018819
         3         2        11     1      117.829391      512.338416    ;  uncertainty theta = 0.002021, k = 0.033237
         3         4         5     1      119.978073      422.455899    ;  uncertainty theta = 0.002869, k = 0.223218
         3         4        13     1      123.101868      440.284217    ;  uncertainty theta = 0.003763, k = 0.166465
         4         3        28     1      118.607582      271.642829    ;  uncertainty theta = 0.001576, k = 0.131438
         4         5         6     1      122.315933      392.565319    ;  uncertainty theta = 0.002914, k = 0.156406
         4         5        10     1      123.683983      401.109462    ;  uncertainty theta = 0.001980, k = 0.130541
         4        13        12     1      122.639526      460.067880    ;  uncertainty theta = 0.002923, k = 0.143589
         4        13        14     1      118.667442      376.760371    ;  uncertainty theta = 0.004139, k = 0.058638
         5         4        13     1      119.290909      375.155267    ;  uncertainty theta = 0.004154, k = 0.219263
         5         6         7     1      124.671753      700.821341    ;  uncertainty theta = 0.001230, k = 0.124136
         5         6        29     1      119.707581      268.986555    ;  uncertainty theta = 0.002102, k = 0.068478
         5        10         9     1      118.736794      533.642526    ;  uncertainty theta = 0.001175, k = 0.102475
         5        10        32     1      120.163376      277.172954    ;  uncertainty theta = 0.000933, k = 0.084805
         6         5        10     1      117.382004      389.266978    ;  uncertainty theta = 0.003228, k = 0.174630
         6         7         8     1      116.390846      411.748190    ;  uncertainty theta = 0.001828, k = 0.124522
         7         6        29     1      116.323059      340.657474    ;  uncertainty theta = 0.000782, k = 0.069916
         7         8         9     1      122.531761      699.501966    ;  uncertainty theta = 0.001608, k = 0.061832
         7         8        30     1      116.264786      336.295416    ;  uncertainty theta = 0.001599, k = 0.036958
         8         9        10     1      116.836563      472.830816    ;  uncertainty theta = 0.001286, k = 0.056713
         8         9        31     1      121.649521      288.005923    ;  uncertainty theta = 0.000993, k = 0.094236
         9         8        30     1      120.739769      279.139694    ;  uncertainty theta = 0.001316, k = 0.021430
         9        10        32     1      120.912476      289.055403    ;  uncertainty theta = 0.000631, k = 0.054918
        10         9        31     1      121.643326      284.204948    ;  uncertainty theta = 0.000857, k = 0.058563
        11        12        13     1      122.418503      513.557909    ;  uncertainty theta = 0.002106, k = 0.088699
        11        12        34     1      120.027145      296.284703    ;  uncertainty theta = 0.001958, k = 0.030861
        12        11        33     1      120.401810      284.940066    ;  uncertainty theta = 0.001274, k = 0.037180
        12        13        14     1      119.438736      420.932004    ;  uncertainty theta = 0.002898, k = 0.124541
        13        12        34     1      117.251465      264.562123    ;  uncertainty theta = 0.002616, k = 0.101655
        13        14        15     1      110.253700      543.577739    ;  uncertainty theta = 0.001024, k = 0.098460
        13        14        20     1      110.441238      561.880632    ;  uncertainty theta = 0.002076, k = 0.108824
        13        14        35     1      105.583115      396.837167    ;  uncertainty theta = 0.004935, k = 0.080217
        14        15        16     1      110.442848      524.210651    ;  uncertainty theta = 0.006307, k = 0.202426
        14        15        36     1      108.316689      385.168528    ;  uncertainty theta = 0.001758, k = 0.069081
        14        15        37     1      108.316689      385.168528    ;  uncertainty theta = 0.001758, k = 0.069081
        14        20        21     1      109.543861      533.817200    ;  uncertainty theta = 0.004180, k = 0.079531
        14        20        39     1      108.193039      387.004837    ;  uncertainty theta = 0.003192, k = 0.046670
        14        20        40     1      108.193039      387.004837    ;  uncertainty theta = 0.003192, k = 0.046670
        15        14        20     1      108.833412      613.705067    ;  uncertainty theta = 0.003622, k = 0.198897
        15        14        35     1      106.568481      403.696882    ;  uncertainty theta = 0.002808, k = 0.050271
        15        16        17     1      123.949326      300.966996    ;  uncertainty theta = 0.014071, k = 1.064558
        15        16        19     1      119.575157      378.819523    ;  uncertainty theta = 0.005398, k = 0.070089
        16        15        36     1      107.834732      384.883374    ;  uncertainty theta = 0.001134, k = 0.069370
        16        15        37     1      107.834732      384.883374    ;  uncertainty theta = 0.001134, k = 0.069370
        16        17        18     1      105.597755      751.923650    ;  uncertainty theta = 0.005956, k = 0.197459
        16        19        21     1      121.139709      442.091989    ;  uncertainty theta = 0.006639, k = 0.288361
        16        19        26     1      121.664322      407.424597    ;  uncertainty theta = 0.011051, k = 0.074406
        17        16        19     1      118.242088      351.990396    ;  uncertainty theta = 0.018131, k = 0.348316
        17        18        38     1      100.908386      466.465852    ;  uncertainty theta = 0.006628, k = 0.052873
        19        21        20     1      120.854263      386.536774    ;  uncertainty theta = 0.003501, k = 0.239283
        19        21        22     1      122.464279      644.290033    ;  uncertainty theta = 0.004943, k = 0.176115
        19        26        25     1      122.213196      667.482644    ;  uncertainty theta = 0.002874, k = 0.143312
        19        26        27     1      119.354332      417.362715    ;  uncertainty theta = 0.005777, k = 0.161239
        20        14        35     1      106.847672      402.645487    ;  uncertainty theta = 0.001842, k = 0.037966
        20        21        22     1      120.097069      454.401706    ;  uncertainty theta = 0.003876, k = 0.660562
        21        19        26     1      120.470840      462.243482    ;  uncertainty theta = 0.009839, k = 0.463716
        21        20        39     1      107.266640      389.754322    ;  uncertainty theta = 0.001426, k = 0.061998
        21        20        40     1      107.266640      389.754322    ;  uncertainty theta = 0.001426, k = 0.061998
        21        22        23     1      115.226517      435.407459    ;  uncertainty theta = 0.005848, k = 0.330032
        22        23        24     1      124.793900      807.195659    ;  uncertainty theta = 0.008387, k = 0.065508
        22        23        25     1      126.788757      745.872951    ;  uncertainty theta = 0.005006, k = 0.175477
        23        24        41     1      119.001221      455.807077    ;  uncertainty theta = 0.002454, k = 0.026560
        23        24        42     1      119.001221      455.807077    ;  uncertainty theta = 0.002454, k = 0.026560
        23        25        26     1      117.326431      426.790568    ;  uncertainty theta = 0.011682, k = 0.374636
        24        23        25     1      124.927368      805.097275    ;  uncertainty theta = 0.007310, k = 0.087549
        25        26        27     1      119.482216      553.323657    ;  uncertainty theta = 0.005815, k = 0.207804
        26        27        43     1      108.647873      388.767504    ;  uncertainty theta = 0.000432, k = 0.100436
        26        27        44     1      108.647873      388.767504    ;  uncertainty theta = 0.000432, k = 0.100436
        26        27        45     1      108.647873      388.767504    ;  uncertainty theta = 0.000432, k = 0.100436
        36        15        37     1      105.849609      311.340872    ;  uncertainty theta = 0.001154, k = 0.052904
        39        20        40     1      105.607933      309.669436    ;  uncertainty theta = 0.002037, k = 0.051234
        41        24        42     1      107.578018      266.499560    ;  uncertainty theta = 0.002398, k = 0.032762
        43        27        44     1      107.123596      313.024757    ;  uncertainty theta = 0.001401, k = 0.041914
        43        27        45     1      107.123596      313.024757    ;  uncertainty theta = 0.001401, k = 0.041914
        44        27        45     1      107.123596      313.024757    ;  uncertainty theta = 0.001401, k = 0.041914

[ dihedrals ] ; propers for gromacs 4.5 or higher, use funct 9
;       ai        aj        ak        al funct           phase               k        pn
         1         2         3         4     9        0.000000       -0.084406         1    ;  uncertainty k = 0.162764
         1         2         3         4     9      180.000000        7.331078         2    ;  uncertainty k = 0.224025
         1         2         3         4     9        0.000000        1.311876         3    ;  uncertainty k = 0.232042
         1         2         3         4     9      180.000000        1.789414         4    ;  uncertainty k = 0.127172
         1         2         3        28     9        0.000000       -0.076129         1    ;  uncertainty k = 0.154776
         1         2         3        28     9      180.000000        7.705409         2    ;  uncertainty k = 0.310916
         1         2         3        28     9        0.000000       -0.489695         3    ;  uncertainty k = 0.290623
         1         2         3        28     9      180.000000        0.133009         4    ;  uncertainty k = 0.137911
         1         2        11        12     9        0.000000        0.159827         1    ;  uncertainty k = 0.202505
         1         2        11        12     9      180.000000        7.635458         2    ;  uncertainty k = 0.300390
         1         2        11        12     9        0.000000        1.440008         3    ;  uncertainty k = 0.282713
         1         2        11        12     9      180.000000        1.776764         4    ;  uncertainty k = 0.135814
         1         2        11        33     9        0.000000       -0.059530         1    ;  uncertainty k = 0.155868
         1         2        11        33     9      180.000000        7.586418         2    ;  uncertainty k = 0.418858
         1         2        11        33     9        0.000000       -0.426578         3    ;  uncertainty k = 0.318615
         1         2        11        33     9      180.000000        0.031488         4    ;  uncertainty k = 0.159975
         2         3         4         5     9        0.000000       -0.011873         1    ;  uncertainty k = 0.266948
         2         3         4         5     9      180.000000        9.931678         2    ;  uncertainty k = 0.624677
         2         3         4         5     9        0.000000        1.186390         3    ;  uncertainty k = 0.360980
         2         3         4         5     9      180.000000        1.746390         4    ;  uncertainty k = 0.259065
         2         3         4        13     9        0.000000        0.051354         1    ;  uncertainty k = 0.117520
         2         3         4        13     9      180.000000       10.464493         2    ;  uncertainty k = 0.215329
         2         3         4        13     9        0.000000        0.091714         3    ;  uncertainty k = 0.386712
         2         3         4        13     9      180.000000        1.073210         4    ;  uncertainty k = 0.356855
         2        11        12        13     9        0.000000       -0.030851         1    ;  uncertainty k = 0.132197
         2        11        12        13     9      180.000000       13.369639         2    ;  uncertainty k = 0.270576
         2        11        12        13     9        0.000000       -1.008370         3    ;  uncertainty k = 0.545184
         2        11        12        13     9      180.000000        0.693098         4    ;  uncertainty k = 0.252460
         2        11        12        34     9        0.000000        0.054400         1    ;  uncertainty k = 0.144489
         2        11        12        34     9      180.000000        7.897833         2    ;  uncertainty k = 0.321066
         2        11        12        34     9        0.000000        1.362804         3    ;  uncertainty k = 0.326600
         2        11        12        34     9      180.000000        1.852005         4    ;  uncertainty k = 0.199476
         3         2        11        12     9        0.000000        0.148507         1    ;  uncertainty k = 0.081059
         3         2        11        12     9      180.000000       15.280945         2    ;  uncertainty k = 0.272610
         3         2        11        12     9        0.000000       -1.372372         3    ;  uncertainty k = 0.483192
         3         2        11        12     9      180.000000        0.485924         4    ;  uncertainty k = 0.248779
         3         2        11        33     9        0.000000        0.134647         1    ;  uncertainty k = 0.095918
         3         2        11        33     9      180.000000        7.387018         2    ;  uncertainty k = 0.310241
         3         2        11        33     9        0.000000        1.435320         3    ;  uncertainty k = 0.305033
         3         2        11        33     9      180.000000        1.777578         4    ;  uncertainty k = 0.130072
         3         4         5         6     9        0.000000       -0.575765         1    ;  uncertainty k = 0.470129
         3         4         5         6     9      180.000000        4.176585         2    ;  uncertainty k = 0.180880
         3         4         5         6     9        0.000000        0.367204         3    ;  uncertainty k = 0.166858
         3         4         5         6     9      180.000000        0.194343         4    ;  uncertainty k = 0.129127
         3         4         5        10     9        0.000000       -0.501576         1    ;  uncertainty k = 0.388222
         3         4         5        10     9      180.000000        4.488358         2    ;  uncertainty k = 0.062377
         3         4         5        10     9        0.000000        0.359001         3    ;  uncertainty k = 0.174884
         3         4         5        10     9      180.000000        0.321885         4    ;  uncertainty k = 0.044239
         3         4        13        12     9        0.000000       -0.182902         1    ;  uncertainty k = 0.618451
         3         4        13        12     9      180.000000        7.320039         2    ;  uncertainty k = 0.411838
         3         4        13        12     9        0.000000        0.300859         3    ;  uncertainty k = 0.448516
         3         4        13        12     9      180.000000        1.035502         4    ;  uncertainty k = 0.310483
         3         4        13        14     9        0.000000        0.409660         1    ;  uncertainty k = 0.609800
         3         4        13        14     9      180.000000        7.665666         2    ;  uncertainty k = 0.436424
         3         4        13        14     9        0.000000        1.257185         3    ;  uncertainty k = 0.410897
         3         4        13        14     9      180.000000        1.569524         4    ;  uncertainty k = 0.191601
         4         3         2        11     9        0.000000        0.032033         1    ;  uncertainty k = 0.124944
         4         3         2        11     9      180.000000       14.013192         2    ;  uncertainty k = 0.209637
         4         3         2        11     9        0.000000       -1.074401         3    ;  uncertainty k = 0.531724
         4         3         2        11     9      180.000000        0.653650         4    ;  uncertainty k = 0.234323
         4         5         6         7     9        0.000000        0.174815         1    ;  uncertainty k = 0.316817
         4         5         6         7     9      180.000000        9.406800         2    ;  uncertainty k = 0.260380
         4         5         6         7     9        0.000000        1.042391         3    ;  uncertainty k = 0.309686
         4         5         6         7     9      180.000000        1.676846         4    ;  uncertainty k = 0.192251
         4         5         6        29     9        0.000000       -0.638143         1    ;  uncertainty k = 0.870565
         4         5         6        29     9      180.000000        6.206736         2    ;  uncertainty k = 0.796696
         4         5         6        29     9        0.000000        0.671576         3    ;  uncertainty k = 0.187132
         4         5         6        29     9      180.000000        1.116075         4    ;  uncertainty k = 0.172954
         4         5        10         9     9        0.000000        0.129963         1    ;  uncertainty k = 0.283446
         4         5        10         9     9      180.000000        9.307978         2    ;  uncertainty k = 0.547791
         4         5        10         9     9        0.000000        1.344408         3    ;  uncertainty k = 0.386479
         4         5        10         9     9      180.000000        1.859349         4    ;  uncertainty k = 0.219927
         4         5        10        32     9        0.000000       -0.152738         1    ;  uncertainty k = 0.258135
         4         5        10        32     9      180.000000        7.269547         2    ;  uncertainty k = 0.297521
         4         5        10        32     9        0.000000        0.837345         3    ;  uncertainty k = 0.170653
         4         5        10        32     9      180.000000        1.209237         4    ;  uncertainty k = 0.199633
         4        13        12        11     9        0.000000       -0.131650         1    ;  uncertainty k = 0.291800
         4        13        12        11     9      180.000000       10.684927         2    ;  uncertainty k = 0.357302
         4        13        12        11     9        0.000000        0.176278         3    ;  uncertainty k = 0.245834
         4        13        12        11     9      180.000000        1.101921         4    ;  uncertainty k = 0.310394
         4        13        12        34     9        0.000000       -0.055326         1    ;  uncertainty k = 0.140483
         4        13        12        34     9      180.000000        7.361183         2    ;  uncertainty k = 0.592650
         4        13        12        34     9        0.000000        1.463509         3    ;  uncertainty k = 0.247986
         4        13        12        34     9      180.000000        1.678698         4    ;  uncertainty k = 0.144527
         4        13        14        15     9        0.000000       -0.500232         1    ;  uncertainty k = 0.354896
         4        13        14        15     9      180.000000        2.510106         2    ;  uncertainty k = 0.473938
         4        13        14        15     9        0.000000        0.504248         3    ;  uncertainty k = 0.226138
         4        13        14        15     9      180.000000        0.283382         4    ;  uncertainty k = 0.052091
         4        13        14        20     9        0.000000       -0.457873         1    ;  uncertainty k = 0.526165
         4        13        14        20     9      180.000000        2.688849         2    ;  uncertainty k = 0.361792
         4        13        14        20     9        0.000000        0.520875         3    ;  uncertainty k = 0.142626
         4        13        14        20     9      180.000000        0.294631         4    ;  uncertainty k = 0.054304
         4        13        14        35     9        0.000000       -0.303710         1    ;  uncertainty k = 0.276273
         4        13        14        35     9      180.000000        2.173778         2    ;  uncertainty k = 0.394879
         4        13        14        35     9        0.000000        0.271502         3    ;  uncertainty k = 0.148080
         4        13        14        35     9      180.000000        0.407429         4    ;  uncertainty k = 0.046834
         5         4         3        28     9        0.000000       -0.159331         1    ;  uncertainty k = 0.214517
         5         4         3        28     9      180.000000        7.788983         2    ;  uncertainty k = 0.288461
         5         4         3        28     9        0.000000        0.921245         3    ;  uncertainty k = 0.179958
         5         4         3        28     9      180.000000        1.297009         4    ;  uncertainty k = 0.245293
         5         4        13        12     9        0.000000        0.275804         1    ;  uncertainty k = 0.287026
         5         4        13        12     9      180.000000        7.560508         2    ;  uncertainty k = 0.220481
         5         4        13        12     9        0.000000        1.198071         3    ;  uncertainty k = 0.249900
         5         4        13        12     9      180.000000        1.589486         4    ;  uncertainty k = 0.117184
         5         4        13        14     9        0.000000       -0.795189         1    ;  uncertainty k = 1.682959
         5         4        13        14     9      180.000000        8.866901         2    ;  uncertainty k = 0.634245
         5         4        13        14     9        0.000000        0.867612         3    ;  uncertainty k = 0.322804
         5         4        13        14     9      180.000000        1.177947         4    ;  uncertainty k = 0.392714
         5         6         7         8     9        0.000000       -0.334718         1    ;  uncertainty k = 0.375970
         5         6         7         8     9      180.000000       15.211052         2    ;  uncertainty k = 0.287373
         5         6         7         8     9        0.000000        0.893687         3    ;  uncertainty k = 0.706766
         5         6         7         8     9      180.000000        1.396823         4    ;  uncertainty k = 0.195560
         5        10         9         8     9        0.000000       -0.039857         1    ;  uncertainty k = 0.110468
         5        10         9         8     9      180.000000       14.059253         2    ;  uncertainty k = 0.150700
         5        10         9         8     9        0.000000       -1.116914         3    ;  uncertainty k = 0.408452
         5        10         9         8     9      180.000000        0.772515         4    ;  uncertainty k = 0.215443
         5        10         9        31     9        0.000000        0.116875         1    ;  uncertainty k = 0.099847
         5        10         9        31     9      180.000000        8.201733         2    ;  uncertainty k = 0.455102
         5        10         9        31     9        0.000000        1.462592         3    ;  uncertainty k = 0.282005
         5        10         9        31     9      180.000000        1.867146         4    ;  uncertainty k = 0.119683
         6         5         4        13     9        0.000000        1.009890         1    ;  uncertainty k = 0.865790
         6         5         4        13     9      180.000000        4.149285         2    ;  uncertainty k = 0.302907
         6         5         4        13     9        0.000000        0.275533         3    ;  uncertainty k = 0.308305
         6         5         4        13     9      180.000000        0.331758         4    ;  uncertainty k = 0.092124
         6         5        10         9     9        0.000000       -0.064416         1    ;  uncertainty k = 0.155076
         6         5        10         9     9      180.000000       11.325570         2    ;  uncertainty k = 0.273274
         6         5        10         9     9        0.000000       -0.641282         3    ;  uncertainty k = 0.336597
         6         5        10         9     9      180.000000        0.911430         4    ;  uncertainty k = 0.287041
         6         5        10        32     9        0.000000        0.014111         1    ;  uncertainty k = 0.352755
         6         5        10        32     9      180.000000        6.680221         2    ;  uncertainty k = 0.652081
         6         5        10        32     9        0.000000        1.184714         3    ;  uncertainty k = 0.233339
         6         5        10        32     9      180.000000        1.540824         4    ;  uncertainty k = 0.272771
         6         7         8         9     9        0.000000       -0.284407         1    ;  uncertainty k = 0.698928
         6         7         8         9     9      180.000000       15.602270         2    ;  uncertainty k = 0.551728
         6         7         8         9     9        0.000000        0.716856         3    ;  uncertainty k = 0.593178
         6         7         8         9     9      180.000000        1.319601         4    ;  uncertainty k = 0.099213
         6         7         8        30     9        0.000000        0.244132         1    ;  uncertainty k = 0.141906
         6         7         8        30     9      180.000000       14.811426         2    ;  uncertainty k = 0.372008
         6         7         8        30     9        0.000000        2.067415         3    ;  uncertainty k = 0.545890
         6         7         8        30     9      180.000000        1.567559         4    ;  uncertainty k = 0.285754
         7         6         5        10     9        0.000000       -0.136553         1    ;  uncertainty k = 0.312765
         7         6         5        10     9      180.000000       12.664939         2    ;  uncertainty k = 0.411598
         7         6         5        10     9        0.000000       -0.454235         3    ;  uncertainty k = 0.448872
         7         6         5        10     9      180.000000        1.034585         4    ;  uncertainty k = 0.173988
         7         8         9        10     9        0.000000        0.052116         1    ;  uncertainty k = 0.194620
         7         8         9        10     9      180.000000       15.470572         2    ;  uncertainty k = 0.248117
         7         8         9        10     9        0.000000       -1.475329         3    ;  uncertainty k = 0.731031
         7         8         9        10     9      180.000000        0.809751         4    ;  uncertainty k = 0.175704
         7         8         9        31     9        0.000000       -0.033385         1    ;  uncertainty k = 0.312852
         7         8         9        31     9      180.000000        9.297236         2    ;  uncertainty k = 0.586533
         7         8         9        31     9        0.000000        0.960940         3    ;  uncertainty k = 0.286602
         7         8         9        31     9      180.000000        1.627076         4    ;  uncertainty k = 0.106971
         8         7         6        29     9        0.000000        0.432020         1    ;  uncertainty k = 0.293463
         8         7         6        29     9      180.000000       15.656576         2    ;  uncertainty k = 0.397566
         8         7         6        29     9        0.000000        2.207169         3    ;  uncertainty k = 0.451775
         8         7         6        29     9      180.000000        1.614054         4    ;  uncertainty k = 0.324559
         8         9        10        32     9        0.000000       -0.150989         1    ;  uncertainty k = 0.329512
         8         9        10        32     9      180.000000        8.050606         2    ;  uncertainty k = 0.391525
         8         9        10        32     9        0.000000        1.295282         3    ;  uncertainty k = 0.260452
         8         9        10        32     9      180.000000        1.631566         4    ;  uncertainty k = 0.153030
        10         5         4        13     9        0.000000        0.674424         1    ;  uncertainty k = 0.641158
        10         5         4        13     9      180.000000        4.661106         2    ;  uncertainty k = 0.086963
        10         5         4        13     9        0.000000        0.272398         3    ;  uncertainty k = 0.279878
        10         5         4        13     9      180.000000        0.491368         4    ;  uncertainty k = 0.124199
        10         5         6        29     9        0.000000       -0.215441         1    ;  uncertainty k = 0.501944
        10         5         6        29     9      180.000000        5.565718         2    ;  uncertainty k = 0.712112
        10         5         6        29     9        0.000000        1.051685         3    ;  uncertainty k = 0.177478
        10         5         6        29     9      180.000000        1.424018         4    ;  uncertainty k = 0.288911
        10         9         8        30     9        0.000000       -0.150549         1    ;  uncertainty k = 0.292905
        10         9         8        30     9      180.000000        6.357288         2    ;  uncertainty k = 0.251001
        10         9         8        30     9        0.000000        1.197248         3    ;  uncertainty k = 0.223846
        10         9         8        30     9      180.000000        1.511739         4    ;  uncertainty k = 0.217219
        11         2         3        28     9        0.000000        0.016524         1    ;  uncertainty k = 0.170488
        11         2         3        28     9      180.000000        7.807499         2    ;  uncertainty k = 0.237933
        11         2         3        28     9        0.000000        1.366568         3    ;  uncertainty k = 0.319594
        11         2         3        28     9      180.000000        1.817303         4    ;  uncertainty k = 0.202533
        11        12        13        14     9        0.000000        0.228801         1    ;  uncertainty k = 0.398083
        11        12        13        14     9      180.000000        9.599705         2    ;  uncertainty k = 0.523057
        11        12        13        14     9        0.000000        1.422257         3    ;  uncertainty k = 0.424730
        11        12        13        14     9      180.000000        1.848214         4    ;  uncertainty k = 0.183793
        12        13        14        15     9        0.000000       -1.231089         1    ;  uncertainty k = 0.400173
        12        13        14        15     9      180.000000        2.772656         2    ;  uncertainty k = 0.250039
        12        13        14        15     9        0.000000        0.046065         3    ;  uncertainty k = 0.066900
        12        13        14        15     9      180.000000        0.285048         4    ;  uncertainty k = 0.046789
        12        13        14        20     9        0.000000       -1.054762         1    ;  uncertainty k = 0.427623
        12        13        14        20     9      180.000000        2.864884         2    ;  uncertainty k = 0.128306
        12        13        14        20     9        0.000000        0.034450         3    ;  uncertainty k = 0.144301
        12        13        14        20     9      180.000000        0.337322         4    ;  uncertainty k = 0.036054
        12        13        14        35     9        0.000000        0.129953         1    ;  uncertainty k = 0.433682
        12        13        14        35     9      180.000000        2.168981         2    ;  uncertainty k = 0.131388
        12        13        14        35     9        0.000000        0.361576         3    ;  uncertainty k = 0.052146
        12        13        14        35     9      180.000000        0.330824         4    ;  uncertainty k = 0.040422
        13         4         3        28     9        0.000000        0.130157         1    ;  uncertainty k = 0.408840
        13         4         3        28     9      180.000000        6.915998         2    ;  uncertainty k = 0.471904
        13         4         3        28     9        0.000000        1.420633         3    ;  uncertainty k = 0.364580
        13         4         3        28     9      180.000000        1.665792         4    ;  uncertainty k = 0.133496
        13        12        11        33     9        0.000000        0.116481         1    ;  uncertainty k = 0.250384
        13        12        11        33     9      180.000000        7.005301         2    ;  uncertainty k = 0.218923
        13        12        11        33     9        0.000000        1.432543         3    ;  uncertainty k = 0.238249
        13        12        11        33     9      180.000000        1.822135         4    ;  uncertainty k = 0.116770
        13        14        15        16     9        0.000000       -2.651011         1    ;  uncertainty k = 0.528969
        13        14        15        16     9      180.000000        0.199452         2    ;  uncertainty k = 0.495889
        13        14        15        16     9        0.000000        0.876160         3    ;  uncertainty k = 0.161508
        13        14        15        16     9      180.000000        0.028718         4    ;  uncertainty k = 0.091802
        13        14        15        36     9        0.000000        0.892537         1    ;  uncertainty k = 0.131506
        13        14        15        36     9      180.000000       -0.506309         2    ;  uncertainty k = 0.253180
        13        14        15        36     9        0.000000        0.824741         3    ;  uncertainty k = 0.100949
        13        14        15        36     9      180.000000       -0.047676         4    ;  uncertainty k = 0.034244
        13        14        15        37     9        0.000000        0.892537         1    ;  uncertainty k = 0.131506
        13        14        15        37     9      180.000000       -0.506309         2    ;  uncertainty k = 0.253180
        13        14        15        37     9        0.000000        0.824741         3    ;  uncertainty k = 0.100949
        13        14        15        37     9      180.000000       -0.047676         4    ;  uncertainty k = 0.034244
        13        14        20        21     9        0.000000       -2.523248         1    ;  uncertainty k = 0.710400
        13        14        20        21     9      180.000000        0.169981         2    ;  uncertainty k = 0.824298
        13        14        20        21     9        0.000000        1.012305         3    ;  uncertainty k = 0.230083
        13        14        20        21     9      180.000000        0.031687         4    ;  uncertainty k = 0.039806
        13        14        20        39     9        0.000000        1.070312         1    ;  uncertainty k = 0.203734
        13        14        20        39     9      180.000000       -0.502677         2    ;  uncertainty k = 0.135459
        13        14        20        39     9        0.000000        0.853750         3    ;  uncertainty k = 0.107393
        13        14        20        39     9      180.000000       -0.046834         4    ;  uncertainty k = 0.061505
        13        14        20        40     9        0.000000        1.070312         1    ;  uncertainty k = 0.203734
        13        14        20        40     9      180.000000       -0.502677         2    ;  uncertainty k = 0.135459
        13        14        20        40     9        0.000000        0.853750         3    ;  uncertainty k = 0.107393
        13        14        20        40     9      180.000000       -0.046834         4    ;  uncertainty k = 0.061505
        14        13        12        34     9        0.000000        0.003948         1    ;  uncertainty k = 0.122016
        14        13        12        34     9      180.000000        8.184091         2    ;  uncertainty k = 0.330011
        14        13        12        34     9        0.000000        0.757911         3    ;  uncertainty k = 0.242584
        14        13        12        34     9      180.000000        1.159555         4    ;  uncertainty k = 0.225140
        14        15        16        17     9        0.000000       -1.631294         1    ;  uncertainty k = 1.347631
        14        15        16        17     9      180.000000        2.819968         2    ;  uncertainty k = 0.711686
        14        15        16        17     9        0.000000        0.149381         3    ;  uncertainty k = 0.386642
        14        15        16        17     9      180.000000        0.415498         4    ;  uncertainty k = 0.163170
        14        15        16        19     9        0.000000       -3.461538         1    ;  uncertainty k = 1.041968
        14        15        16        19     9      180.000000        2.279206         2    ;  uncertainty k = 0.485384
        14        15        16        19     9        0.000000        0.547295         3    ;  uncertainty k = 0.272536
        14        15        16        19     9      180.000000        0.218026         4    ;  uncertainty k = 0.279230
        14        20        21        19     9        0.000000       -2.955163         1    ;  uncertainty k = 1.919614
        14        20        21        19     9      180.000000        3.243695         2    ;  uncertainty k = 1.282483
        14        20        21        19     9        0.000000       -0.176591         3    ;  uncertainty k = 0.322000
        14        20        21        19     9      180.000000        0.550809         4    ;  uncertainty k = 0.262937
        14        20        21        22     9        0.000000       -2.688645         1    ;  uncertainty k = 1.751436
        14        20        21        22     9      180.000000        3.223908         2    ;  uncertainty k = 0.447826
        14        20        21        22     9        0.000000        0.530658         3    ;  uncertainty k = 0.401879
        14        20        21        22     9      180.000000        0.393401         4    ;  uncertainty k = 0.187166
        15        14        20        21     9        0.000000       -0.481940         1    ;  uncertainty k = 1.329874
        15        14        20        21     9      180.000000       -0.899526         2    ;  uncertainty k = 0.781562
        15        14        20        21     9        0.000000        0.763154         3    ;  uncertainty k = 0.321688
        15        14        20        21     9      180.000000       -0.434826         4    ;  uncertainty k = 0.208830
        15        14        20        39     9        0.000000       -0.438651         1    ;  uncertainty k = 0.256270
        15        14        20        39     9      180.000000       -0.735675         2    ;  uncertainty k = 0.249709
        15        14        20        39     9        0.000000        0.244633         3    ;  uncertainty k = 0.088314
        15        14        20        39     9      180.000000        0.105236         4    ;  uncertainty k = 0.109145
        15        14        20        40     9        0.000000       -0.438651         1    ;  uncertainty k = 0.256270
        15        14        20        40     9      180.000000       -0.735675         2    ;  uncertainty k = 0.249709
        15        14        20        40     9        0.000000        0.244633         3    ;  uncertainty k = 0.088314
        15        14        20        40     9      180.000000        0.105236         4    ;  uncertainty k = 0.109145
        15        16        17        18     9        0.000000        6.640027         1    ;  uncertainty k = 2.537065
        15        16        17        18     9      180.000000       45.146030         2    ;  uncertainty k = 0.172354
        15        16        17        18     9        0.000000        1.375936         3    ;  uncertainty k = 1.257984
        15        16        17        18     9      180.000000       -0.484198         4    ;  uncertainty k = 0.502506
        15        16        19        21     9        0.000000       -1.968261         1    ;  uncertainty k = 1.933592
        15        16        19        21     9      180.000000        2.536386         2    ;  uncertainty k = 0.703482
        15        16        19        21     9        0.000000       -0.268290         3    ;  uncertainty k = 0.256087
        15        16        19        21     9      180.000000        0.074273         4    ;  uncertainty k = 0.211813
        15        16        19        26     9        0.000000       -3.403021         1    ;  uncertainty k = 1.504083
        15        16        19        26     9      180.000000        3.186093         2    ;  uncertainty k = 0.704306
        15        16        19        26     9        0.000000        0.041987         3    ;  uncertainty k = 0.324326
        15        16        19        26     9      180.000000        0.131128         4    ;  uncertainty k = 0.211423
        16        15        14        20     9        0.000000       -2.243130         1    ;  uncertainty k = 1.461995
        16        15        14        20     9      180.000000       -0.228369         2    ;  uncertainty k = 0.751886
        16        15        14        20     9        0.000000        0.591296         3    ;  uncertainty k = 0.284685
        16        15        14        20     9      180.000000       -0.428883         4    ;  uncertainty k = 0.141447
        16        15        14        35     9        0.000000       -0.965211         1    ;  uncertainty k = 0.587263
        16        15        14        35     9      180.000000       -0.471431         2    ;  uncertainty k = 0.312771
        16        15        14        35     9        0.000000        0.502941         3    ;  uncertainty k = 0.224192
        16        15        14        35     9      180.000000       -0.014698         4    ;  uncertainty k = 0.110916
        16        17        18        38     9        0.000000       -0.514746         1    ;  uncertainty k = 1.082545
        16        17        18        38     9      180.000000       11.253069         2    ;  uncertainty k = 0.197862
        16        17        18        38     9        0.000000        0.335412         3    ;  uncertainty k = 0.336749
        16        17        18        38     9      180.000000       -0.149950         4    ;  uncertainty k = 0.268482
        16        19        21        20     9        0.000000       -0.351495         1    ;  uncertainty k = 0.571784
        16        19        21        20     9      180.000000        5.547387         2    ;  uncertainty k = 0.849140
        16        19        21        20     9        0.000000        0.712529         3    ;  uncertainty k = 0.347529
        16        19        21        20     9      180.000000        1.354926         4    ;  uncertainty k = 0.342316
        16        19        21        22     9        0.000000        0.419160         1    ;  uncertainty k = 0.692401
        16        19        21        22     9      180.000000        7.253415         2    ;  uncertainty k = 0.538745
        16        19        21        22     9        0.000000        0.689941         3    ;  uncertainty k = 0.415909
        16        19        21        22     9      180.000000        1.738244         4    ;  uncertainty k = 0.319965
        16        19        26        25     9        0.000000        0.445367         1    ;  uncertainty k = 0.809384
        16        19        26        25     9      180.000000        7.561495         2    ;  uncertainty k = 0.569990
        16        19        26        25     9        0.000000        1.037783         3    ;  uncertainty k = 0.265107
        16        19        26        25     9      180.000000        1.767024         4    ;  uncertainty k = 0.277313
        16        19        26        27     9        0.000000       -0.564662         1    ;  uncertainty k = 0.802801
        16        19        26        27     9      180.000000        6.561939         2    ;  uncertainty k = 0.420448
        16        19        26        27     9        0.000000        0.804414         3    ;  uncertainty k = 0.415549
        16        19        26        27     9      180.000000        1.151595         4    ;  uncertainty k = 0.239110
        17        16        15        36     9        0.000000        2.295482         1    ;  uncertainty k = 0.502611
        17        16        15        36     9      180.000000        4.153545         2    ;  uncertainty k = 0.605516
        17        16        15        36     9        0.000000        0.151060         3    ;  uncertainty k = 0.119024
        17        16        15        36     9      180.000000        0.031216         4    ;  uncertainty k = 0.218015
        17        16        15        37     9        0.000000        2.295482         1    ;  uncertainty k = 0.502611
        17        16        15        37     9      180.000000        4.153545         2    ;  uncertainty k = 0.605516
        17        16        15        37     9        0.000000        0.151060         3    ;  uncertainty k = 0.119024
        17        16        15        37     9      180.000000        0.031216         4    ;  uncertainty k = 0.218015
        17        16        19        21     9        0.000000        1.246252         1    ;  uncertainty k = 2.529750
        17        16        19        21     9      180.000000        4.015056         2    ;  uncertainty k = 0.605916
        17        16        19        21     9        0.000000        0.631658         3    ;  uncertainty k = 0.464166
        17        16        19        21     9      180.000000       -0.179748         4    ;  uncertainty k = 0.292208
        17        16        19        26     9        0.000000        0.272889         1    ;  uncertainty k = 1.687053
        17        16        19        26     9      180.000000        4.620500         2    ;  uncertainty k = 0.238752
        17        16        19        26     9        0.000000        0.568204         3    ;  uncertainty k = 0.406557
        17        16        19        26     9      180.000000       -0.135078         4    ;  uncertainty k = 0.294144
        18        17        16        19     9        0.000000       -0.236048         1    ;  uncertainty k = 2.195517
        18        17        16        19     9      180.000000       36.214167         2    ;  uncertainty k = 0.476471
        18        17        16        19     9        0.000000        3.933111         3    ;  uncertainty k = 1.286901
        18        17        16        19     9      180.000000        0.327484         4    ;  uncertainty k = 1.983576
        19        16        15        36     9        0.000000       -0.487345         1    ;  uncertainty k = 0.548243
        19        16        15        36     9      180.000000        2.287410         2    ;  uncertainty k = 0.958373
        19        16        15        36     9        0.000000        0.812567         3    ;  uncertainty k = 0.250612
        19        16        15        36     9      180.000000        0.168105         4    ;  uncertainty k = 0.147890
        19        16        15        37     9        0.000000       -0.487345         1    ;  uncertainty k = 0.548243
        19        16        15        37     9      180.000000        2.287410         2    ;  uncertainty k = 0.958373
        19        16        15        37     9        0.000000        0.812567         3    ;  uncertainty k = 0.250612
        19        16        15        37     9      180.000000        0.168105         4    ;  uncertainty k = 0.147890
        19        21        20        39     9        0.000000       -1.012157         1    ;  uncertainty k = 0.694002
        19        21        20        39     9      180.000000        3.099092         2    ;  uncertainty k = 0.405185
        19        21        20        39     9        0.000000        0.483673         3    ;  uncertainty k = 0.221693
        19        21        20        39     9      180.000000        0.185812         4    ;  uncertainty k = 0.059113
        19        21        20        40     9        0.000000       -1.012157         1    ;  uncertainty k = 0.694002
        19        21        20        40     9      180.000000        3.099092         2    ;  uncertainty k = 0.405185
        19        21        20        40     9        0.000000        0.483673         3    ;  uncertainty k = 0.221693
        19        21        20        40     9      180.000000        0.185812         4    ;  uncertainty k = 0.059113
        19        21        22        23     9        0.000000       -0.569880         1    ;  uncertainty k = 1.141472
        19        21        22        23     9      180.000000       15.205357         2    ;  uncertainty k = 0.566956
        19        21        22        23     9        0.000000        0.193978         3    ;  uncertainty k = 0.700767
        19        21        22        23     9      180.000000        1.451318         4    ;  uncertainty k = 0.290893
        19        26        25        23     9        0.000000       -0.941806         1    ;  uncertainty k = 0.701286
        19        26        25        23     9      180.000000       14.288563         2    ;  uncertainty k = 0.590726
        19        26        25        23     9        0.000000        0.682968         3    ;  uncertainty k = 0.795542
        19        26        25        23     9      180.000000        1.478145         4    ;  uncertainty k = 0.575126
        19        26        27        43     9        0.000000        0.259047         1    ;  uncertainty k = 0.394428
        19        26        27        43     9      180.000000        3.763858         2    ;  uncertainty k = 0.313658
        19        26        27        43     9        0.000000        0.127772         3    ;  uncertainty k = 0.040355
        19        26        27        43     9      180.000000        0.289344         4    ;  uncertainty k = 0.056743
        19        26        27        44     9        0.000000        0.259047         1    ;  uncertainty k = 0.394428
        19        26        27        44     9      180.000000        3.763858         2    ;  uncertainty k = 0.313658
        19        26        27        44     9        0.000000        0.127772         3    ;  uncertainty k = 0.040355
        19        26        27        44     9      180.000000        0.289344         4    ;  uncertainty k = 0.056743
        19        26        27        45     9        0.000000        0.259047         1    ;  uncertainty k = 0.394428
        19        26        27        45     9      180.000000        3.763858         2    ;  uncertainty k = 0.313658
        19        26        27        45     9        0.000000        0.127772         3    ;  uncertainty k = 0.040355
        19        26        27        45     9      180.000000        0.289344         4    ;  uncertainty k = 0.056743
        20        14        15        36     9        0.000000       -0.582328         1    ;  uncertainty k = 0.315439
        20        14        15        36     9      180.000000       -0.750871         2    ;  uncertainty k = 0.202716
        20        14        15        36     9        0.000000        0.196446         3    ;  uncertainty k = 0.088847
        20        14        15        36     9      180.000000        0.050639         4    ;  uncertainty k = 0.051995
        20        14        15        37     9        0.000000       -0.582328         1    ;  uncertainty k = 0.315439
        20        14        15        37     9      180.000000       -0.750871         2    ;  uncertainty k = 0.202716
        20        14        15        37     9        0.000000        0.196446         3    ;  uncertainty k = 0.088847
        20        14        15        37     9      180.000000        0.050639         4    ;  uncertainty k = 0.051995
        20        21        19        26     9        0.000000        0.022992         1    ;  uncertainty k = 0.470797
        20        21        19        26     9      180.000000        4.261956         2    ;  uncertainty k = 0.870956
        20        21        19        26     9        0.000000        0.864705         3    ;  uncertainty k = 0.282328
        20        21        19        26     9      180.000000        1.429790         4    ;  uncertainty k = 0.433861
        20        21        22        23     9        0.000000        0.203232         1    ;  uncertainty k = 1.274627
        20        21        22        23     9      180.000000       17.249609         2    ;  uncertainty k = 0.653216
        20        21        22        23     9        0.000000        1.490485         3    ;  uncertainty k = 0.699727
        20        21        22        23     9      180.000000        1.431605         4    ;  uncertainty k = 0.547646
        21        19        26        25     9        0.000000        0.480565         1    ;  uncertainty k = 0.612429
        21        19        26        25     9      180.000000        8.606537         2    ;  uncertainty k = 0.676306
        21        19        26        25     9        0.000000       -0.088422         3    ;  uncertainty k = 0.457630
        21        19        26        25     9      180.000000        1.175507         4    ;  uncertainty k = 0.391954
        21        19        26        27     9        0.000000       -0.455902         1    ;  uncertainty k = 0.887706
        21        19        26        27     9      180.000000        4.489311         2    ;  uncertainty k = 0.952603
        21        19        26        27     9        0.000000        0.822559         3    ;  uncertainty k = 0.339733
        21        19        26        27     9      180.000000        1.126314         4    ;  uncertainty k = 0.144634
        21        20        14        35     9        0.000000       -0.820126         1    ;  uncertainty k = 0.731827
        21        20        14        35     9      180.000000       -0.072160         2    ;  uncertainty k = 0.266630
        21        20        14        35     9        0.000000        0.493567         3    ;  uncertainty k = 0.163130
        21        20        14        35     9      180.000000        0.029316         4    ;  uncertainty k = 0.061391
        21        22        23        24     9        0.000000        1.202746         1    ;  uncertainty k = 1.372754
        21        22        23        24     9      180.000000        9.607805         2    ;  uncertainty k = 0.473413
        21        22        23        24     9        0.000000        2.167433         3    ;  uncertainty k = 0.395551
        21        22        23        24     9      180.000000        0.826406         4    ;  uncertainty k = 0.246249
        21        22        23        25     9        0.000000        0.218431         1    ;  uncertainty k = 1.789727
        21        22        23        25     9      180.000000        6.958171         2    ;  uncertainty k = 1.063501
        21        22        23        25     9        0.000000        0.838166         3    ;  uncertainty k = 0.267049
        21        22        23        25     9      180.000000        0.657016         4    ;  uncertainty k = 0.074490
        22        21        19        26     9        0.000000        0.309327         1    ;  uncertainty k = 0.477753
        22        21        19        26     9      180.000000        8.033128         2    ;  uncertainty k = 0.605212
        22        21        19        26     9        0.000000       -0.084435         3    ;  uncertainty k = 0.159827
        22        21        19        26     9      180.000000        1.313043         4    ;  uncertainty k = 0.245391
        22        21        20        39     9        0.000000        1.868200         1    ;  uncertainty k = 0.940710
        22        21        20        39     9      180.000000        3.681327         2    ;  uncertainty k = 0.251043
        22        21        20        39     9        0.000000        0.305477         3    ;  uncertainty k = 0.279011
        22        21        20        39     9      180.000000        0.237940         4    ;  uncertainty k = 0.089761
        22        21        20        40     9        0.000000        1.868200         1    ;  uncertainty k = 0.940710
        22        21        20        40     9      180.000000        3.681327         2    ;  uncertainty k = 0.251043
        22        21        20        40     9        0.000000        0.305477         3    ;  uncertainty k = 0.279011
        22        21        20        40     9      180.000000        0.237940         4    ;  uncertainty k = 0.089761
        22        23        24        41     9        0.000000       20.054934         1    ;  uncertainty k = 0.271416
        22        23        24        41     9      180.000000       11.122135         2    ;  uncertainty k = 0.198074
        22        23        24        41     9        0.000000        1.036002         3    ;  uncertainty k = 0.243769
        22        23        24        41     9      180.000000       -0.419666         4    ;  uncertainty k = 0.168834
        22        23        24        42     9        0.000000       20.054934         1    ;  uncertainty k = 0.271416
        22        23        24        42     9      180.000000       11.122135         2    ;  uncertainty k = 0.198074
        22        23        24        42     9        0.000000        1.036002         3    ;  uncertainty k = 0.243769
        22        23        24        42     9      180.000000       -0.419666         4    ;  uncertainty k = 0.168834
        22        23        25        26     9        0.000000       -0.218256         1    ;  uncertainty k = 1.291881
        22        23        25        26     9      180.000000        6.876945         2    ;  uncertainty k = 0.940938
        22        23        25        26     9        0.000000        0.728585         3    ;  uncertainty k = 0.505236
        22        23        25        26     9      180.000000        0.680204         4    ;  uncertainty k = 0.093411
        23        25        26        27     9        0.000000        0.517008         1    ;  uncertainty k = 0.804234
        23        25        26        27     9      180.000000       16.257214         2    ;  uncertainty k = 0.500976
        23        25        26        27     9        0.000000        2.289223         3    ;  uncertainty k = 0.321921
        23        25        26        27     9      180.000000        1.636862         4    ;  uncertainty k = 0.504078
        24        23        25        26     9        0.000000        1.208470         1    ;  uncertainty k = 1.519936
        24        23        25        26     9      180.000000        8.727299         2    ;  uncertainty k = 0.175158
        24        23        25        26     9        0.000000        2.101019         3    ;  uncertainty k = 0.443649
        24        23        25        26     9      180.000000        0.899683         4    ;  uncertainty k = 0.241562
        25        23        24        41     9        0.000000       20.651679         1    ;  uncertainty k = 0.452891
        25        23        24        41     9      180.000000       11.324182         2    ;  uncertainty k = 0.280575
        25        23        24        41     9        0.000000        0.996208         3    ;  uncertainty k = 0.165865
        25        23        24        41     9      180.000000       -0.440881         4    ;  uncertainty k = 0.167646
        25        23        24        42     9        0.000000       20.651679         1    ;  uncertainty k = 0.452891
        25        23        24        42     9      180.000000       11.324182         2    ;  uncertainty k = 0.280575
        25        23        24        42     9        0.000000        0.996208         3    ;  uncertainty k = 0.165865
        25        23        24        42     9      180.000000       -0.440881         4    ;  uncertainty k = 0.167646
        25        26        27        43     9        0.000000        0.223396         1    ;  uncertainty k = 0.342352
        25        26        27        43     9      180.000000        4.413775         2    ;  uncertainty k = 0.237647
        25        26        27        43     9        0.000000        0.674297         3    ;  uncertainty k = 0.087544
        25        26        27        43     9      180.000000        0.371038         4    ;  uncertainty k = 0.069501
        25        26        27        44     9        0.000000        0.223396         1    ;  uncertainty k = 0.342352
        25        26        27        44     9      180.000000        4.413775         2    ;  uncertainty k = 0.237647
        25        26        27        44     9        0.000000        0.674297         3    ;  uncertainty k = 0.087544
        25        26        27        44     9      180.000000        0.371038         4    ;  uncertainty k = 0.069501
        25        26        27        45     9        0.000000        0.223396         1    ;  uncertainty k = 0.342352
        25        26        27        45     9      180.000000        4.413775         2    ;  uncertainty k = 0.237647
        25        26        27        45     9        0.000000        0.674297         3    ;  uncertainty k = 0.087544
        25        26        27        45     9      180.000000        0.371038         4    ;  uncertainty k = 0.069501
        30         8         9        31     9        0.000000       -0.272876         1    ;  uncertainty k = 0.270326
        30         8         9        31     9      180.000000        6.674021         2    ;  uncertainty k = 0.285187
        30         8         9        31     9        0.000000       -0.094419         3    ;  uncertainty k = 0.105118
        30         8         9        31     9      180.000000        0.242431         4    ;  uncertainty k = 0.077812
        31         9        10        32     9        0.000000       -0.063808         1    ;  uncertainty k = 0.197922
        31         9        10        32     9      180.000000        8.046131         2    ;  uncertainty k = 0.319675
        31         9        10        32     9        0.000000       -0.465801         3    ;  uncertainty k = 0.306075
        31         9        10        32     9      180.000000        0.142717         4    ;  uncertainty k = 0.161924
        33        11        12        34     9        0.000000       -0.021922         1    ;  uncertainty k = 0.115432
        33        11        12        34     9      180.000000        7.841865         2    ;  uncertainty k = 0.223805
        33        11        12        34     9        0.000000       -0.472004         3    ;  uncertainty k = 0.327377
        33        11        12        34     9      180.000000        0.162856         4    ;  uncertainty k = 0.152675
        35        14        15        36     9        0.000000        1.015875         1    ;  uncertainty k = 0.257480
        35        14        15        36     9      180.000000       -0.086527         2    ;  uncertainty k = 0.243797
        35        14        15        36     9        0.000000        0.084680         3    ;  uncertainty k = 0.114741
        35        14        15        36     9      180.000000        0.036730         4    ;  uncertainty k = 0.081513
        35        14        15        37     9        0.000000        1.015875         1    ;  uncertainty k = 0.257480
        35        14        15        37     9      180.000000       -0.086527         2    ;  uncertainty k = 0.243797
        35        14        15        37     9        0.000000        0.084680         3    ;  uncertainty k = 0.114741
        35        14        15        37     9      180.000000        0.036730         4    ;  uncertainty k = 0.081513
        35        14        20        39     9        0.000000        0.908188         1    ;  uncertainty k = 0.266376
        35        14        20        39     9      180.000000       -0.112103         2    ;  uncertainty k = 0.314879
        35        14        20        39     9        0.000000        0.101891         3    ;  uncertainty k = 0.081024
        35        14        20        39     9      180.000000        0.071320         4    ;  uncertainty k = 0.072464
        35        14        20        40     9        0.000000        0.908188         1    ;  uncertainty k = 0.266376
        35        14        20        40     9      180.000000       -0.112103         2    ;  uncertainty k = 0.314879
        35        14        20        40     9        0.000000        0.101891         3    ;  uncertainty k = 0.081024
        35        14        20        40     9      180.000000        0.071320         4    ;  uncertainty k = 0.072464

[ dihedrals ] ; impropers
;       ai        aj        ak        al funct           phase               k        pn
         2         1         3        11     4      180.000000        3.771799         2    ;  uncertainty k = 0.092379
         2         3        11         1     4      180.000000        3.771799         2    ;  uncertainty k = 0.092379
         2        11         1         3     4      180.000000        3.771799         2    ;  uncertainty k = 0.092379
         3         2         4        28     4      180.000000        3.708917         2    ;  uncertainty k = 0.188534
         3         4        28         2     4      180.000000        3.708917         2    ;  uncertainty k = 0.188534
         3        28         2         4     4      180.000000        3.708917         2    ;  uncertainty k = 0.188534
         4         3         5        13     4      180.000000       16.861262         2    ;  uncertainty k = 0.129417
         4         5        13         3     4      180.000000       16.861262         2    ;  uncertainty k = 0.129417
         4        13         3         5     4      180.000000       16.861262         2    ;  uncertainty k = 0.129417
         5         4         6        10     4      180.000000       13.212664         2    ;  uncertainty k = 0.105812
         5         6        10         4     4      180.000000       13.212664         2    ;  uncertainty k = 0.105812
         5        10         4         6     4      180.000000       13.212664         2    ;  uncertainty k = 0.105812
         6         5         7        29     4      180.000000       13.467428         2    ;  uncertainty k = 0.043613
         6         7        29         5     4      180.000000       13.467428         2    ;  uncertainty k = 0.043613
         6        29         5         7     4      180.000000       13.467428         2    ;  uncertainty k = 0.043613
         8         7         9        30     4      180.000000       13.295871         2    ;  uncertainty k = 0.022980
         8         9        30         7     4      180.000000       13.295871         2    ;  uncertainty k = 0.022980
         8        30         7         9     4      180.000000       13.295871         2    ;  uncertainty k = 0.022980
         9         8        10        31     4      180.000000        3.468943         2    ;  uncertainty k = 0.250012
         9        10        31         8     4      180.000000        3.468943         2    ;  uncertainty k = 0.250012
         9        31         8        10     4      180.000000        3.468943         2    ;  uncertainty k = 0.250012
        10         5         9        32     4      180.000000        5.991030         2    ;  uncertainty k = 0.170068
        10         9        32         5     4      180.000000        5.991030         2    ;  uncertainty k = 0.170068
        10        32         5         9     4      180.000000        5.991030         2    ;  uncertainty k = 0.170068
        11         2        12        33     4      180.000000        3.912087         2    ;  uncertainty k = 0.135146
        11        12        33         2     4      180.000000        3.912087         2    ;  uncertainty k = 0.135146
        11        33         2        12     4      180.000000        3.912087         2    ;  uncertainty k = 0.135146
        12        11        13        34     4      180.000000        3.779829         2    ;  uncertainty k = 0.310205
        12        13        34        11     4      180.000000        3.779829         2    ;  uncertainty k = 0.310205
        12        34        11        13     4      180.000000        3.779829         2    ;  uncertainty k = 0.310205
        13         4        12        14     4      180.000000       15.153327         2    ;  uncertainty k = 0.120548
        13        12        14         4     4      180.000000       15.153327         2    ;  uncertainty k = 0.120548
        13        14         4        12     4      180.000000       15.153327         2    ;  uncertainty k = 0.120548
        16        15        17        19     4      180.000000       20.140377         2    ;  uncertainty k = 0.038065
        16        17        19        15     4      180.000000       20.140377         2    ;  uncertainty k = 0.038065
        16        19        15        17     4      180.000000       20.140377         2    ;  uncertainty k = 0.038065
        19        16        21        26     4      180.000000        7.009766         2    ;  uncertainty k = 0.510332
        19        21        26        16     4      180.000000        7.009766         2    ;  uncertainty k = 0.510332
        19        26        16        21     4      180.000000        7.009766         2    ;  uncertainty k = 0.510332
        21        19        20        22     4      180.000000       30.864079         2    ;  uncertainty k = 0.115894
        21        20        22        19     4      180.000000       30.864079         2    ;  uncertainty k = 0.115894
        21        22        19        20     4      180.000000       30.864079         2    ;  uncertainty k = 0.115894
        23        22        24        25     4      180.000000       47.643324         2    ;  uncertainty k = 0.088982
        23        24        25        22     4      180.000000       47.643324         2    ;  uncertainty k = 0.088982
        23        25        22        24     4      180.000000       47.643324         2    ;  uncertainty k = 0.088982
        24        23        41        42     4      180.000000        0.305102         2    ;  uncertainty k = 0.433595
        24        41        42        23     4      180.000000        0.305102         2    ;  uncertainty k = 0.433595
        24        42        23        41     4      180.000000        0.305102         2    ;  uncertainty k = 0.433595
        26        19        25        27     4      180.000000       31.633238         2    ;  uncertainty k = 0.098581
        26        25        27        19     4      180.000000       31.633238         2    ;  uncertainty k = 0.098581
        26        27        19        25     4      180.000000       31.633238         2    ;  uncertainty k = 0.098581

[ pairs ]
;       ai        aj funct
         1         4     1
         1        12     1
         1        28     1
         1        33     1
         2         5     1
         2        13     1
         2        34     1
         3         6     1
         3        10     1
         3        12     1
         3        14     1
         3        33     1
         4         7     1
         4         9     1
         4        11     1
         4        15     1
         4        20     1
         4        29     1
         4        32     1
         4        34     1
         4        35     1
         5         8     1
         5        12     1
         5        14     1
         5        28     1
         5        31     1
         6         9     1
         6        13     1
         6        30     1
         6        32     1
         7        10     1
         7        31     1
         8        29     1
         8        32     1
        10        13     1
        10        29     1
        10        30     1
        11        14     1
        11        28     1
        12        15     1
        12        20     1
        12        35     1
        13        16     1
        13        21     1
        13        28     1
        13        33     1
        13        36     1
        13        37     1
        13        39     1
        13        40     1
        14        17     1
        14        19     1
        14        22     1
        14        34     1
        15        18     1
        15        21     1
        15        26     1
        15        39     1
        15        40     1
        16        20     1
        16        22     1
        16        25     1
        16        27     1
        16        35     1
        16        38     1
        17        21     1
        17        26     1
        17        36     1
        17        37     1
        18        19     1
        19        23     1
        19        36     1
        19        37     1
        19        39     1
        19        40     1
        19        43     1
        19        44     1
        19        45     1
        20        23     1
        20        26     1
        20        36     1
        20        37     1
        21        24     1
        21        25     1
        21        27     1
        21        35     1
        22        26     1
        22        39     1
        22        40     1
        22        41     1
        22        42     1
        23        27     1
        24        26     1
        25        41     1
        25        42     1
        25        43     1
        25        44     1
        25        45     1
        30        31     1
        31        32     1
        33        34     1
        35        36     1
        35        37     1
        35        39     1
        35        40     1
