; ITP file created by ByteFF-ML, 2025-12-06 04:38:34.744229

[ atomtypes ]
;name           bonded.type        at.num        mass        charge   ptype           sigma         epsilon
 n0bf                                   7      0.0000       0.00000       A     3.38432e-01     3.91971e-01
 n1bf                                   7      0.0000       0.00000       A     3.38091e-01     3.88523e-01
 c2bf                                   6      0.0000       0.00000       A     3.31539e-01     4.10423e-01
 c3bf                                   6      0.0000       0.00000       A     3.31222e-01     4.13851e-01
 n4bf                                   7      0.0000       0.00000       A     3.38445e-01     3.92580e-01
 c5bf                                   6      0.0000       0.00000       A     3.31386e-01     4.16721e-01
 c6bf                                   6      0.0000       0.00000       A     3.31494e-01     4.13000e-01
 c7bf                                   6      0.0000       0.00000       A     3.31488e-01     4.13045e-01
 c8bf                                   6      0.0000       0.00000       A     3.31453e-01     4.13195e-01
 c9bf                                   6      0.0000       0.00000       A     3.31396e-01     4.15401e-01
 c10bf                                  6      0.0000       0.00000       A     3.31453e-01     4.13195e-01
 c11bf                                  6      0.0000       0.00000       A     3.31488e-01     4.13045e-01
 c12bf                                  6      0.0000       0.00000       A     3.31494e-01     4.13000e-01
 c13bf                                  6      0.0000       0.00000       A     3.31488e-01     4.13045e-01
 c14bf                                  6      0.0000       0.00000       A     3.31446e-01     4.13138e-01
 c15bf                                  6      0.0000       0.00000       A     3.31460e-01     4.14367e-01
 c16bf                                  6      0.0000       0.00000       A     3.31446e-01     4.13136e-01
 c17bf                                  6      0.0000       0.00000       A     3.31488e-01     4.13045e-01
 n18bf                                  7      0.0000       0.00000       A     3.36783e-01     4.69230e-01
 h19bf                                  1      0.0000       0.00000       A     2.62488e-01     6.75042e-02
 h20bf                                  1      0.0000       0.00000       A     2.62488e-01     6.75042e-02
 h21bf                                  1      0.0000       0.00000       A     2.62457e-01     6.73477e-02
 h22bf                                  1      0.0000       0.00000       A     2.62467e-01     6.73573e-02
 h23bf                                  1      0.0000       0.00000       A     2.62488e-01     6.75042e-02
 h24bf                                  1      0.0000       0.00000       A     2.62488e-01     6.75042e-02
 h25bf                                  1      0.0000       0.00000       A     2.62467e-01     6.73573e-02
 h26bf                                  1      0.0000       0.00000       A     1.10093e-01     4.19894e-02
 h27bf                                  1      0.0000       0.00000       A     1.10093e-01     4.19894e-02
 h28bf                                  1      0.0000       0.00000       A     2.62467e-01     6.73573e-02
 h29bf                                  1      0.0000       0.00000       A     2.62467e-01     6.73573e-02
 h30bf                                  1      0.0000       0.00000       A     2.62457e-01     6.73477e-02

[ moleculetype ]
;name             nrexcl
 4a_flipped            3

[ atoms ]
;       nr            type      resi   res      atom      cgnr      charge          mass ; qtot
         1            n0bf         1   UNL        n0         1    -0.15275       14.0070 ; qtot   -0.153
         2            n1bf         1   UNL        n1         2    -0.24734       14.0070 ; qtot   -0.400
         3            c2bf         1   UNL        c2         3     0.27146       12.0110 ; qtot   -0.129
         4            c3bf         1   UNL        c3         4     0.20079       12.0110 ; qtot    0.072
         5            n4bf         1   UNL        n4         5    -0.22989       14.0070 ; qtot   -0.158
         6            c5bf         1   UNL        c5         6     0.30797       12.0110 ; qtot    0.150
         7            c6bf         1   UNL        c6         7    -0.09693       12.0110 ; qtot    0.053
         8            c7bf         1   UNL        c7         8    -0.11878       12.0110 ; qtot   -0.065
         9            c8bf         1   UNL        c8         9    -0.07512       12.0110 ; qtot   -0.141
        10            c9bf         1   UNL        c9        10    -0.15088       12.0110 ; qtot   -0.291
        11           c10bf         1   UNL       c10        11    -0.07512       12.0110 ; qtot   -0.367
        12           c11bf         1   UNL       c11        12    -0.11878       12.0110 ; qtot   -0.485
        13           c12bf         1   UNL       c12        13    -0.09693       12.0110 ; qtot   -0.582
        14           c13bf         1   UNL       c13        14    -0.11911       12.0110 ; qtot   -0.701
        15           c14bf         1   UNL       c14        15    -0.07492       12.0110 ; qtot   -0.776
        16           c15bf         1   UNL       c15        16    -0.16632       12.0110 ; qtot   -0.943
        17           c16bf         1   UNL       c16        17    -0.07492       12.0110 ; qtot   -1.018
        18           c17bf         1   UNL       c17        18    -0.11911       12.0110 ; qtot   -1.137
        19           n18bf         1   UNL       n18        19    -1.02351       14.0070 ; qtot   -2.160
        20           h19bf         1   UNL       h19        20     0.12539        1.0080 ; qtot   -2.035
        21           h20bf         1   UNL       h20        21     0.12539        1.0080 ; qtot   -1.909
        22           h21bf         1   UNL       h21        22     0.11588        1.0080 ; qtot   -1.794
        23           h22bf         1   UNL       h22        23     0.11665        1.0080 ; qtot   -1.677
        24           h23bf         1   UNL       h23        24     0.12492        1.0080 ; qtot   -1.552
        25           h24bf         1   UNL       h24        25     0.12492        1.0080 ; qtot   -1.427
        26           h25bf         1   UNL       h25        26     0.11665        1.0080 ; qtot   -1.310
        27           h26bf         1   UNL       h26        27     0.48059        1.0080 ; qtot   -0.830
        28           h27bf         1   UNL       h27        28     0.48059        1.0080 ; qtot   -0.349
        29           h28bf         1   UNL       h28        29     0.11665        1.0080 ; qtot   -0.233
        30           h29bf         1   UNL       h29        30     0.11665        1.0080 ; qtot   -0.116
        31           h30bf         1   UNL       h30        31     0.11591        1.0080 ; qtot   -0.000

[ bonds ]
;       ai        aj funct               r               k
         1         2     1        0.132260   299729.308105
         1         6     1        0.134751   240973.654541
         2         3     1        0.134177   275575.186426
         3         4     1        0.142626   212886.409424
         3        10     1        0.148511   207688.177588
         4         5     1        0.133549   327112.418506
         4        16     1        0.148484   207154.171094
         5         6     1        0.134351   271645.025293
         6        19     1        0.136992   327257.367139
         7         8     1        0.139955   305315.678467
         7        12     1        0.139955   305315.678467
         7        31     1        0.108618   320581.609229
         8         9     1        0.139636   313481.143652
         8        29     1        0.108630   319489.335986
         9        10     1        0.140449   286242.241309
         9        20     1        0.108481   322469.082520
        10        11     1        0.140449   286242.241309
        11        12     1        0.139636   313481.143652
        11        21     1        0.108481   322469.133594
        12        30     1        0.108630   319489.335986
        13        14     1        0.139955   305315.704004
        13        18     1        0.139955   305315.704004
        13        22     1        0.108618   320581.583691
        14        15     1        0.139631   313333.717920
        14        23     1        0.108630   319489.335986
        15        16     1        0.140491   285820.981152
        15        24     1        0.108482   322437.467578
        16        17     1        0.140491   285820.981152
        17        18     1        0.139631   313333.717920
        17        25     1        0.108482   322437.442041
        18        26     1        0.108630   319489.335986
        19        27     1        0.101097   429488.110742
        19        28     1        0.101097   429488.110742

[ angles ]
;       ai        aj        ak funct           theta             cth
         1         2         3     1      121.028946      830.791310
         1         6         5     1      125.882187      669.346853
         1         6        19     1      116.729599      637.422275
         2         1         6     1      117.699364      924.749677
         2         3         4     1      119.420547      767.729908
         2         3        10     1      115.203224      527.534305
         3         4         5     1      119.279663      775.071125
         3         4        16     1      124.775368      439.470254
         3        10         9     1      120.484352      493.325783
         3        10        11     1      120.484352      493.325783
         4         3        10     1      125.138077      439.475170
         4         5         6     1      116.549789      994.194718
         4        16        15     1      120.363159      499.700133
         4        16        17     1      120.363159      499.700133
         5         4        16     1      116.020462      482.430152
         5         6        19     1      116.922890      592.907965
         6        19        27     1      115.911415      477.678845
         6        19        28     1      115.911415      477.678845
         7         8         9     1      120.217384      725.150545
         7         8        29     1      120.091293      443.432943
         7        12        11     1      120.217384      725.150545
         7        12        30     1      120.091293      443.432943
         8         7        12     1      119.615746      659.890781
         8         7        31     1      120.215599      428.617653
         8         9        10     1      120.365860      699.863316
         8         9        20     1      119.964600      414.582074
         9         8        29     1      119.660667      431.261063
         9        10        11     1      119.153282      714.084613
        10         9        20     1      119.582199      390.903077
        10        11        12     1      120.365860      699.863252
        10        11        21     1      119.582199      390.903077
        11        12        30     1      119.660667      431.261063
        12         7        31     1      120.215599      428.617717
        12        11        21     1      119.964600      414.582074
        13        14        15     1      120.211388      725.285891
        13        14        23     1      120.091293      443.432943
        13        18        17     1      120.211388      725.285955
        13        18        26     1      120.091293      443.432943
        14        13        18     1      119.615746      659.890781
        14        13        22     1      120.215599      428.617717
        14        15        16     1      120.435951      701.577558
        14        15        24     1      119.975220      414.450271
        15        14        23     1      119.671829      431.194603
        15        16        17     1      119.073425      716.183763
        16        15        24     1      119.531387      388.633435
        16        17        18     1      120.435951      701.577558
        16        17        25     1      119.531372      388.633435
        17        18        26     1      119.671829      431.194603
        18        13        22     1      120.215599      428.617717
        18        17        25     1      119.975220      414.450271
        27        19        28     1      117.818871      318.801187

[ dihedrals ] ; propers for gromacs 4.5 or higher, use funct 9
;       ai        aj        ak        al funct           phase               k        pn
         1         2         3         4     9        0.000000        1.091609         1
         1         2         3         4     9      180.000000       22.531615         2
         1         2         3         4     9        0.000000        1.330124         3
         1         2         3         4     9      180.000000       -0.931324         4
         1         2         3        10     9        0.000000        0.741646         1
         1         2         3        10     9      180.000000       25.162452         2
         1         2         3        10     9        0.000000        2.269360         3
         1         2         3        10     9      180.000000       -1.491772         4
         1         6         5         4     9        0.000000        0.617944         1
         1         6         5         4     9      180.000000        9.528009         2
         1         6         5         4     9        0.000000        0.428162         3
         1         6         5         4     9      180.000000       -0.490773         4
         1         6        19        27     9        0.000000        2.084886         1
         1         6        19        27     9      180.000000        7.869700         2
         1         6        19        27     9        0.000000       -0.285384         3
         1         6        19        27     9      180.000000       -0.670789         4
         1         6        19        28     9        0.000000        2.084886         1
         1         6        19        28     9      180.000000        7.869700         2
         1         6        19        28     9        0.000000       -0.285384         3
         1         6        19        28     9      180.000000       -0.670789         4
         2         1         6         5     9        0.000000        0.996669         1
         2         1         6         5     9      180.000000        9.806670         2
         2         1         6         5     9        0.000000        1.154760         3
         2         1         6         5     9      180.000000       -0.713160         4
         2         1         6        19     9        0.000000        1.188860         1
         2         1         6        19     9      180.000000       18.423536         2
         2         1         6        19     9        0.000000        0.534243         3
         2         1         6        19     9      180.000000       -1.308435         4
         2         3         4         5     9        0.000000        1.932579         1
         2         3         4         5     9      180.000000        2.877804         2
         2         3         4         5     9        0.000000        0.518817         3
         2         3         4         5     9      180.000000       -0.440565         4
         2         3         4        16     9        0.000000       -2.414566         1
         2         3         4        16     9      180.000000        2.301056         2
         2         3         4        16     9        0.000000       -0.156658         3
         2         3         4        16     9      180.000000       -0.776670         4
         2         3        10         9     9        0.000000        0.064045         1
         2         3        10         9     9      180.000000        3.799065         2
         2         3        10         9     9        0.000000        0.084152         3
         2         3        10         9     9      180.000000       -0.026373         4
         2         3        10        11     9        0.000000        0.064045         1
         2         3        10        11     9      180.000000        3.799065         2
         2         3        10        11     9        0.000000        0.084152         3
         2         3        10        11     9      180.000000       -0.026373         4
         3         2         1         6     9        0.000000        0.332419         1
         3         2         1         6     9      180.000000       21.821027         2
         3         2         1         6     9        0.000000        0.442126         3
         3         2         1         6     9      180.000000       -0.601342         4
         3         4         5         6     9        0.000000       -0.364314         1
         3         4         5         6     9      180.000000       18.428911         2
         3         4         5         6     9        0.000000       -1.021552         3
         3         4         5         6     9      180.000000       -0.267591         4
         3         4        16        15     9        0.000000       -0.001178         1
         3         4        16        15     9      180.000000        2.918049         2
         3         4        16        15     9        0.000000        0.236105         3
         3         4        16        15     9      180.000000       -0.257048         4
         3         4        16        17     9        0.000000       -0.001178         1
         3         4        16        17     9      180.000000        2.918049         2
         3         4        16        17     9        0.000000        0.236105         3
         3         4        16        17     9      180.000000       -0.257048         4
         3        10         9         8     9        0.000000        0.108569         1
         3        10         9         8     9      180.000000       15.456800         2
         3        10         9         8     9        0.000000       -0.246620         3
         3        10         9         8     9      180.000000       -0.257266         4
         3        10         9        20     9        0.000000       -0.126389         1
         3        10         9        20     9      180.000000       12.611966         2
         3        10         9        20     9        0.000000       -0.290576         3
         3        10         9        20     9      180.000000        0.150189         4
         3        10        11        12     9        0.000000        0.108569         1
         3        10        11        12     9      180.000000       15.456800         2
         3        10        11        12     9        0.000000       -0.246620         3
         3        10        11        12     9      180.000000       -0.257266         4
         3        10        11        21     9        0.000000       -0.126389         1
         3        10        11        21     9      180.000000       12.611966         2
         3        10        11        21     9        0.000000       -0.290576         3
         3        10        11        21     9      180.000000        0.150189         4
         4         3        10         9     9        0.000000       -0.140003         1
         4         3        10         9     9      180.000000        2.282038         2
         4         3        10         9     9        0.000000        0.173541         3
         4         3        10         9     9      180.000000       -0.245089         4
         4         3        10        11     9        0.000000       -0.140003         1
         4         3        10        11     9      180.000000        2.282038         2
         4         3        10        11     9        0.000000        0.173541         3
         4         3        10        11     9      180.000000       -0.245089         4
         4         5         6        19     9        0.000000        0.844283         1
         4         5         6        19     9      180.000000       18.398514         2
         4         5         6        19     9        0.000000        0.300675         3
         4         5         6        19     9      180.000000       -1.336364         4
         4        16        15        14     9        0.000000        0.080921         1
         4        16        15        14     9      180.000000       15.488456         2
         4        16        15        14     9        0.000000       -0.333854         3
         4        16        15        14     9      180.000000       -0.328331         4
         4        16        15        24     9        0.000000       -0.146915         1
         4        16        15        24     9      180.000000       12.770795         2
         4        16        15        24     9        0.000000       -0.317068         3
         4        16        15        24     9      180.000000        0.120986         4
         4        16        17        18     9        0.000000        0.080922         1
         4        16        17        18     9      180.000000       15.488454         2
         4        16        17        18     9        0.000000       -0.333854         3
         4        16        17        18     9      180.000000       -0.328331         4
         4        16        17        25     9        0.000000       -0.146915         1
         4        16        17        25     9      180.000000       12.770795         2
         4        16        17        25     9        0.000000       -0.317069         3
         4        16        17        25     9      180.000000        0.120986         4
         5         4         3        10     9        0.000000       -1.604065         1
         5         4         3        10     9      180.000000        5.293459         2
         5         4         3        10     9        0.000000       -0.012611         3
         5         4         3        10     9      180.000000       -0.858124         4
         5         4        16        15     9        0.000000       -0.010757         1
         5         4        16        15     9      180.000000        4.627989         2
         5         4        16        15     9        0.000000       -0.004937         3
         5         4        16        15     9      180.000000        0.186679         4
         5         4        16        17     9        0.000000       -0.010757         1
         5         4        16        17     9      180.000000        4.627990         2
         5         4        16        17     9        0.000000       -0.004937         3
         5         4        16        17     9      180.000000        0.186679         4
         5         6        19        27     9        0.000000        1.716704         1
         5         6        19        27     9      180.000000        8.533549         2
         5         6        19        27     9        0.000000       -0.306059         3
         5         6        19        27     9      180.000000       -0.822715         4
         5         6        19        28     9        0.000000        1.716704         1
         5         6        19        28     9      180.000000        8.533549         2
         5         6        19        28     9        0.000000       -0.306059         3
         5         6        19        28     9      180.000000       -0.822715         4
         6         5         4        16     9        0.000000        0.243669         1
         6         5         4        16     9      180.000000       20.408581         2
         6         5         4        16     9        0.000000       -0.004642         3
         6         5         4        16     9      180.000000       -0.903313         4
         7         8         9        10     9        0.000000        0.037416         1
         7         8         9        10     9      180.000000       19.125441         2
         7         8         9        10     9        0.000000       -1.523652         3
         7         8         9        10     9      180.000000       -0.498022         4
         7         8         9        20     9        0.000000        0.054043         1
         7         8         9        20     9      180.000000       15.054028         2
         7         8         9        20     9        0.000000       -0.694524         3
         7         8         9        20     9      180.000000        0.070405         4
         7        12        11        10     9        0.000000        0.037416         1
         7        12        11        10     9      180.000000       19.125441         2
         7        12        11        10     9        0.000000       -1.523652         3
         7        12        11        10     9      180.000000       -0.498022         4
         7        12        11        21     9        0.000000        0.054043         1
         7        12        11        21     9      180.000000       15.054028         2
         7        12        11        21     9        0.000000       -0.694524         3
         7        12        11        21     9      180.000000        0.070405         4
         8         7        12        11     9        0.000000       -0.019274         1
         8         7        12        11     9      180.000000       18.555794         2
         8         7        12        11     9        0.000000       -1.555999         3
         8         7        12        11     9      180.000000       -0.360803         4
         8         7        12        30     9        0.000000       -0.012177         1
         8         7        12        30     9      180.000000       14.387129         2
         8         7        12        30     9        0.000000       -0.717057         3
         8         7        12        30     9      180.000000        0.168766         4
         8         9        10        11     9        0.000000       -0.074945         1
         8         9        10        11     9      180.000000       18.707383         2
         8         9        10        11     9        0.000000       -1.344377         3
         8         9        10        11     9      180.000000       -0.473653         4
         9         8         7        12     9        0.000000       -0.019274         1
         9         8         7        12     9      180.000000       18.555794         2
         9         8         7        12     9        0.000000       -1.555999         3
         9         8         7        12     9      180.000000       -0.360803         4
         9         8         7        31     9        0.000000        0.054603         1
         9         8         7        31     9      180.000000       13.781386         2
         9         8         7        31     9        0.000000       -0.702189         3
         9         8         7        31     9      180.000000        0.162906         4
         9        10        11        12     9        0.000000       -0.074945         1
         9        10        11        12     9      180.000000       18.707383         2
         9        10        11        12     9        0.000000       -1.344377         3
         9        10        11        12     9      180.000000       -0.473653         4
         9        10        11        21     9        0.000000        0.024865         1
         9        10        11        21     9      180.000000       14.131007         2
         9        10        11        21     9        0.000000       -0.536955         3
         9        10        11        21     9      180.000000        0.027862         4
        10         3         4        16     9        0.000000        0.709604         1
        10         3         4        16     9      180.000000        5.536250         2
        10         3         4        16     9        0.000000        0.367706         3
        10         3         4        16     9      180.000000       -0.580898         4
        10         9         8        29     9        0.000000       -0.005120         1
        10         9         8        29     9      180.000000       15.223418         2
        10         9         8        29     9        0.000000       -0.574408         3
        10         9         8        29     9      180.000000       -0.007662         4
        10        11        12        30     9        0.000000       -0.005120         1
        10        11        12        30     9      180.000000       15.223418         2
        10        11        12        30     9        0.000000       -0.574408         3
        10        11        12        30     9      180.000000       -0.007662         4
        11        10         9        20     9        0.000000        0.024865         1
        11        10         9        20     9      180.000000       14.131007         2
        11        10         9        20     9        0.000000       -0.536955         3
        11        10         9        20     9      180.000000        0.027862         4
        11        12         7        31     9        0.000000        0.054603         1
        11        12         7        31     9      180.000000       13.781386         2
        11        12         7        31     9        0.000000       -0.702189         3
        11        12         7        31     9      180.000000        0.162906         4
        12         7         8        29     9        0.000000       -0.012177         1
        12         7         8        29     9      180.000000       14.387129         2
        12         7         8        29     9        0.000000       -0.717057         3
        12         7         8        29     9      180.000000        0.168766         4
        13        14        15        16     9        0.000000        0.045085         1
        13        14        15        16     9      180.000000       19.128221         2
        13        14        15        16     9        0.000000       -1.471931         3
        13        14        15        16     9      180.000000       -0.521708         4
        13        14        15        24     9        0.000000        0.064860         1
        13        14        15        24     9      180.000000       15.029547         2
        13        14        15        24     9        0.000000       -0.687676         3
        13        14        15        24     9      180.000000        0.070746         4
        13        18        17        16     9        0.000000        0.045085         1
        13        18        17        16     9      180.000000       19.128223         2
        13        18        17        16     9        0.000000       -1.471931         3
        13        18        17        16     9      180.000000       -0.521708         4
        13        18        17        25     9        0.000000        0.064861         1
        13        18        17        25     9      180.000000       15.029547         2
        13        18        17        25     9        0.000000       -0.687677         3
        13        18        17        25     9      180.000000        0.070746         4
        14        13        18        17     9        0.000000       -0.012905         1
        14        13        18        17     9      180.000000       18.557273         2
        14        13        18        17     9        0.000000       -1.563998         3
        14        13        18        17     9      180.000000       -0.362525         4
        14        13        18        26     9        0.000000       -0.012176         1
        14        13        18        26     9      180.000000       14.387129         2
        14        13        18        26     9        0.000000       -0.717057         3
        14        13        18        26     9      180.000000        0.168766         4
        14        15        16        17     9        0.000000       -0.050872         1
        14        15        16        17     9      180.000000       18.634540         2
        14        15        16        17     9        0.000000       -1.319344         3
        14        15        16        17     9      180.000000       -0.454742         4
        15        14        13        18     9        0.000000       -0.012906         1
        15        14        13        18     9      180.000000       18.557273         2
        15        14        13        18     9        0.000000       -1.563998         3
        15        14        13        18     9      180.000000       -0.362525         4
        15        14        13        22     9        0.000000        0.054760         1
        15        14        13        22     9      180.000000       13.766277         2
        15        14        13        22     9        0.000000       -0.709421         3
        15        14        13        22     9      180.000000        0.167938         4
        15        16        17        18     9        0.000000       -0.050872         1
        15        16        17        18     9      180.000000       18.634536         2
        15        16        17        18     9        0.000000       -1.319343         3
        15        16        17        18     9      180.000000       -0.454743         4
        15        16        17        25     9        0.000000        0.068123         1
        15        16        17        25     9      180.000000       14.251022         2
        15        16        17        25     9        0.000000       -0.519433         3
        15        16        17        25     9      180.000000        0.018507         4
        16        15        14        23     9        0.000000       -0.025973         1
        16        15        14        23     9      180.000000       15.086199         2
        16        15        14        23     9        0.000000       -0.567660         3
        16        15        14        23     9      180.000000        0.001579         4
        16        17        18        26     9        0.000000       -0.025974         1
        16        17        18        26     9      180.000000       15.086199         2
        16        17        18        26     9        0.000000       -0.567659         3
        16        17        18        26     9      180.000000        0.001579         4
        17        16        15        24     9        0.000000        0.068124         1
        17        16        15        24     9      180.000000       14.251022         2
        17        16        15        24     9        0.000000       -0.519434         3
        17        16        15        24     9      180.000000        0.018507         4
        17        18        13        22     9        0.000000        0.054760         1
        17        18        13        22     9      180.000000       13.766277         2
        17        18        13        22     9        0.000000       -0.709421         3
        17        18        13        22     9      180.000000        0.167938         4
        18        13        14        23     9        0.000000       -0.012178         1
        18        13        14        23     9      180.000000       14.387131         2
        18        13        14        23     9        0.000000       -0.717057         3
        18        13        14        23     9      180.000000        0.168766         4
        20         9         8        29     9        0.000000       -0.172897         1
        20         9         8        29     9      180.000000       12.231033         2
        20         9         8        29     9        0.000000       -0.699817         3
        20         9         8        29     9      180.000000        0.281948         4
        21        11        12        30     9        0.000000       -0.172897         1
        21        11        12        30     9      180.000000       12.231033         2
        21        11        12        30     9        0.000000       -0.699817         3
        21        11        12        30     9      180.000000        0.281948         4
        22        13        14        23     9        0.000000       -0.083985         1
        22        13        14        23     9      180.000000       11.297506         2
        22        13        14        23     9        0.000000       -0.541472         3
        22        13        14        23     9      180.000000        0.257965         4
        22        13        18        26     9        0.000000       -0.083986         1
        22        13        18        26     9      180.000000       11.297506         2
        22        13        18        26     9        0.000000       -0.541472         3
        22        13        18        26     9      180.000000        0.257966         4
        23        14        15        24     9        0.000000       -0.167083         1
        23        14        15        24     9      180.000000       12.251291         2
        23        14        15        24     9        0.000000       -0.693635         3
        23        14        15        24     9      180.000000        0.279541         4
        25        17        18        26     9        0.000000       -0.167082         1
        25        17        18        26     9      180.000000       12.251293         2
        25        17        18        26     9        0.000000       -0.693636         3
        25        17        18        26     9      180.000000        0.279540         4
        29         8         7        31     9        0.000000       -0.083984         1
        29         8         7        31     9      180.000000       11.297505         2
        29         8         7        31     9        0.000000       -0.541472         3
        29         8         7        31     9      180.000000        0.257966         4
        30        12         7        31     9        0.000000       -0.083984         1
        30        12         7        31     9      180.000000       11.297505         2
        30        12         7        31     9        0.000000       -0.541472         3
        30        12         7        31     9      180.000000        0.257966         4

[ dihedrals ] ; impropers
;       ai        aj        ak        al funct           phase               k        pn
         3         2         4        10     4      180.000000        1.468914         2
         3         4        10         2     4      180.000000        1.468914         2
         3        10         2         4     4      180.000000        1.468914         2
         4         3         5        16     4      180.000000       10.192960         2
         4         5        16         3     4      180.000000       10.192960         2
         4        16         3         5     4      180.000000       10.192960         2
         6         1         5        19     4      180.000000        5.578667         2
         6         5        19         1     4      180.000000        5.578667         2
         6        19         1         5     4      180.000000        5.578667         2
         8         7         9        29     4      180.000000        5.867962         2
         8         9        29         7     4      180.000000        5.867962         2
         8        29         7         9     4      180.000000        5.867962         2
         9         8        10        20     4      180.000000        2.019201         2
         9        10        20         8     4      180.000000        2.019201         2
         9        20         8        10     4      180.000000        2.019201         2
        11        10        12        21     4      180.000000        2.019201         2
        11        12        21        10     4      180.000000        2.019201         2
        11        21        10        12     4      180.000000        2.019201         2
        12         7        11        30     4      180.000000        5.867962         2
        12        11        30         7     4      180.000000        5.867962         2
        12        30         7        11     4      180.000000        5.867962         2
        14        13        15        23     4      180.000000        6.002971         2
        14        15        23        13     4      180.000000        6.002971         2
        14        23        13        15     4      180.000000        6.002971         2
        15        14        16        24     4      180.000000        0.979441         2
        15        16        24        14     4      180.000000        0.979441         2
        15        24        14        16     4      180.000000        0.979441         2
        17        16        18        25     4      180.000000        0.979441         2
        17        18        25        16     4      180.000000        0.979441         2
        17        25        16        18     4      180.000000        0.979441         2
        18        13        17        26     4      180.000000        6.002970         2
        18        17        26        13     4      180.000000        6.002970         2
        18        26        13        17     4      180.000000        6.002970         2

[ pairs ]
;       ai        aj funct
         1         4     1
         1        10     1
         1        27     1
         1        28     1
         2         5     1
         2         9     1
         2        11     1
         2        16     1
         2        19     1
         3         6     1
         3         8     1
         3        12     1
         3        15     1
         3        17     1
         3        20     1
         3        21     1
         4         9     1
         4        11     1
         4        14     1
         4        18     1
         4        19     1
         4        24     1
         4        25     1
         5        10     1
         5        15     1
         5        17     1
         5        27     1
         5        28     1
         6        16     1
         7        10     1
         7        20     1
         7        21     1
         8        11     1
         8        30     1
         9        12     1
         9        21     1
         9        31     1
        10        16     1
        10        29     1
        10        30     1
        11        20     1
        11        31     1
        12        29     1
        13        16     1
        13        24     1
        13        25     1
        14        17     1
        14        26     1
        15        18     1
        15        22     1
        15        25     1
        16        23     1
        16        26     1
        17        22     1
        17        24     1
        18        23     1
        20        29     1
        21        30     1
        22        23     1
        22        26     1
        23        24     1
        25        26     1
        29        31     1
        30        31     1
