; ITP file created by ByteFF-ML, 2025-12-06 04:37:56.746546

[ atomtypes ]
;name           bonded.type        at.num        mass        charge   ptype           sigma         epsilon
 n0bf                                   7      0.0000       0.00000       A     3.38432e-01     3.91971e-01
 n1bf                                   7      0.0000       0.00000       A     3.38091e-01     3.88523e-01
 c2bf                                   6      0.0000       0.00000       A     3.31547e-01     4.09823e-01
 c3bf                                   6      0.0000       0.00000       A     3.31222e-01     4.13851e-01
 n4bf                                   7      0.0000       0.00000       A     3.38445e-01     3.92580e-01
 c5bf                                   6      0.0000       0.00000       A     3.31386e-01     4.16721e-01
 c6bf                                   6      0.0000       0.00000       A     3.31497e-01     4.13988e-01
 c7bf                                   6      0.0000       0.00000       A     3.31460e-01     4.12523e-01
 c8bf                                   6      0.0000       0.00000       A     3.31467e-01     4.13216e-01
 c9bf                                   6      0.0000       0.00000       A     3.31358e-01     4.14177e-01
 c10bf                                  6      0.0000       0.00000       A     3.31467e-01     4.13216e-01
 c11bf                                  6      0.0000       0.00000       A     3.31460e-01     4.12523e-01
 c12bf                                  6      0.0000       0.00000       A     3.31494e-01     4.13000e-01
 c13bf                                  6      0.0000       0.00000       A     3.31488e-01     4.13045e-01
 c14bf                                  6      0.0000       0.00000       A     3.31446e-01     4.13138e-01
 c15bf                                  6      0.0000       0.00000       A     3.31460e-01     4.14367e-01
 c16bf                                  6      0.0000       0.00000       A     3.31446e-01     4.13138e-01
 c17bf                                  6      0.0000       0.00000       A     3.31488e-01     4.13045e-01
 n18bf                                  7      0.0000       0.00000       A     3.36783e-01     4.69230e-01
 h19bf                                  1      0.0000       0.00000       A     2.62530e-01     6.75919e-02
 h20bf                                  1      0.0000       0.00000       A     2.62530e-01     6.75919e-02
 h21bf                                  1      0.0000       0.00000       A     2.62457e-01     6.73477e-02
 h22bf                                  1      0.0000       0.00000       A     2.62467e-01     6.73573e-02
 h23bf                                  1      0.0000       0.00000       A     2.62488e-01     6.75042e-02
 h24bf                                  1      0.0000       0.00000       A     2.62488e-01     6.75042e-02
 h25bf                                  1      0.0000       0.00000       A     2.62467e-01     6.73573e-02
 h26bf                                  1      0.0000       0.00000       A     1.10093e-01     4.19894e-02
 h27bf                                  1      0.0000       0.00000       A     1.10093e-01     4.19894e-02
 c28bf                                  6      0.0000       0.00000       A     3.39813e-01     4.50692e-01
 c29bf                                  6      0.0000       0.00000       A     3.39813e-01     4.50692e-01
 h30bf                                  1      0.0000       0.00000       A     2.62488e-01     6.74371e-02
 h31bf                                  1      0.0000       0.00000       A     2.59993e-01     8.72348e-02
 h32bf                                  1      0.0000       0.00000       A     2.59993e-01     8.72348e-02
 h33bf                                  1      0.0000       0.00000       A     2.59993e-01     8.72348e-02
 h34bf                                  1      0.0000       0.00000       A     2.59993e-01     8.72348e-02
 h35bf                                  1      0.0000       0.00000       A     2.59993e-01     8.72348e-02
 h36bf                                  1      0.0000       0.00000       A     2.59993e-01     8.72348e-02

[ moleculetype ]
;name             nrexcl
 4d                    3

[ atoms ]
;       nr            type      resi   res      atom      cgnr      charge          mass ; qtot
         1            n0bf         1   UNL        n0         1    -0.15275       14.0070 ; qtot   -0.153
         2            n1bf         1   UNL        n1         2    -0.24734       14.0070 ; qtot   -0.400
         3            c2bf         1   UNL        c2         3     0.27239       12.0110 ; qtot   -0.128
         4            c3bf         1   UNL        c3         4     0.20014       12.0110 ; qtot    0.072
         5            n4bf         1   UNL        n4         5    -0.22989       14.0070 ; qtot   -0.157
         6            c5bf         1   UNL        c5         6     0.30797       12.0110 ; qtot    0.151
         7            c6bf         1   UNL        c6         7    -0.09964       12.0110 ; qtot    0.051
         8            c7bf         1   UNL        c7         8    -0.07912       12.0110 ; qtot   -0.028
         9            c8bf         1   UNL        c8         9    -0.08069       12.0110 ; qtot   -0.109
        10            c9bf         1   UNL        c9        10    -0.14516       12.0110 ; qtot   -0.254
        11           c10bf         1   UNL       c10        11    -0.08069       12.0110 ; qtot   -0.335
        12           c11bf         1   UNL       c11        12    -0.07912       12.0110 ; qtot   -0.414
        13           c12bf         1   UNL       c12        13    -0.09693       12.0110 ; qtot   -0.511
        14           c13bf         1   UNL       c13        14    -0.11911       12.0110 ; qtot   -0.630
        15           c14bf         1   UNL       c14        15    -0.07492       12.0110 ; qtot   -0.705
        16           c15bf         1   UNL       c15        16    -0.16632       12.0110 ; qtot   -0.871
        17           c16bf         1   UNL       c16        17    -0.07492       12.0110 ; qtot   -0.946
        18           c17bf         1   UNL       c17        18    -0.11911       12.0110 ; qtot   -1.065
        19           n18bf         1   UNL       n18        19    -1.02351       14.0070 ; qtot   -2.089
        20           h19bf         1   UNL       h19        20     0.12446        1.0080 ; qtot   -1.964
        21           h20bf         1   UNL       h20        21     0.12446        1.0080 ; qtot   -1.840
        22           h21bf         1   UNL       h21        22     0.11588        1.0080 ; qtot   -1.724
        23           h22bf         1   UNL       h22        23     0.11665        1.0080 ; qtot   -1.607
        24           h23bf         1   UNL       h23        24     0.12492        1.0080 ; qtot   -1.482
        25           h24bf         1   UNL       h24        25     0.12492        1.0080 ; qtot   -1.357
        26           h25bf         1   UNL       h25        26     0.11665        1.0080 ; qtot   -1.241
        27           h26bf         1   UNL       h26        27     0.48059        1.0080 ; qtot   -0.760
        28           h27bf         1   UNL       h27        28     0.48059        1.0080 ; qtot   -0.280
        29           c28bf         1   UNL       c28        29    -0.04652       12.0110 ; qtot   -0.326
        30           c29bf         1   UNL       c29        30    -0.04652       12.0110 ; qtot   -0.373
        31           h30bf         1   UNL       h30        31     0.11165        1.0080 ; qtot   -0.261
        32           h31bf         1   UNL       h31        32     0.04349        1.0080 ; qtot   -0.218
        33           h32bf         1   UNL       h32        33     0.04349        1.0080 ; qtot   -0.174
        34           h33bf         1   UNL       h33        34     0.04349        1.0080 ; qtot   -0.131
        35           h34bf         1   UNL       h34        35     0.04349        1.0080 ; qtot   -0.087
        36           h35bf         1   UNL       h35        36     0.04349        1.0080 ; qtot   -0.044
        37           h36bf         1   UNL       h36        37     0.04354        1.0080 ; qtot   -0.000

[ bonds ]
;       ai        aj funct               r               k
         1         2     1        0.132260   299729.308105
         1         6     1        0.134751   240973.654541
         2         3     1        0.134179   275473.446582
         3         4     1        0.142662   212249.603296
         3        10     1        0.148500   207637.256592
         4         5     1        0.133549   327112.418506
         4        16     1        0.148484   207154.171094
         5         6     1        0.134351   271645.025293
         6        19     1        0.136992   327257.341602
         7         8     1        0.140236   290218.113867
         7        12     1        0.140236   290218.113867
         7        31     1        0.108843   311222.948145
         8         9     1        0.139937   299195.352686
         8        29     1        0.151176   205359.665649
         9        10     1        0.140297   287818.008643
         9        20     1        0.108556   319250.232031
        10        11     1        0.140297   287818.008643
        11        12     1        0.139937   299195.352686
        11        21     1        0.108556   319250.232031
        12        30     1        0.151176   205359.665649
        13        14     1        0.139955   305315.704004
        13        18     1        0.139955   305315.704004
        13        22     1        0.108618   320581.583691
        14        15     1        0.139631   313333.717920
        14        23     1        0.108630   319489.335986
        15        16     1        0.140491   285820.981152
        15        24     1        0.108482   322437.442041
        16        17     1        0.140491   285820.981152
        17        18     1        0.139631   313333.717920
        17        25     1        0.108482   322437.442041
        18        26     1        0.108630   319489.335986
        19        27     1        0.101097   429488.110742
        19        28     1        0.101097   429488.110742
        29        32     1        0.109452   299089.705664
        29        33     1        0.109452   299089.705664
        29        34     1        0.109452   299089.705664
        30        35     1        0.109452   299089.705664
        30        36     1        0.109452   299089.705664
        30        37     1        0.109452   299089.705664

[ angles ]
;       ai        aj        ak funct           theta             cth
         1         2         3     1      121.029770      831.171302
         1         6         5     1      125.882187      669.346853
         1         6        19     1      116.729614      637.422275
         2         1         6     1      117.699364      924.749677
         2         3         4     1      119.385941      768.977268
         2         3        10     1      115.321800      527.323337
         3         4         5     1      119.311852      775.868968
         3         4        16     1      124.757675      439.524999
         3        10         9     1      120.329552      474.055257
         3        10        11     1      120.329552      474.055257
         4         3        10     1      125.110062      439.146603
         4         5         6     1      116.549789      994.194718
         4        16        15     1      120.363159      499.700133
         4        16        17     1      120.363159      499.700133
         5         4        16     1      116.020462      482.430152
         5         6        19     1      116.922890      592.907965
         6        19        27     1      115.911415      477.678845
         6        19        28     1      115.911415      477.678845
         7         8         9     1      118.539871      731.857164
         7         8        29     1      120.704163      452.209186
         7        12        11     1      118.539871      731.857164
         7        12        30     1      120.704163      452.209186
         8         7        12     1      121.615417      667.117911
         8         7        31     1      119.209854      417.606115
         8         9        10     1      121.009171      694.943720
         8         9        20     1      119.602158      390.097637
         8        29        32     1      111.241592      479.376169
         8        29        33     1      111.241592      479.376169
         8        29        34     1      111.241592      479.376169
         9         8        29     1      120.635727      459.370621
         9        10        11     1      119.353737      702.987398
        10         9        20     1      119.281631      393.605957
        10        11        12     1      121.009171      694.943720
        10        11        21     1      119.281639      393.605989
        11        12        30     1      120.635727      459.370557
        12         7        31     1      119.209839      417.606115
        12        11        21     1      119.602158      390.097605
        12        30        35     1      111.241600      479.376169
        12        30        36     1      111.241600      479.376169
        12        30        37     1      111.241600      479.376169
        13        14        15     1      120.211388      725.285891
        13        14        23     1      120.091293      443.432943
        13        18        17     1      120.211388      725.285891
        13        18        26     1      120.091293      443.432943
        14        13        18     1      119.615746      659.890781
        14        13        22     1      120.215599      428.617717
        14        15        16     1      120.435951      701.577558
        14        15        24     1      119.975220      414.450271
        15        14        23     1      119.671829      431.194603
        15        16        17     1      119.073425      716.183763
        16        15        24     1      119.531372      388.633498
        16        17        18     1      120.435951      701.577558
        16        17        25     1      119.531372      388.633498
        17        18        26     1      119.671829      431.194603
        18        13        22     1      120.215599      428.617717
        18        17        25     1      119.975220      414.450239
        27        19        28     1      117.818871      318.801124
        32        29        33     1      107.649353      363.869429
        32        29        34     1      107.649353      363.869429
        33        29        34     1      107.649353      363.869429
        35        30        36     1      107.649353      363.869429
        35        30        37     1      107.649353      363.869429
        36        30        37     1      107.649353      363.869429

[ dihedrals ] ; propers for gromacs 4.5 or higher, use funct 9
;       ai        aj        ak        al funct           phase               k        pn
         1         2         3         4     9        0.000000        1.115124         1
         1         2         3         4     9      180.000000       22.427497         2
         1         2         3         4     9        0.000000        1.331197         3
         1         2         3         4     9      180.000000       -0.932859         4
         1         2         3        10     9        0.000000        0.770655         1
         1         2         3        10     9      180.000000       24.787481         2
         1         2         3        10     9        0.000000        2.227044         3
         1         2         3        10     9      180.000000       -1.487002         4
         1         6         5         4     9        0.000000        0.617944         1
         1         6         5         4     9      180.000000        9.528009         2
         1         6         5         4     9        0.000000        0.428162         3
         1         6         5         4     9      180.000000       -0.490773         4
         1         6        19        27     9        0.000000        2.084885         1
         1         6        19        27     9      180.000000        7.869700         2
         1         6        19        27     9        0.000000       -0.285383         3
         1         6        19        27     9      180.000000       -0.670789         4
         1         6        19        28     9        0.000000        2.084885         1
         1         6        19        28     9      180.000000        7.869700         2
         1         6        19        28     9        0.000000       -0.285383         3
         1         6        19        28     9      180.000000       -0.670789         4
         2         1         6         5     9        0.000000        0.996669         1
         2         1         6         5     9      180.000000        9.806670         2
         2         1         6         5     9        0.000000        1.154760         3
         2         1         6         5     9      180.000000       -0.713160         4
         2         1         6        19     9        0.000000        1.188860         1
         2         1         6        19     9      180.000000       18.423536         2
         2         1         6        19     9        0.000000        0.534244         3
         2         1         6        19     9      180.000000       -1.308435         4
         2         3         4         5     9        0.000000        1.960363         1
         2         3         4         5     9      180.000000        2.854094         2
         2         3         4         5     9        0.000000        0.527594         3
         2         3         4         5     9      180.000000       -0.441769         4
         2         3         4        16     9        0.000000       -2.487287         1
         2         3         4        16     9      180.000000        2.275344         2
         2         3         4        16     9        0.000000       -0.183498         3
         2         3         4        16     9      180.000000       -0.769735         4
         2         3        10         9     9        0.000000        0.005607         1
         2         3        10         9     9      180.000000        3.767948         2
         2         3        10         9     9        0.000000        0.049452         3
         2         3        10         9     9      180.000000       -0.016827         4
         2         3        10        11     9        0.000000        0.005607         1
         2         3        10        11     9      180.000000        3.767948         2
         2         3        10        11     9        0.000000        0.049452         3
         2         3        10        11     9      180.000000       -0.016827         4
         3         2         1         6     9        0.000000        0.372297         1
         3         2         1         6     9      180.000000       21.673847         2
         3         2         1         6     9        0.000000        0.434373         3
         3         2         1         6     9      180.000000       -0.565281         4
         3         4         5         6     9        0.000000       -0.365236         1
         3         4         5         6     9      180.000000       18.426223         2
         3         4         5         6     9        0.000000       -1.023190         3
         3         4         5         6     9      180.000000       -0.271536         4
         3         4        16        15     9        0.000000       -0.018536         1
         3         4        16        15     9      180.000000        2.903543         2
         3         4        16        15     9        0.000000        0.236978         3
         3         4        16        15     9      180.000000       -0.251243         4
         3         4        16        17     9        0.000000       -0.018536         1
         3         4        16        17     9      180.000000        2.903543         2
         3         4        16        17     9        0.000000        0.236978         3
         3         4        16        17     9      180.000000       -0.251243         4
         3        10         9         8     9        0.000000        0.116440         1
         3        10         9         8     9      180.000000       15.226616         2
         3        10         9         8     9        0.000000       -0.205356         3
         3        10         9         8     9      180.000000       -0.280635         4
         3        10         9        20     9        0.000000       -0.126022         1
         3        10         9        20     9      180.000000       12.502296         2
         3        10         9        20     9        0.000000       -0.309152         3
         3        10         9        20     9      180.000000        0.160433         4
         3        10        11        12     9        0.000000        0.116440         1
         3        10        11        12     9      180.000000       15.226616         2
         3        10        11        12     9        0.000000       -0.205356         3
         3        10        11        12     9      180.000000       -0.280635         4
         3        10        11        21     9        0.000000       -0.126022         1
         3        10        11        21     9      180.000000       12.502296         2
         3        10        11        21     9        0.000000       -0.309152         3
         3        10        11        21     9      180.000000        0.160433         4
         4         3        10         9     9        0.000000       -0.100056         1
         4         3        10         9     9      180.000000        2.301818         2
         4         3        10         9     9        0.000000        0.165736         3
         4         3        10         9     9      180.000000       -0.229542         4
         4         3        10        11     9        0.000000       -0.100056         1
         4         3        10        11     9      180.000000        2.301818         2
         4         3        10        11     9        0.000000        0.165736         3
         4         3        10        11     9      180.000000       -0.229542         4
         4         5         6        19     9        0.000000        0.844284         1
         4         5         6        19     9      180.000000       18.398514         2
         4         5         6        19     9        0.000000        0.300676         3
         4         5         6        19     9      180.000000       -1.336364         4
         4        16        15        14     9        0.000000        0.080921         1
         4        16        15        14     9      180.000000       15.488456         2
         4        16        15        14     9        0.000000       -0.333854         3
         4        16        15        14     9      180.000000       -0.328331         4
         4        16        15        24     9        0.000000       -0.146915         1
         4        16        15        24     9      180.000000       12.770795         2
         4        16        15        24     9        0.000000       -0.317068         3
         4        16        15        24     9      180.000000        0.120986         4
         4        16        17        18     9        0.000000        0.080921         1
         4        16        17        18     9      180.000000       15.488456         2
         4        16        17        18     9        0.000000       -0.333854         3
         4        16        17        18     9      180.000000       -0.328331         4
         4        16        17        25     9        0.000000       -0.146915         1
         4        16        17        25     9      180.000000       12.770795         2
         4        16        17        25     9        0.000000       -0.317068         3
         4        16        17        25     9      180.000000        0.120986         4
         5         4         3        10     9        0.000000       -1.594833         1
         5         4         3        10     9      180.000000        5.256394         2
         5         4         3        10     9        0.000000       -0.020376         3
         5         4         3        10     9      180.000000       -0.842080         4
         5         4        16        15     9        0.000000       -0.010757         1
         5         4        16        15     9      180.000000        4.627989         2
         5         4        16        15     9        0.000000       -0.004937         3
         5         4        16        15     9      180.000000        0.186679         4
         5         4        16        17     9        0.000000       -0.010757         1
         5         4        16        17     9      180.000000        4.627989         2
         5         4        16        17     9        0.000000       -0.004937         3
         5         4        16        17     9      180.000000        0.186679         4
         5         6        19        27     9        0.000000        1.716704         1
         5         6        19        27     9      180.000000        8.533548         2
         5         6        19        27     9        0.000000       -0.306059         3
         5         6        19        27     9      180.000000       -0.822715         4
         5         6        19        28     9        0.000000        1.716704         1
         5         6        19        28     9      180.000000        8.533548         2
         5         6        19        28     9        0.000000       -0.306059         3
         5         6        19        28     9      180.000000       -0.822715         4
         6         5         4        16     9        0.000000        0.243669         1
         6         5         4        16     9      180.000000       20.408581         2
         6         5         4        16     9        0.000000       -0.004642         3
         6         5         4        16     9      180.000000       -0.903313         4
         7         8         9        10     9        0.000000        0.051484         1
         7         8         9        10     9      180.000000       18.953264         2
         7         8         9        10     9        0.000000       -1.361714         3
         7         8         9        10     9      180.000000       -0.564134         4
         7         8         9        20     9        0.000000       -0.014973         1
         7         8         9        20     9      180.000000       14.988474         2
         7         8         9        20     9        0.000000       -0.519918         3
         7         8         9        20     9      180.000000        0.013832         4
         7         8        29        32     9        0.000000       -0.022891         1
         7         8        29        32     9      180.000000        0.010103         2
         7         8        29        32     9        0.000000        0.026185         3
         7         8        29        32     9      180.000000        0.001611         4
         7         8        29        33     9        0.000000       -0.022891         1
         7         8        29        33     9      180.000000        0.010103         2
         7         8        29        33     9        0.000000        0.026185         3
         7         8        29        33     9      180.000000        0.001611         4
         7         8        29        34     9        0.000000       -0.022891         1
         7         8        29        34     9      180.000000        0.010103         2
         7         8        29        34     9        0.000000        0.026185         3
         7         8        29        34     9      180.000000        0.001611         4
         7        12        11        10     9        0.000000        0.051484         1
         7        12        11        10     9      180.000000       18.953264         2
         7        12        11        10     9        0.000000       -1.361714         3
         7        12        11        10     9      180.000000       -0.564134         4
         7        12        11        21     9        0.000000       -0.014973         1
         7        12        11        21     9      180.000000       14.988474         2
         7        12        11        21     9        0.000000       -0.519918         3
         7        12        11        21     9      180.000000        0.013832         4
         7        12        30        35     9        0.000000       -0.022891         1
         7        12        30        35     9      180.000000        0.010103         2
         7        12        30        35     9        0.000000        0.026185         3
         7        12        30        35     9      180.000000        0.001611         4
         7        12        30        36     9        0.000000       -0.022891         1
         7        12        30        36     9      180.000000        0.010103         2
         7        12        30        36     9        0.000000        0.026185         3
         7        12        30        36     9      180.000000        0.001611         4
         7        12        30        37     9        0.000000       -0.022891         1
         7        12        30        37     9      180.000000        0.010103         2
         7        12        30        37     9        0.000000        0.026185         3
         7        12        30        37     9      180.000000        0.001611         4
         8         7        12        11     9        0.000000        0.018851         1
         8         7        12        11     9      180.000000       18.398119         2
         8         7        12        11     9        0.000000       -1.324104         3
         8         7        12        11     9      180.000000       -0.398418         4
         8         7        12        30     9        0.000000        0.169802         1
         8         7        12        30     9      180.000000       15.300996         2
         8         7        12        30     9        0.000000       -0.124841         3
         8         7        12        30     9      180.000000       -0.112597         4
         8         9        10        11     9        0.000000       -0.055126         1
         8         9        10        11     9      180.000000       18.390693         2
         8         9        10        11     9        0.000000       -1.489724         3
         8         9        10        11     9      180.000000       -0.440422         4
         9         8         7        12     9        0.000000        0.018851         1
         9         8         7        12     9      180.000000       18.398119         2
         9         8         7        12     9        0.000000       -1.324104         3
         9         8         7        12     9      180.000000       -0.398418         4
         9         8         7        31     9        0.000000       -0.069904         1
         9         8         7        31     9      180.000000       13.987787         2
         9         8         7        31     9        0.000000       -0.477740         3
         9         8         7        31     9      180.000000        0.160602         4
         9         8        29        32     9        0.000000       -0.029609         1
         9         8        29        32     9      180.000000        0.015429         2
         9         8        29        32     9        0.000000       -0.021869         3
         9         8        29        32     9      180.000000        0.005256         4
         9         8        29        33     9        0.000000       -0.029609         1
         9         8        29        33     9      180.000000        0.015429         2
         9         8        29        33     9        0.000000       -0.021869         3
         9         8        29        33     9      180.000000        0.005256         4
         9         8        29        34     9        0.000000       -0.029609         1
         9         8        29        34     9      180.000000        0.015429         2
         9         8        29        34     9        0.000000       -0.021869         3
         9         8        29        34     9      180.000000        0.005256         4
         9        10        11        12     9        0.000000       -0.055126         1
         9        10        11        12     9      180.000000       18.390693         2
         9        10        11        12     9        0.000000       -1.489724         3
         9        10        11        12     9      180.000000       -0.440422         4
         9        10        11        21     9        0.000000       -0.007558         1
         9        10        11        21     9      180.000000       13.982810         2
         9        10        11        21     9        0.000000       -0.524700         3
         9        10        11        21     9      180.000000        0.034445         4
        10         3         4        16     9        0.000000        0.832514         1
        10         3         4        16     9      180.000000        5.642545         2
        10         3         4        16     9        0.000000        0.372236         3
        10         3         4        16     9      180.000000       -0.600321         4
        10         9         8        29     9        0.000000        0.131688         1
        10         9         8        29     9      180.000000       15.925612         2
        10         9         8        29     9        0.000000       -0.031061         3
        10         9         8        29     9      180.000000       -0.229314         4
        10        11        12        30     9        0.000000        0.131688         1
        10        11        12        30     9      180.000000       15.925612         2
        10        11        12        30     9        0.000000       -0.031061         3
        10        11        12        30     9      180.000000       -0.229314         4
        11        10         9        20     9        0.000000       -0.007558         1
        11        10         9        20     9      180.000000       13.982810         2
        11        10         9        20     9        0.000000       -0.524700         3
        11        10         9        20     9      180.000000        0.034445         4
        11        12         7        31     9        0.000000       -0.069904         1
        11        12         7        31     9      180.000000       13.987787         2
        11        12         7        31     9        0.000000       -0.477740         3
        11        12         7        31     9      180.000000        0.160602         4
        11        12        30        35     9        0.000000       -0.029609         1
        11        12        30        35     9      180.000000        0.015429         2
        11        12        30        35     9        0.000000       -0.021869         3
        11        12        30        35     9      180.000000        0.005256         4
        11        12        30        36     9        0.000000       -0.029609         1
        11        12        30        36     9      180.000000        0.015429         2
        11        12        30        36     9        0.000000       -0.021869         3
        11        12        30        36     9      180.000000        0.005256         4
        11        12        30        37     9        0.000000       -0.029609         1
        11        12        30        37     9      180.000000        0.015429         2
        11        12        30        37     9        0.000000       -0.021869         3
        11        12        30        37     9      180.000000        0.005256         4
        12         7         8        29     9        0.000000        0.169802         1
        12         7         8        29     9      180.000000       15.300996         2
        12         7         8        29     9        0.000000       -0.124841         3
        12         7         8        29     9      180.000000       -0.112597         4
        13        14        15        16     9        0.000000        0.045085         1
        13        14        15        16     9      180.000000       19.128221         2
        13        14        15        16     9        0.000000       -1.471931         3
        13        14        15        16     9      180.000000       -0.521708         4
        13        14        15        24     9        0.000000        0.064860         1
        13        14        15        24     9      180.000000       15.029547         2
        13        14        15        24     9        0.000000       -0.687676         3
        13        14        15        24     9      180.000000        0.070746         4
        13        18        17        16     9        0.000000        0.045085         1
        13        18        17        16     9      180.000000       19.128221         2
        13        18        17        16     9        0.000000       -1.471931         3
        13        18        17        16     9      180.000000       -0.521708         4
        13        18        17        25     9        0.000000        0.064860         1
        13        18        17        25     9      180.000000       15.029547         2
        13        18        17        25     9        0.000000       -0.687676         3
        13        18        17        25     9      180.000000        0.070746         4
        14        13        18        17     9        0.000000       -0.012905         1
        14        13        18        17     9      180.000000       18.557273         2
        14        13        18        17     9        0.000000       -1.563999         3
        14        13        18        17     9      180.000000       -0.362525         4
        14        13        18        26     9        0.000000       -0.012177         1
        14        13        18        26     9      180.000000       14.387129         2
        14        13        18        26     9        0.000000       -0.717057         3
        14        13        18        26     9      180.000000        0.168766         4
        14        15        16        17     9        0.000000       -0.050872         1
        14        15        16        17     9      180.000000       18.634536         2
        14        15        16        17     9        0.000000       -1.319344         3
        14        15        16        17     9      180.000000       -0.454743         4
        15        14        13        18     9        0.000000       -0.012905         1
        15        14        13        18     9      180.000000       18.557273         2
        15        14        13        18     9        0.000000       -1.563999         3
        15        14        13        18     9      180.000000       -0.362525         4
        15        14        13        22     9        0.000000        0.054760         1
        15        14        13        22     9      180.000000       13.766277         2
        15        14        13        22     9        0.000000       -0.709421         3
        15        14        13        22     9      180.000000        0.167938         4
        15        16        17        18     9        0.000000       -0.050872         1
        15        16        17        18     9      180.000000       18.634536         2
        15        16        17        18     9        0.000000       -1.319344         3
        15        16        17        18     9      180.000000       -0.454743         4
        15        16        17        25     9        0.000000        0.068124         1
        15        16        17        25     9      180.000000       14.251024         2
        15        16        17        25     9        0.000000       -0.519434         3
        15        16        17        25     9      180.000000        0.018507         4
        16        15        14        23     9        0.000000       -0.025973         1
        16        15        14        23     9      180.000000       15.086199         2
        16        15        14        23     9        0.000000       -0.567660         3
        16        15        14        23     9      180.000000        0.001579         4
        16        17        18        26     9        0.000000       -0.025973         1
        16        17        18        26     9      180.000000       15.086199         2
        16        17        18        26     9        0.000000       -0.567660         3
        16        17        18        26     9      180.000000        0.001579         4
        17        16        15        24     9        0.000000        0.068124         1
        17        16        15        24     9      180.000000       14.251024         2
        17        16        15        24     9        0.000000       -0.519434         3
        17        16        15        24     9      180.000000        0.018507         4
        17        18        13        22     9        0.000000        0.054760         1
        17        18        13        22     9      180.000000       13.766277         2
        17        18        13        22     9        0.000000       -0.709421         3
        17        18        13        22     9      180.000000        0.167938         4
        18        13        14        23     9        0.000000       -0.012177         1
        18        13        14        23     9      180.000000       14.387129         2
        18        13        14        23     9        0.000000       -0.717057         3
        18        13        14        23     9      180.000000        0.168766         4
        20         9         8        29     9        0.000000       -0.112149         1
        20         9         8        29     9      180.000000       13.215337         2
        20         9         8        29     9        0.000000       -0.339376         3
        20         9         8        29     9      180.000000        0.211952         4
        21        11        12        30     9        0.000000       -0.112149         1
        21        11        12        30     9      180.000000       13.215337         2
        21        11        12        30     9        0.000000       -0.339376         3
        21        11        12        30     9      180.000000        0.211952         4
        22        13        14        23     9        0.000000       -0.083985         1
        22        13        14        23     9      180.000000       11.297506         2
        22        13        14        23     9        0.000000       -0.541472         3
        22        13        14        23     9      180.000000        0.257965         4
        22        13        18        26     9        0.000000       -0.083985         1
        22        13        18        26     9      180.000000       11.297507         2
        22        13        18        26     9        0.000000       -0.541472         3
        22        13        18        26     9      180.000000        0.257965         4
        23        14        15        24     9        0.000000       -0.167083         1
        23        14        15        24     9      180.000000       12.251291         2
        23        14        15        24     9        0.000000       -0.693635         3
        23        14        15        24     9      180.000000        0.279541         4
        25        17        18        26     9        0.000000       -0.167083         1
        25        17        18        26     9      180.000000       12.251291         2
        25        17        18        26     9        0.000000       -0.693635         3
        25        17        18        26     9      180.000000        0.279541         4
        29         8         7        31     9        0.000000       -0.313569         1
        29         8         7        31     9      180.000000       12.840621         2
        29         8         7        31     9        0.000000       -0.436858         3
        29         8         7        31     9      180.000000        0.263814         4
        30        12         7        31     9        0.000000       -0.313569         1
        30        12         7        31     9      180.000000       12.840621         2
        30        12         7        31     9        0.000000       -0.436858         3
        30        12         7        31     9      180.000000        0.263814         4

[ dihedrals ] ; impropers
;       ai        aj        ak        al funct           phase               k        pn
         3         2         4        10     4      180.000000        1.735692         2
         3         4        10         2     4      180.000000        1.735692         2
         3        10         2         4     4      180.000000        1.735692         2
         4         3         5        16     4      180.000000        9.968952         2
         4         5        16         3     4      180.000000        9.968952         2
         4        16         3         5     4      180.000000        9.968952         2
         6         1         5        19     4      180.000000        5.578667         2
         6         5        19         1     4      180.000000        5.578667         2
         6        19         1         5     4      180.000000        5.578667         2
         9         8        10        20     4      180.000000        3.412900         2
         9        10        20         8     4      180.000000        3.412900         2
         9        20         8        10     4      180.000000        3.412900         2
        11        10        12        21     4      180.000000        3.412900         2
        11        12        21        10     4      180.000000        3.412900         2
        11        21        10        12     4      180.000000        3.412900         2
        14        13        15        23     4      180.000000        6.002971         2
        14        15        23        13     4      180.000000        6.002971         2
        14        23        13        15     4      180.000000        6.002971         2
        15        14        16        24     4      180.000000        0.979441         2
        15        16        24        14     4      180.000000        0.979441         2
        15        24        14        16     4      180.000000        0.979441         2
        17        16        18        25     4      180.000000        0.979441         2
        17        18        25        16     4      180.000000        0.979441         2
        17        25        16        18     4      180.000000        0.979441         2
        18        13        17        26     4      180.000000        6.002970         2
        18        17        26        13     4      180.000000        6.002970         2
        18        26        13        17     4      180.000000        6.002970         2

[ pairs ]
;       ai        aj funct
         1         4     1
         1        10     1
         1        27     1
         1        28     1
         2         5     1
         2         9     1
         2        11     1
         2        16     1
         2        19     1
         3         6     1
         3         8     1
         3        12     1
         3        15     1
         3        17     1
         3        20     1
         3        21     1
         4         9     1
         4        11     1
         4        14     1
         4        18     1
         4        19     1
         4        24     1
         4        25     1
         5        10     1
         5        15     1
         5        17     1
         5        27     1
         5        28     1
         6        16     1
         7        10     1
         7        20     1
         7        21     1
         7        32     1
         7        33     1
         7        34     1
         7        35     1
         7        36     1
         7        37     1
         8        11     1
         8        30     1
         9        12     1
         9        21     1
         9        31     1
         9        32     1
         9        33     1
         9        34     1
        10        16     1
        10        29     1
        10        30     1
        11        20     1
        11        31     1
        11        35     1
        11        36     1
        11        37     1
        12        29     1
        13        16     1
        13        24     1
        13        25     1
        14        17     1
        14        26     1
        15        18     1
        15        22     1
        15        25     1
        16        23     1
        16        26     1
        17        22     1
        17        24     1
        18        23     1
        20        29     1
        21        30     1
        22        23     1
        22        26     1
        23        24     1
        25        26     1
        29        31     1
        30        31     1
