; ITP file created by ByteFF-ML, 2025-12-06 04:37:27.442457

[ atomtypes ]
;name           bonded.type        at.num        mass        charge   ptype           sigma         epsilon
 n0bf                                   7      0.0000       0.00000       A     3.38432e-01     3.91971e-01
 n1bf                                   7      0.0000       0.00000       A     3.38091e-01     3.88523e-01
 c2bf                                   6      0.0000       0.00000       A     3.31525e-01     4.10886e-01
 c3bf                                   6      0.0000       0.00000       A     3.31222e-01     4.13851e-01
 n4bf                                   7      0.0000       0.00000       A     3.38445e-01     3.92580e-01
 c5bf                                   6      0.0000       0.00000       A     3.31386e-01     4.16721e-01
 c6bf                                   6      0.0000       0.00000       A     3.31752e-01     4.10037e-01
 c7bf                                   6      0.0000       0.00000       A     3.31555e-01     4.13414e-01
 c8bf                                   6      0.0000       0.00000       A     3.31473e-01     4.12190e-01
 c9bf                                   6      0.0000       0.00000       A     3.31457e-01     4.16231e-01
 c10bf                                  6      0.0000       0.00000       A     3.31413e-01     4.13816e-01
 c11bf                                  6      0.0000       0.00000       A     3.31596e-01     4.12498e-01
 c12bf                                  6      0.0000       0.00000       A     3.31494e-01     4.13000e-01
 c13bf                                  6      0.0000       0.00000       A     3.31488e-01     4.13045e-01
 c14bf                                  6      0.0000       0.00000       A     3.31446e-01     4.13138e-01
 c15bf                                  6      0.0000       0.00000       A     3.31460e-01     4.14367e-01
 c16bf                                  6      0.0000       0.00000       A     3.31446e-01     4.13136e-01
 c17bf                                  6      0.0000       0.00000       A     3.31488e-01     4.13045e-01
 n18bf                                  7      0.0000       0.00000       A     3.36783e-01     4.69230e-01
 cl19bf                                17      0.0000       0.00000       A     3.46346e-01     1.10190e+00
 o20bf                                  8      0.0000       0.00000       A     3.24276e-01     3.87596e-01
 h21bf                                  1      0.0000       0.00000       A     2.62352e-01     6.73270e-02
 h22bf                                  1      0.0000       0.00000       A     2.62497e-01     6.75281e-02
 h23bf                                  1      0.0000       0.00000       A     2.62462e-01     6.73605e-02
 h24bf                                  1      0.0000       0.00000       A     2.62457e-01     6.73477e-02
 h25bf                                  1      0.0000       0.00000       A     2.62467e-01     6.73573e-02
 h26bf                                  1      0.0000       0.00000       A     2.62488e-01     6.75042e-02
 h27bf                                  1      0.0000       0.00000       A     2.62488e-01     6.75042e-02
 h28bf                                  1      0.0000       0.00000       A     2.62467e-01     6.73573e-02
 h29bf                                  1      0.0000       0.00000       A     1.10093e-01     4.19894e-02
 h30bf                                  1      0.0000       0.00000       A     1.10093e-01     4.19894e-02
 h31bf                                  1      0.0000       0.00000       A     5.37302e-02     2.00147e-02

[ moleculetype ]
;name             nrexcl
 4e_U                  3

[ atoms ]
;       nr            type      resi   res      atom      cgnr      charge          mass ; qtot
         1            n0bf         1   UNL        n0         1    -0.15275       14.0070 ; qtot   -0.153
         2            n1bf         1   UNL        n1         2    -0.24521       14.0070 ; qtot   -0.398
         3            c2bf         1   UNL        c2         3     0.27006       12.0110 ; qtot   -0.128
         4            c3bf         1   UNL        c3         4     0.20409       12.0110 ; qtot    0.076
         5            n4bf         1   UNL        n4         5    -0.22989       14.0070 ; qtot   -0.154
         6            c5bf         1   UNL        c5         6     0.30797       12.0110 ; qtot    0.154
         7            c6bf         1   UNL        c6         7     0.15705       12.0110 ; qtot    0.311
         8            c7bf         1   UNL        c7         8    -0.16847       12.0110 ; qtot    0.143
         9            c8bf         1   UNL        c8         9    -0.03360       12.0110 ; qtot    0.109
        10            c9bf         1   UNL        c9        10    -0.17328       12.0110 ; qtot   -0.064
        11           c10bf         1   UNL       c10        11    -0.02133       12.0110 ; qtot   -0.085
        12           c11bf         1   UNL       c11        12     0.03220       12.0110 ; qtot   -0.053
        13           c12bf         1   UNL       c12        13    -0.09693       12.0110 ; qtot   -0.150
        14           c13bf         1   UNL       c13        14    -0.11911       12.0110 ; qtot   -0.269
        15           c14bf         1   UNL       c14        15    -0.07492       12.0110 ; qtot   -0.344
        16           c15bf         1   UNL       c15        16    -0.16632       12.0110 ; qtot   -0.510
        17           c16bf         1   UNL       c16        17    -0.07492       12.0110 ; qtot   -0.585
        18           c17bf         1   UNL       c17        18    -0.11911       12.0110 ; qtot   -0.704
        19           n18bf         1   UNL       n18        19    -1.02351       14.0070 ; qtot   -1.728
        20          cl19bf         1   UNL      cl19        20    -0.20067       35.4530 ; qtot   -1.929
        21           o20bf         1   UNL       o20        21    -0.51831       15.9990 ; qtot   -2.447
        22           h21bf         1   UNL       h21        22     0.12989        1.0080 ; qtot   -2.317
        23           h22bf         1   UNL       h22        23     0.13335        1.0080 ; qtot   -2.184
        24           h23bf         1   UNL       h23        24     0.14840        1.0080 ; qtot   -2.035
        25           h24bf         1   UNL       h24        25     0.11588        1.0080 ; qtot   -1.919
        26           h25bf         1   UNL       h25        26     0.11665        1.0080 ; qtot   -1.803
        27           h26bf         1   UNL       h26        27     0.12492        1.0080 ; qtot   -1.678
        28           h27bf         1   UNL       h27        28     0.12492        1.0080 ; qtot   -1.553
        29           h28bf         1   UNL       h28        29     0.11665        1.0080 ; qtot   -1.436
        30           h29bf         1   UNL       h29        30     0.48059        1.0080 ; qtot   -0.956
        31           h30bf         1   UNL       h30        31     0.48059        1.0080 ; qtot   -0.475
        32           h31bf         1   UNL       h31        32     0.47512        1.0080 ; qtot    0.000

[ bonds ]
;       ai        aj funct               r               k
         1         2     1        0.132260   299729.308105
         1         6     1        0.134751   240973.654541
         2         3     1        0.134192   275142.919775
         3         4     1        0.142544   214683.072754
         3        10     1        0.148403   208531.808765
         4         5     1        0.133549   327112.418506
         4        16     1        0.148484   207154.171094
         5         6     1        0.134351   271645.025293
         6        19     1        0.136992   327257.367139
         7         8     1        0.140215   285616.786426
         7        12     1        0.140538   265682.723145
         7        21     1        0.136124   302194.967090
         8         9     1        0.139211   328853.155566
         8        22     1        0.108577   320624.741406
         9        10     1        0.140405   286550.806201
         9        23     1        0.108467   323835.700928
        10        11     1        0.140447   284800.313965
        11        12     1        0.138945   322721.618994
        11        24     1        0.108385   326775.252051
        12        20     1        0.175931   148874.746313
        13        14     1        0.139955   305315.704004
        13        18     1        0.139955   305315.704004
        13        25     1        0.108618   320581.609229
        14        15     1        0.139631   313333.717920
        14        26     1        0.108630   319489.335986
        15        16     1        0.140491   285820.981152
        15        27     1        0.108482   322437.442041
        16        17     1        0.140491   285820.981152
        17        18     1        0.139631   313333.717920
        17        28     1        0.108482   322437.442041
        18        29     1        0.108630   319489.335986
        19        30     1        0.101097   429488.110742
        19        31     1        0.101097   429488.110742
        21        32     1        0.097199   461985.206055

[ angles ]
;       ai        aj        ak funct           theta             cth
         1         2         3     1      121.024498      826.583688
         1         6         5     1      125.882187      669.346853
         1         6        19     1      116.729599      637.422275
         2         1         6     1      117.699364      924.749677
         2         3         4     1      119.528763      765.219865
         2         3        10     1      115.083900      528.022224
         3         4         5     1      119.214806      771.281418
         3         4        16     1      124.829102      440.068429
         3        10         9     1      120.904823      503.710098
         3        10        11     1      120.233192      493.736707
         4         3        10     1      125.189896      439.771496
         4         5         6     1      116.549789      994.194718
         4        16        15     1      120.363159      499.700133
         4        16        17     1      120.363159      499.700133
         5         4        16     1      116.020462      482.430152
         5         6        19     1      116.922890      592.907965
         6        19        30     1      115.911415      477.678845
         6        19        31     1      115.911415      477.678845
         7         8         9     1      120.462692      759.266591
         7         8        22     1      118.599892      454.989123
         7        12        11     1      121.163635      716.307618
         7        12        20     1      118.689133      335.580792
         7        21        32     1      109.102615      564.803801
         8         7        12     1      118.214554      502.748466
         8         7        21     1      119.377625      600.240818
         8         9        10     1      120.730431      675.596295
         8         9        23     1      119.556435      402.605362
         9         8        22     1      120.797119      427.552692
         9        10        11     1      118.790482      685.048409
        10         9        23     1      119.636978      391.693068
        10        11        12     1      120.316040      613.625455
        10        11        24     1      120.257362      379.965405
        11        12        20     1      119.936134      401.459767
        12         7        21     1      122.148277      430.166383
        12        11        24     1      119.287209      372.320648
        13        14        15     1      120.211388      725.285891
        13        14        26     1      120.091293      443.432943
        13        18        17     1      120.211388      725.285955
        13        18        29     1      120.091293      443.432943
        14        13        18     1      119.615746      659.890781
        14        13        25     1      120.215599      428.617717
        14        15        16     1      120.435951      701.577558
        14        15        27     1      119.975220      414.450271
        15        14        26     1      119.671829      431.194603
        15        16        17     1      119.073425      716.183763
        16        15        27     1      119.531387      388.633435
        16        17        18     1      120.435951      701.577558
        16        17        28     1      119.531372      388.633435
        17        18        29     1      119.671829      431.194603
        18        13        25     1      120.215599      428.617717
        18        17        28     1      119.975220      414.450271
        30        19        31     1      117.818871      318.801156

[ dihedrals ] ; propers for gromacs 4.5 or higher, use funct 9
;       ai        aj        ak        al funct           phase               k        pn
         1         2         3         4     9        0.000000        0.930143         1
         1         2         3         4     9      180.000000       22.775682         2
         1         2         3         4     9        0.000000        1.283683         3
         1         2         3         4     9      180.000000       -0.905750         4
         1         2         3        10     9        0.000000        0.757902         1
         1         2         3        10     9      180.000000       25.231484         2
         1         2         3        10     9        0.000000        2.192892         3
         1         2         3        10     9      180.000000       -1.441003         4
         1         6         5         4     9        0.000000        0.617944         1
         1         6         5         4     9      180.000000        9.528009         2
         1         6         5         4     9        0.000000        0.428162         3
         1         6         5         4     9      180.000000       -0.490773         4
         1         6        19        30     9        0.000000        2.084886         1
         1         6        19        30     9      180.000000        7.869700         2
         1         6        19        30     9        0.000000       -0.285384         3
         1         6        19        30     9      180.000000       -0.670789         4
         1         6        19        31     9        0.000000        2.084886         1
         1         6        19        31     9      180.000000        7.869700         2
         1         6        19        31     9        0.000000       -0.285384         3
         1         6        19        31     9      180.000000       -0.670789         4
         2         1         6         5     9        0.000000        0.996669         1
         2         1         6         5     9      180.000000        9.806670         2
         2         1         6         5     9        0.000000        1.154760         3
         2         1         6         5     9      180.000000       -0.713160         4
         2         1         6        19     9        0.000000        1.188860         1
         2         1         6        19     9      180.000000       18.423536         2
         2         1         6        19     9        0.000000        0.534243         3
         2         1         6        19     9      180.000000       -1.308435         4
         2         3         4         5     9        0.000000        1.872213         1
         2         3         4         5     9      180.000000        2.898090         2
         2         3         4         5     9        0.000000        0.497299         3
         2         3         4         5     9      180.000000       -0.427914         4
         2         3         4        16     9        0.000000       -2.472735         1
         2         3         4        16     9      180.000000        2.328592         2
         2         3         4        16     9        0.000000       -0.145691         3
         2         3         4        16     9      180.000000       -0.798208         4
         2         3        10         9     9        0.000000        0.040438         1
         2         3        10         9     9      180.000000        4.000458         2
         2         3        10         9     9        0.000000        0.045800         3
         2         3        10         9     9      180.000000       -0.005304         4
         2         3        10        11     9        0.000000       -0.125001         1
         2         3        10        11     9      180.000000        4.018893         2
         2         3        10        11     9        0.000000       -0.027569         3
         2         3        10        11     9      180.000000        0.003561         4
         3         2         1         6     9        0.000000        0.175686         1
         3         2         1         6     9      180.000000       21.881149         2
         3         2         1         6     9        0.000000        0.458822         3
         3         2         1         6     9      180.000000       -0.650565         4
         3         4         5         6     9        0.000000       -0.403451         1
         3         4         5         6     9      180.000000       18.467963         2
         3         4         5         6     9        0.000000       -0.983377         3
         3         4         5         6     9      180.000000       -0.269228         4
         3         4        16        15     9        0.000000        0.023794         1
         3         4        16        15     9      180.000000        2.994854         2
         3         4        16        15     9        0.000000        0.232923         3
         3         4        16        15     9      180.000000       -0.256109         4
         3         4        16        17     9        0.000000        0.023794         1
         3         4        16        17     9      180.000000        2.994855         2
         3         4        16        17     9        0.000000        0.232923         3
         3         4        16        17     9      180.000000       -0.256108         4
         3        10         9         8     9        0.000000        0.048841         1
         3        10         9         8     9      180.000000       14.789453         2
         3        10         9         8     9        0.000000       -0.240717         3
         3        10         9         8     9      180.000000       -0.212354         4
         3        10         9        23     9        0.000000       -0.068689         1
         3        10         9        23     9      180.000000       12.544943         2
         3        10         9        23     9        0.000000       -0.263414         3
         3        10         9        23     9      180.000000        0.143949         4
         3        10        11        12     9        0.000000        0.063369         1
         3        10        11        12     9      180.000000       14.890805         2
         3        10        11        12     9        0.000000       -0.206530         3
         3        10        11        12     9      180.000000       -0.241862         4
         3        10        11        24     9        0.000000       -0.149062         1
         3        10        11        24     9      180.000000       12.618088         2
         3        10        11        24     9        0.000000       -0.326208         3
         3        10        11        24     9      180.000000        0.181060         4
         4         3        10         9     9        0.000000       -0.032932         1
         4         3        10         9     9      180.000000        2.323443         2
         4         3        10         9     9        0.000000        0.203948         3
         4         3        10         9     9      180.000000       -0.245122         4
         4         3        10        11     9        0.000000       -0.127632         1
         4         3        10        11     9      180.000000        2.432748         2
         4         3        10        11     9        0.000000        0.219689         3
         4         3        10        11     9      180.000000       -0.205234         4
         4         5         6        19     9        0.000000        0.844283         1
         4         5         6        19     9      180.000000       18.398514         2
         4         5         6        19     9        0.000000        0.300675         3
         4         5         6        19     9      180.000000       -1.336364         4
         4        16        15        14     9        0.000000        0.080921         1
         4        16        15        14     9      180.000000       15.488456         2
         4        16        15        14     9        0.000000       -0.333854         3
         4        16        15        14     9      180.000000       -0.328331         4
         4        16        15        27     9        0.000000       -0.146914         1
         4        16        15        27     9      180.000000       12.770795         2
         4        16        15        27     9        0.000000       -0.317069         3
         4        16        15        27     9      180.000000        0.120985         4
         4        16        17        18     9        0.000000        0.080922         1
         4        16        17        18     9      180.000000       15.488454         2
         4        16        17        18     9        0.000000       -0.333854         3
         4        16        17        18     9      180.000000       -0.328331         4
         4        16        17        28     9        0.000000       -0.146915         1
         4        16        17        28     9      180.000000       12.770795         2
         4        16        17        28     9        0.000000       -0.317069         3
         4        16        17        28     9      180.000000        0.120986         4
         5         4         3        10     9        0.000000       -1.395170         1
         5         4         3        10     9      180.000000        5.332215         2
         5         4         3        10     9        0.000000       -0.075059         3
         5         4         3        10     9      180.000000       -0.816886         4
         5         4        16        15     9        0.000000       -0.010757         1
         5         4        16        15     9      180.000000        4.627989         2
         5         4        16        15     9        0.000000       -0.004937         3
         5         4        16        15     9      180.000000        0.186679         4
         5         4        16        17     9        0.000000       -0.010757         1
         5         4        16        17     9      180.000000        4.627990         2
         5         4        16        17     9        0.000000       -0.004937         3
         5         4        16        17     9      180.000000        0.186679         4
         5         6        19        30     9        0.000000        1.716704         1
         5         6        19        30     9      180.000000        8.533549         2
         5         6        19        30     9        0.000000       -0.306059         3
         5         6        19        30     9      180.000000       -0.822715         4
         5         6        19        31     9        0.000000        1.716704         1
         5         6        19        31     9      180.000000        8.533549         2
         5         6        19        31     9        0.000000       -0.306059         3
         5         6        19        31     9      180.000000       -0.822715         4
         6         5         4        16     9        0.000000        0.243669         1
         6         5         4        16     9      180.000000       20.408581         2
         6         5         4        16     9        0.000000       -0.004642         3
         6         5         4        16     9      180.000000       -0.903313         4
         7         8         9        10     9        0.000000       -0.053706         1
         7         8         9        10     9      180.000000       18.968283         2
         7         8         9        10     9        0.000000       -1.726485         3
         7         8         9        10     9      180.000000       -0.559930         4
         7         8         9        23     9        0.000000        0.155552         1
         7         8         9        23     9      180.000000       14.916270         2
         7         8         9        23     9        0.000000       -0.611728         3
         7         8         9        23     9      180.000000       -0.017429         4
         7        12        11        10     9        0.000000        0.137686         1
         7        12        11        10     9      180.000000       17.540934         2
         7        12        11        10     9        0.000000       -1.433712         3
         7        12        11        10     9      180.000000       -0.383061         4
         7        12        11        24     9        0.000000        0.150351         1
         7        12        11        24     9      180.000000       13.689860         2
         7        12        11        24     9        0.000000       -0.544204         3
         7        12        11        24     9      180.000000        0.185493         4
         8         7        12        11     9        0.000000        0.056236         1
         8         7        12        11     9      180.000000       14.183250         2
         8         7        12        11     9        0.000000       -0.685713         3
         8         7        12        11     9      180.000000       -0.110103         4
         8         7        12        20     9        0.000000        0.051151         1
         8         7        12        20     9      180.000000       15.172352         2
         8         7        12        20     9        0.000000        0.042377         3
         8         7        12        20     9      180.000000       -0.360471         4
         8         7        21        32     9        0.000000       -0.880110         1
         8         7        21        32     9      180.000000        4.960602         2
         8         7        21        32     9        0.000000        0.183760         3
         8         7        21        32     9      180.000000        0.067081         4
         8         9        10        11     9        0.000000       -0.136559         1
         8         9        10        11     9      180.000000       18.801888         2
         8         9        10        11     9        0.000000       -1.394592         3
         8         9        10        11     9      180.000000       -0.502328         4
         9         8         7        12     9        0.000000        0.195359         1
         9         8         7        12     9      180.000000       15.619387         2
         9         8         7        12     9        0.000000       -0.680134         3
         9         8         7        12     9      180.000000       -0.326910         4
         9         8         7        21     9        0.000000        0.412050         1
         9         8         7        21     9      180.000000       20.029006         2
         9         8         7        21     9        0.000000        0.317492         3
         9         8         7        21     9      180.000000       -0.652567         4
         9        10        11        12     9        0.000000       -0.248360         1
         9        10        11        12     9      180.000000       18.892948         2
         9        10        11        12     9        0.000000       -1.553010         3
         9        10        11        12     9      180.000000       -0.454356         4
         9        10        11        24     9        0.000000       -0.004410         1
         9        10        11        24     9      180.000000       14.186748         2
         9        10        11        24     9        0.000000       -0.586747         3
         9        10        11        24     9      180.000000        0.046141         4
        10         3         4        16     9        0.000000        0.806148         1
        10         3         4        16     9      180.000000        5.851244         2
        10         3         4        16     9        0.000000        0.271539         3
        10         3         4        16     9      180.000000       -0.574960         4
        10         9         8        22     9        0.000000        0.091046         1
        10         9         8        22     9      180.000000       14.552045         2
        10         9         8        22     9        0.000000       -0.485648         3
        10         9         8        22     9      180.000000        0.011546         4
        10        11        12        20     9        0.000000        0.416420         1
        10        11        12        20     9      180.000000       19.503203         2
        10        11        12        20     9        0.000000        0.270159         3
        10        11        12        20     9      180.000000       -0.735411         4
        11        10         9        23     9        0.000000        0.039765         1
        11        10         9        23     9      180.000000       14.073791         2
        11        10         9        23     9        0.000000       -0.574767         3
        11        10         9        23     9      180.000000        0.037952         4
        11        12         7        21     9        0.000000        0.081159         1
        11        12         7        21     9      180.000000       16.560573         2
        11        12         7        21     9        0.000000       -0.074684         3
        11        12         7        21     9      180.000000       -0.334724         4
        12         7         8        22     9        0.000000        0.180346         1
        12         7         8        22     9      180.000000       12.387381         2
        12         7         8        22     9        0.000000       -0.243296         3
        12         7         8        22     9      180.000000        0.105562         4
        12         7        21        32     9        0.000000        4.482631         1
        12         7        21        32     9      180.000000        3.675852         2
        12         7        21        32     9        0.000000        0.657817         3
        12         7        21        32     9      180.000000       -0.040228         4
        13        14        15        16     9        0.000000        0.045085         1
        13        14        15        16     9      180.000000       19.128221         2
        13        14        15        16     9        0.000000       -1.471931         3
        13        14        15        16     9      180.000000       -0.521708         4
        13        14        15        27     9        0.000000        0.064860         1
        13        14        15        27     9      180.000000       15.029547         2
        13        14        15        27     9        0.000000       -0.687677         3
        13        14        15        27     9      180.000000        0.070746         4
        13        18        17        16     9        0.000000        0.045085         1
        13        18        17        16     9      180.000000       19.128223         2
        13        18        17        16     9        0.000000       -1.471931         3
        13        18        17        16     9      180.000000       -0.521708         4
        13        18        17        28     9        0.000000        0.064861         1
        13        18        17        28     9      180.000000       15.029547         2
        13        18        17        28     9        0.000000       -0.687677         3
        13        18        17        28     9      180.000000        0.070746         4
        14        13        18        17     9        0.000000       -0.012905         1
        14        13        18        17     9      180.000000       18.557273         2
        14        13        18        17     9        0.000000       -1.563998         3
        14        13        18        17     9      180.000000       -0.362525         4
        14        13        18        29     9        0.000000       -0.012176         1
        14        13        18        29     9      180.000000       14.387129         2
        14        13        18        29     9        0.000000       -0.717057         3
        14        13        18        29     9      180.000000        0.168766         4
        14        15        16        17     9        0.000000       -0.050872         1
        14        15        16        17     9      180.000000       18.634540         2
        14        15        16        17     9        0.000000       -1.319344         3
        14        15        16        17     9      180.000000       -0.454742         4
        15        14        13        18     9        0.000000       -0.012906         1
        15        14        13        18     9      180.000000       18.557273         2
        15        14        13        18     9        0.000000       -1.563998         3
        15        14        13        18     9      180.000000       -0.362525         4
        15        14        13        25     9        0.000000        0.054760         1
        15        14        13        25     9      180.000000       13.766277         2
        15        14        13        25     9        0.000000       -0.709420         3
        15        14        13        25     9      180.000000        0.167938         4
        15        16        17        18     9        0.000000       -0.050872         1
        15        16        17        18     9      180.000000       18.634536         2
        15        16        17        18     9        0.000000       -1.319343         3
        15        16        17        18     9      180.000000       -0.454743         4
        15        16        17        28     9        0.000000        0.068123         1
        15        16        17        28     9      180.000000       14.251022         2
        15        16        17        28     9        0.000000       -0.519433         3
        15        16        17        28     9      180.000000        0.018507         4
        16        15        14        26     9        0.000000       -0.025973         1
        16        15        14        26     9      180.000000       15.086197         2
        16        15        14        26     9        0.000000       -0.567660         3
        16        15        14        26     9      180.000000        0.001579         4
        16        17        18        29     9        0.000000       -0.025974         1
        16        17        18        29     9      180.000000       15.086199         2
        16        17        18        29     9        0.000000       -0.567659         3
        16        17        18        29     9      180.000000        0.001579         4
        17        16        15        27     9        0.000000        0.068124         1
        17        16        15        27     9      180.000000       14.251021         2
        17        16        15        27     9        0.000000       -0.519433         3
        17        16        15        27     9      180.000000        0.018507         4
        17        18        13        25     9        0.000000        0.054761         1
        17        18        13        25     9      180.000000       13.766276         2
        17        18        13        25     9        0.000000       -0.709421         3
        17        18        13        25     9      180.000000        0.167938         4
        18        13        14        26     9        0.000000       -0.012177         1
        18        13        14        26     9      180.000000       14.387129         2
        18        13        14        26     9        0.000000       -0.717056         3
        18        13        14        26     9      180.000000        0.168766         4
        20        12         7        21     9        0.000000       -0.196121         1
        20        12         7        21     9      180.000000       19.816639         2
        20        12         7        21     9        0.000000        0.094963         3
        20        12         7        21     9      180.000000       -0.904652         4
        20        12        11        24     9        0.000000        0.205157         1
        20        12        11        24     9      180.000000       14.769877         2
        20        12        11        24     9        0.000000       -0.077853         3
        20        12        11        24     9      180.000000        0.091546         4
        21         7         8        22     9        0.000000       -0.010625         1
        21         7         8        22     9      180.000000       15.257157         2
        21         7         8        22     9        0.000000        0.077624         3
        21         7         8        22     9      180.000000        0.084676         4
        22         8         9        23     9        0.000000       -0.101632         1
        22         8         9        23     9      180.000000       12.769766         2
        22         8         9        23     9        0.000000       -0.628996         3
        22         8         9        23     9      180.000000        0.238282         4
        25        13        14        26     9        0.000000       -0.083984         1
        25        13        14        26     9      180.000000       11.297505         2
        25        13        14        26     9        0.000000       -0.541472         3
        25        13        14        26     9      180.000000        0.257966         4
        25        13        18        29     9        0.000000       -0.083985         1
        25        13        18        29     9      180.000000       11.297506         2
        25        13        18        29     9        0.000000       -0.541472         3
        25        13        18        29     9      180.000000        0.257966         4
        26        14        15        27     9        0.000000       -0.167082         1
        26        14        15        27     9      180.000000       12.251294         2
        26        14        15        27     9        0.000000       -0.693636         3
        26        14        15        27     9      180.000000        0.279540         4
        28        17        18        29     9        0.000000       -0.167082         1
        28        17        18        29     9      180.000000       12.251293         2
        28        17        18        29     9        0.000000       -0.693636         3
        28        17        18        29     9      180.000000        0.279540         4

[ dihedrals ] ; impropers
;       ai        aj        ak        al funct           phase               k        pn
         3         2         4        10     4      180.000000        0.978295         2
         3         4        10         2     4      180.000000        0.978295         2
         3        10         2         4     4      180.000000        0.978295         2
         4         3         5        16     4      180.000000       10.452183         2
         4         5        16         3     4      180.000000       10.452183         2
         4        16         3         5     4      180.000000       10.452183         2
         6         1         5        19     4      180.000000        5.578667         2
         6         5        19         1     4      180.000000        5.578667         2
         6        19         1         5     4      180.000000        5.578667         2
         7         8        12        21     4      180.000000        1.550826         2
         7        12        21         8     4      180.000000        1.550826         2
         7        21         8        12     4      180.000000        1.550826         2
         8         7         9        22     4      180.000000        2.678101         2
         8         9        22         7     4      180.000000        2.678101         2
         8        22         7         9     4      180.000000        2.678101         2
         9         8        10        23     4      180.000000        1.068933         2
         9        10        23         8     4      180.000000        1.068933         2
         9        23         8        10     4      180.000000        1.068933         2
        11        10        12        24     4      180.000000        1.348373         2
        11        12        24        10     4      180.000000        1.348373         2
        11        24        10        12     4      180.000000        1.348373         2
        14        13        15        26     4      180.000000        6.002970         2
        14        15        26        13     4      180.000000        6.002970         2
        14        26        13        15     4      180.000000        6.002970         2
        15        14        16        27     4      180.000000        0.979441         2
        15        16        27        14     4      180.000000        0.979441         2
        15        27        14        16     4      180.000000        0.979441         2
        17        16        18        28     4      180.000000        0.979441         2
        17        18        28        16     4      180.000000        0.979441         2
        17        28        16        18     4      180.000000        0.979441         2
        18        13        17        29     4      180.000000        6.002970         2
        18        17        29        13     4      180.000000        6.002970         2
        18        29        13        17     4      180.000000        6.002970         2

[ pairs ]
;       ai        aj funct
         1         4     1
         1        10     1
         1        30     1
         1        31     1
         2         5     1
         2         9     1
         2        11     1
         2        16     1
         2        19     1
         3         6     1
         3         8     1
         3        12     1
         3        15     1
         3        17     1
         3        23     1
         3        24     1
         4         9     1
         4        11     1
         4        14     1
         4        18     1
         4        19     1
         4        27     1
         4        28     1
         5        10     1
         5        15     1
         5        17     1
         5        30     1
         5        31     1
         6        16     1
         7        10     1
         7        23     1
         7        24     1
         8        11     1
         8        20     1
         8        32     1
         9        12     1
         9        21     1
         9        24     1
        10        16     1
        10        20     1
        10        22     1
        11        21     1
        11        23     1
        12        22     1
        12        32     1
        13        16     1
        13        27     1
        13        28     1
        14        17     1
        14        29     1
        15        18     1
        15        25     1
        15        28     1
        16        26     1
        16        29     1
        17        25     1
        17        27     1
        18        26     1
        20        21     1
        20        24     1
        21        22     1
        22        23     1
        25        26     1
        25        29     1
        26        27     1
        28        29     1
