; ITP file created by ByteFF-ML, 2025-12-06 04:38:27.546614

[ atomtypes ]
;name           bonded.type        at.num        mass        charge   ptype           sigma         epsilon
 n0bf                                   7      0.0000       0.00000       A     3.38432e-01     3.91971e-01
 n1bf                                   7      0.0000       0.00000       A     3.38091e-01     3.88523e-01
 c2bf                                   6      0.0000       0.00000       A     3.31565e-01     4.11724e-01
 c3bf                                   6      0.0000       0.00000       A     3.31222e-01     4.13851e-01
 n4bf                                   7      0.0000       0.00000       A     3.38445e-01     3.92580e-01
 c5bf                                   6      0.0000       0.00000       A     3.31386e-01     4.16721e-01
 n6bf                                   7      0.0000       0.00000       A     3.38284e-01     3.93570e-01
 c7bf                                   6      0.0000       0.00000       A     3.31473e-01     4.12629e-01
 c8bf                                   6      0.0000       0.00000       A     3.31487e-01     4.12933e-01
 c9bf                                   6      0.0000       0.00000       A     3.31358e-01     4.13372e-01
 c10bf                                  6      0.0000       0.00000       A     3.31487e-01     4.12933e-01
 c11bf                                  6      0.0000       0.00000       A     3.31473e-01     4.12629e-01
 c12bf                                  6      0.0000       0.00000       A     3.31532e-01     4.13045e-01
 c13bf                                  6      0.0000       0.00000       A     3.31501e-01     4.12675e-01
 c14bf                                  6      0.0000       0.00000       A     3.31488e-01     4.12986e-01
 c15bf                                  6      0.0000       0.00000       A     3.31481e-01     4.14665e-01
 c16bf                                  6      0.0000       0.00000       A     3.31488e-01     4.12986e-01
 c17bf                                  6      0.0000       0.00000       A     3.31501e-01     4.12675e-01
 n18bf                                  7      0.0000       0.00000       A     3.36783e-01     4.69230e-01
 c19bf                                  6      0.0000       0.00000       A     3.39852e-01     4.50845e-01
 c20bf                                  6      0.0000       0.00000       A     3.39852e-01     4.50845e-01
 h21bf                                  1      0.0000       0.00000       A     2.62585e-01     6.77292e-02
 h22bf                                  1      0.0000       0.00000       A     2.62585e-01     6.77292e-02
 f23bf                                  9      0.0000       0.00000       A     3.03427e-01     3.47782e-01
 h24bf                                  1      0.0000       0.00000       A     2.62536e-01     6.71355e-02
 h25bf                                  1      0.0000       0.00000       A     2.62473e-01     6.73350e-02
 h26bf                                  1      0.0000       0.00000       A     2.62473e-01     6.73350e-02
 h27bf                                  1      0.0000       0.00000       A     2.62536e-01     6.71355e-02
 h28bf                                  1      0.0000       0.00000       A     1.10093e-01     4.19894e-02
 h29bf                                  1      0.0000       0.00000       A     1.10093e-01     4.19894e-02
 h30bf                                  1      0.0000       0.00000       A     2.59989e-01     8.71151e-02
 h31bf                                  1      0.0000       0.00000       A     2.59989e-01     8.71151e-02
 h32bf                                  1      0.0000       0.00000       A     2.59989e-01     8.71151e-02
 h33bf                                  1      0.0000       0.00000       A     2.59989e-01     8.71151e-02
 h34bf                                  1      0.0000       0.00000       A     2.59989e-01     8.71151e-02
 h35bf                                  1      0.0000       0.00000       A     2.59989e-01     8.71151e-02

[ moleculetype ]
;name             nrexcl
 4h                    3

[ atoms ]
;       nr            type      resi   res      atom      cgnr      charge          mass ; qtot
         1            n0bf         1   UNL        n0         1    -0.15275       14.0070 ; qtot   -0.153
         2            n1bf         1   UNL        n1         2    -0.24193       14.0070 ; qtot   -0.395
         3            c2bf         1   UNL        c2         3     0.26239       12.0110 ; qtot   -0.132
         4            c3bf         1   UNL        c3         4     0.20627       12.0110 ; qtot    0.074
         5            n4bf         1   UNL        n4         5    -0.22989       14.0070 ; qtot   -0.156
         6            c5bf         1   UNL        c5         6     0.30797       12.0110 ; qtot    0.152
         7            n6bf         1   UNL        n6         7    -0.67570       14.0070 ; qtot   -0.524
         8            c7bf         1   UNL        c7         8     0.35508       12.0110 ; qtot   -0.169
         9            c8bf         1   UNL        c8         9    -0.13664       12.0110 ; qtot   -0.305
        10            c9bf         1   UNL        c9        10    -0.10277       12.0110 ; qtot   -0.408
        11           c10bf         1   UNL       c10        11    -0.13664       12.0110 ; qtot   -0.545
        12           c11bf         1   UNL       c11        12     0.35508       12.0110 ; qtot   -0.190
        13           c12bf         1   UNL       c12        13     0.17337       12.0110 ; qtot   -0.016
        14           c13bf         1   UNL       c13        14    -0.15402       12.0110 ; qtot   -0.170
        15           c14bf         1   UNL       c14        15    -0.04922       12.0110 ; qtot   -0.219
        16           c15bf         1   UNL       c15        16    -0.17984       12.0110 ; qtot   -0.399
        17           c16bf         1   UNL       c16        17    -0.04922       12.0110 ; qtot   -0.448
        18           c17bf         1   UNL       c17        18    -0.15402       12.0110 ; qtot   -0.602
        19           n18bf         1   UNL       n18        19    -1.02351       14.0070 ; qtot   -1.626
        20           c19bf         1   UNL       c19        20    -0.14420       12.0110 ; qtot   -1.770
        21           c20bf         1   UNL       c20        21    -0.14420       12.0110 ; qtot   -1.914
        22           h21bf         1   UNL       h21        22     0.13452        1.0080 ; qtot   -1.780
        23           h22bf         1   UNL       h22        23     0.13452        1.0080 ; qtot   -1.645
        24           f23bf         1   UNL       f23        24    -0.17685       18.9980 ; qtot   -1.822
        25           h24bf         1   UNL       h24        25     0.13738        1.0080 ; qtot   -1.685
        26           h25bf         1   UNL       h25        26     0.13148        1.0080 ; qtot   -1.553
        27           h26bf         1   UNL       h26        27     0.13148        1.0080 ; qtot   -1.422
        28           h27bf         1   UNL       h27        28     0.13738        1.0080 ; qtot   -1.284
        29           h28bf         1   UNL       h28        29     0.48059        1.0080 ; qtot   -0.804
        30           h29bf         1   UNL       h29        30     0.48059        1.0080 ; qtot   -0.323
        31           h30bf         1   UNL       h30        31     0.05389        1.0080 ; qtot   -0.269
        32           h31bf         1   UNL       h31        32     0.05389        1.0080 ; qtot   -0.216
        33           h32bf         1   UNL       h32        33     0.05389        1.0080 ; qtot   -0.162
        34           h33bf         1   UNL       h33        34     0.05389        1.0080 ; qtot   -0.108
        35           h34bf         1   UNL       h34        35     0.05389        1.0080 ; qtot   -0.054
        36           h35bf         1   UNL       h35        36     0.05385        1.0080 ; qtot    0.000

[ bonds ]
;       ai        aj funct               r               k
         1         2     1        0.132260   299729.308105
         1         6     1        0.134751   240973.654541
         2         3     1        0.134161   275696.717529
         3         4     1        0.142528   215369.816699
         3        10     1        0.148543   208988.488892
         4         5     1        0.133549   327112.418506
         4        16     1        0.148441   207286.389478
         5         6     1        0.134351   271645.025293
         6        19     1        0.136992   327257.367139
         7         8     1        0.134401   299548.045703
         7        12     1        0.134401   299548.045703
         8         9     1        0.140062   282671.770361
         8        21     1        0.150874   206199.453491
         9        10     1        0.139941   296493.909570
         9        22     1        0.108469   322669.548828
        10        11     1        0.139941   296493.909570
        11        12     1        0.140062   282671.770361
        11        23     1        0.108469   322669.548828
        12        20     1        0.150874   206199.453491
        13        14     1        0.139219   306800.329395
        13        18     1        0.139219   306800.329395
        13        24     1        0.135527   291307.424805
        14        15     1        0.139558   319228.448877
        14        25     1        0.108491   324826.872754
        15        16     1        0.140506   285682.442334
        15        26     1        0.108458   323747.674512
        16        17     1        0.140506   285682.442334
        17        18     1        0.139558   319228.448877
        17        27     1        0.108458   323747.674512
        18        28     1        0.108491   324826.872754
        19        29     1        0.101097   429488.110742
        19        30     1        0.101097   429488.110742
        20        31     1        0.109372   304019.951074
        20        32     1        0.109372   304019.951074
        20        33     1        0.109372   304019.951074
        21        34     1        0.109372   304019.951074
        21        35     1        0.109372   304019.951074
        21        36     1        0.109372   304019.951074

[ angles ]
;       ai        aj        ak funct           theta             cth
         1         2         3     1      120.972328      826.589881
         1         6         5     1      125.882187      669.346853
         1         6        19     1      116.729599      637.422275
         2         1         6     1      117.699364      924.749677
         2         3         4     1      119.642014      765.563531
         2         3        10     1      115.069382      526.930161
         3         4         5     1      119.161575      770.118138
         3         4        16     1      124.835281      440.554017
         3        10         9     1      120.954674      475.126698
         3        10        11     1      120.954674      475.126698
         4         3        10     1      125.080460      446.011042
         4         5         6     1      116.549789      994.194718
         4        16        15     1      120.429420      503.178191
         4        16        17     1      120.429420      503.178191
         5         4        16     1      116.013489      482.313320
         5         6        19     1      116.922890      592.907965
         6        19        29     1      115.911415      477.678845
         6        19        30     1      115.911415      477.678845
         7         8         9     1      122.216469      728.055710
         7         8        21     1      116.238647      454.549981
         7        12        11     1      122.216469      728.055710
         7        12        20     1      116.238647      454.549981
         8         7        12     1      118.814575      694.407823
         8         9        10     1      119.277878      757.749176
         8         9        22     1      120.160461      398.968622
         8        21        34     1      110.680740      489.693832
         8        21        35     1      110.680740      489.693832
         8        21        36     1      110.680740      489.693832
         9         8        21     1      121.321190      453.252632
         9        10        11     1      118.030235      762.124193
        10         9        22     1      120.515099      398.713634
        10        11        12     1      119.277878      757.749176
        10        11        23     1      120.515114      398.713634
        11        12        20     1      121.321190      453.252600
        12        11        23     1      120.160461      398.968558
        12        20        31     1      110.680740      489.693800
        12        20        32     1      110.680740      489.693800
        12        20        33     1      110.680740      489.693800
        13        14        15     1      118.543686      711.344354
        13        14        25     1      119.838074      447.128322
        13        18        17     1      118.543686      711.344354
        13        18        28     1      119.838074      447.128322
        14        13        18     1      122.178696      558.602689
        14        13        24     1      118.911842      581.302370
        14        15        16     1      120.924416      692.327187
        14        15        26     1      119.432289      407.244178
        15        14        25     1      121.619766      420.756501
        15        16        17     1      118.904099      714.505145
        16        15        26     1      119.588463      383.769126
        16        17        18     1      120.924416      692.327187
        16        17        27     1      119.588463      383.769126
        17        18        28     1      121.619766      420.756501
        18        13        24     1      118.911842      581.302306
        18        17        27     1      119.432289      407.244178
        29        19        30     1      117.818871      318.801156
        31        20        32     1      108.254662      359.304799
        31        20        33     1      108.254662      359.304799
        32        20        33     1      108.254662      359.304799
        34        21        35     1      108.254662      359.304799
        34        21        36     1      108.254662      359.304799
        35        21        36     1      108.254662      359.304767

[ dihedrals ] ; propers for gromacs 4.5 or higher, use funct 9
;       ai        aj        ak        al funct           phase               k        pn
         1         2         3         4     9        0.000000        0.796067         1
         1         2         3         4     9      180.000000       22.570595         2
         1         2         3         4     9        0.000000        1.231704         3
         1         2         3         4     9      180.000000       -0.878803         4
         1         2         3        10     9        0.000000        0.667767         1
         1         2         3        10     9      180.000000       25.799308         2
         1         2         3        10     9        0.000000        2.290158         3
         1         2         3        10     9      180.000000       -1.489478         4
         1         6         5         4     9        0.000000        0.617944         1
         1         6         5         4     9      180.000000        9.528009         2
         1         6         5         4     9        0.000000        0.428162         3
         1         6         5         4     9      180.000000       -0.490773         4
         1         6        19        29     9        0.000000        2.084886         1
         1         6        19        29     9      180.000000        7.869700         2
         1         6        19        29     9        0.000000       -0.285384         3
         1         6        19        29     9      180.000000       -0.670789         4
         1         6        19        30     9        0.000000        2.084886         1
         1         6        19        30     9      180.000000        7.869700         2
         1         6        19        30     9        0.000000       -0.285384         3
         1         6        19        30     9      180.000000       -0.670789         4
         2         1         6         5     9        0.000000        0.996669         1
         2         1         6         5     9      180.000000        9.806670         2
         2         1         6         5     9        0.000000        1.154760         3
         2         1         6         5     9      180.000000       -0.713160         4
         2         1         6        19     9        0.000000        1.188860         1
         2         1         6        19     9      180.000000       18.423536         2
         2         1         6        19     9        0.000000        0.534243         3
         2         1         6        19     9      180.000000       -1.308435         4
         2         3         4         5     9        0.000000        1.836536         1
         2         3         4         5     9      180.000000        2.900170         2
         2         3         4         5     9        0.000000        0.515221         3
         2         3         4         5     9      180.000000       -0.429306         4
         2         3         4        16     9        0.000000       -2.764598         1
         2         3         4        16     9      180.000000        2.449745         2
         2         3         4        16     9        0.000000       -0.252179         3
         2         3         4        16     9      180.000000       -0.745428         4
         2         3        10         9     9        0.000000        0.133015         1
         2         3        10         9     9      180.000000        3.448761         2
         2         3        10         9     9        0.000000        0.080182         3
         2         3        10         9     9      180.000000       -0.069331         4
         2         3        10        11     9        0.000000        0.133015         1
         2         3        10        11     9      180.000000        3.448761         2
         2         3        10        11     9        0.000000        0.080182         3
         2         3        10        11     9      180.000000       -0.069331         4
         3         2         1         6     9        0.000000       -0.002146         1
         3         2         1         6     9      180.000000       21.987950         2
         3         2         1         6     9        0.000000        0.490858         3
         3         2         1         6     9      180.000000       -0.653083         4
         3         4         5         6     9        0.000000       -0.427724         1
         3         4         5         6     9      180.000000       18.518508         2
         3         4         5         6     9        0.000000       -0.970484         3
         3         4         5         6     9      180.000000       -0.271006         4
         3         4        16        15     9        0.000000        0.044541         1
         3         4        16        15     9      180.000000        3.271757         2
         3         4        16        15     9        0.000000        0.232937         3
         3         4        16        15     9      180.000000       -0.235357         4
         3         4        16        17     9        0.000000        0.044541         1
         3         4        16        17     9      180.000000        3.271757         2
         3         4        16        17     9        0.000000        0.232937         3
         3         4        16        17     9      180.000000       -0.235357         4
         3        10         9         8     9        0.000000        0.178736         1
         3        10         9         8     9      180.000000       15.811477         2
         3        10         9         8     9        0.000000       -0.073868         3
         3        10         9         8     9      180.000000       -0.500867         4
         3        10         9        22     9        0.000000       -0.102484         1
         3        10         9        22     9      180.000000       12.876820         2
         3        10         9        22     9        0.000000       -0.262708         3
         3        10         9        22     9      180.000000        0.139690         4
         3        10        11        12     9        0.000000        0.178736         1
         3        10        11        12     9      180.000000       15.811477         2
         3        10        11        12     9        0.000000       -0.073868         3
         3        10        11        12     9      180.000000       -0.500867         4
         3        10        11        23     9        0.000000       -0.102484         1
         3        10        11        23     9      180.000000       12.876820         2
         3        10        11        23     9        0.000000       -0.262708         3
         3        10        11        23     9      180.000000        0.139690         4
         4         3        10         9     9        0.000000       -0.017572         1
         4         3        10         9     9      180.000000        2.180135         2
         4         3        10         9     9        0.000000        0.130834         3
         4         3        10         9     9      180.000000       -0.181154         4
         4         3        10        11     9        0.000000       -0.017572         1
         4         3        10        11     9      180.000000        2.180135         2
         4         3        10        11     9        0.000000        0.130834         3
         4         3        10        11     9      180.000000       -0.181154         4
         4         5         6        19     9        0.000000        0.844283         1
         4         5         6        19     9      180.000000       18.398514         2
         4         5         6        19     9        0.000000        0.300675         3
         4         5         6        19     9      180.000000       -1.336364         4
         4        16        15        14     9        0.000000        0.024643         1
         4        16        15        14     9      180.000000       15.492380         2
         4        16        15        14     9        0.000000       -0.319526         3
         4        16        15        14     9      180.000000       -0.343056         4
         4        16        15        26     9        0.000000       -0.109041         1
         4        16        15        26     9      180.000000       12.747554         2
         4        16        15        26     9        0.000000       -0.282992         3
         4        16        15        26     9      180.000000        0.131536         4
         4        16        17        18     9        0.000000        0.024643         1
         4        16        17        18     9      180.000000       15.492380         2
         4        16        17        18     9        0.000000       -0.319526         3
         4        16        17        18     9      180.000000       -0.343056         4
         4        16        17        27     9        0.000000       -0.109041         1
         4        16        17        27     9      180.000000       12.747554         2
         4        16        17        27     9        0.000000       -0.282992         3
         4        16        17        27     9      180.000000        0.131536         4
         5         4         3        10     9        0.000000       -1.641359         1
         5         4         3        10     9      180.000000        5.430311         2
         5         4         3        10     9        0.000000       -0.103748         3
         5         4         3        10     9      180.000000       -0.827158         4
         5         4        16        15     9        0.000000       -0.089053         1
         5         4        16        15     9      180.000000        4.791460         2
         5         4        16        15     9        0.000000       -0.024060         3
         5         4        16        15     9      180.000000        0.205188         4
         5         4        16        17     9        0.000000       -0.089053         1
         5         4        16        17     9      180.000000        4.791460         2
         5         4        16        17     9        0.000000       -0.024060         3
         5         4        16        17     9      180.000000        0.205188         4
         5         6        19        29     9        0.000000        1.716704         1
         5         6        19        29     9      180.000000        8.533549         2
         5         6        19        29     9        0.000000       -0.306059         3
         5         6        19        29     9      180.000000       -0.822715         4
         5         6        19        30     9        0.000000        1.716704         1
         5         6        19        30     9      180.000000        8.533549         2
         5         6        19        30     9        0.000000       -0.306059         3
         5         6        19        30     9      180.000000       -0.822715         4
         6         5         4        16     9        0.000000        0.261148         1
         6         5         4        16     9      180.000000       20.337008         2
         6         5         4        16     9        0.000000        0.012323         3
         6         5         4        16     9      180.000000       -0.880111         4
         7         8         9        10     9        0.000000        0.034632         1
         7         8         9        10     9      180.000000       17.758213         2
         7         8         9        10     9        0.000000       -0.574489         3
         7         8         9        10     9      180.000000       -0.744120         4
         7         8         9        22     9        0.000000       -0.090934         1
         7         8         9        22     9      180.000000       13.590607         2
         7         8         9        22     9        0.000000       -0.222586         3
         7         8         9        22     9      180.000000       -0.164253         4
         7         8        21        34     9        0.000000       -0.024108         1
         7         8        21        34     9      180.000000        0.006771         2
         7         8        21        34     9        0.000000        0.088769         3
         7         8        21        34     9      180.000000        0.008523         4
         7         8        21        35     9        0.000000       -0.024108         1
         7         8        21        35     9      180.000000        0.006771         2
         7         8        21        35     9        0.000000        0.088769         3
         7         8        21        35     9      180.000000        0.008523         4
         7         8        21        36     9        0.000000       -0.024108         1
         7         8        21        36     9      180.000000        0.006771         2
         7         8        21        36     9        0.000000        0.088769         3
         7         8        21        36     9      180.000000        0.008523         4
         7        12        11        10     9        0.000000        0.034632         1
         7        12        11        10     9      180.000000       17.758213         2
         7        12        11        10     9        0.000000       -0.574489         3
         7        12        11        10     9      180.000000       -0.744120         4
         7        12        11        23     9        0.000000       -0.090934         1
         7        12        11        23     9      180.000000       13.590607         2
         7        12        11        23     9        0.000000       -0.222586         3
         7        12        11        23     9      180.000000       -0.164253         4
         7        12        20        31     9        0.000000       -0.024108         1
         7        12        20        31     9      180.000000        0.006771         2
         7        12        20        31     9        0.000000        0.088769         3
         7        12        20        31     9      180.000000        0.008523         4
         7        12        20        32     9        0.000000       -0.024108         1
         7        12        20        32     9      180.000000        0.006771         2
         7        12        20        32     9        0.000000        0.088769         3
         7        12        20        32     9      180.000000        0.008523         4
         7        12        20        33     9        0.000000       -0.024108         1
         7        12        20        33     9      180.000000        0.006771         2
         7        12        20        33     9        0.000000        0.088769         3
         7        12        20        33     9      180.000000        0.008523         4
         8         7        12        11     9        0.000000        0.177474         1
         8         7        12        11     9      180.000000       20.722768         2
         8         7        12        11     9        0.000000       -0.330074         3
         8         7        12        11     9      180.000000       -0.157138         4
         8         7        12        20     9        0.000000        0.403892         1
         8         7        12        20     9      180.000000       21.043227         2
         8         7        12        20     9        0.000000        0.696430         3
         8         7        12        20     9      180.000000       -0.533628         4
         8         9        10        11     9        0.000000       -0.216175         1
         8         9        10        11     9      180.000000       18.597404         2
         8         9        10        11     9        0.000000       -1.711569         3
         8         9        10        11     9      180.000000       -0.528236         4
         9         8         7        12     9        0.000000        0.177474         1
         9         8         7        12     9      180.000000       20.722768         2
         9         8         7        12     9        0.000000       -0.330074         3
         9         8         7        12     9      180.000000       -0.157138         4
         9         8        21        34     9        0.000000       -0.015791         1
         9         8        21        34     9      180.000000       -0.017532         2
         9         8        21        34     9        0.000000       -0.083980         3
         9         8        21        34     9      180.000000        0.007945         4
         9         8        21        35     9        0.000000       -0.015791         1
         9         8        21        35     9      180.000000       -0.017532         2
         9         8        21        35     9        0.000000       -0.083980         3
         9         8        21        35     9      180.000000        0.007945         4
         9         8        21        36     9        0.000000       -0.015791         1
         9         8        21        36     9      180.000000       -0.017532         2
         9         8        21        36     9        0.000000       -0.083980         3
         9         8        21        36     9      180.000000        0.007945         4
         9        10        11        12     9        0.000000       -0.216175         1
         9        10        11        12     9      180.000000       18.597404         2
         9        10        11        12     9        0.000000       -1.711569         3
         9        10        11        12     9      180.000000       -0.528236         4
         9        10        11        23     9        0.000000       -0.058549         1
         9        10        11        23     9      180.000000       14.228010         2
         9        10        11        23     9        0.000000       -0.518583         3
         9        10        11        23     9      180.000000        0.049418         4
        10         3         4        16     9        0.000000        0.796008         1
        10         3         4        16     9      180.000000        6.250063         2
        10         3         4        16     9        0.000000        0.334569         3
        10         3         4        16     9      180.000000       -0.687464         4
        10         9         8        21     9        0.000000        0.222799         1
        10         9         8        21     9      180.000000       15.202533         2
        10         9         8        21     9        0.000000       -0.000319         3
        10         9         8        21     9      180.000000       -0.262604         4
        10        11        12        20     9        0.000000        0.222799         1
        10        11        12        20     9      180.000000       15.202533         2
        10        11        12        20     9        0.000000       -0.000319         3
        10        11        12        20     9      180.000000       -0.262604         4
        11        10         9        22     9        0.000000       -0.058549         1
        11        10         9        22     9      180.000000       14.228010         2
        11        10         9        22     9        0.000000       -0.518583         3
        11        10         9        22     9      180.000000        0.049418         4
        11        12        20        31     9        0.000000       -0.015791         1
        11        12        20        31     9      180.000000       -0.017532         2
        11        12        20        31     9        0.000000       -0.083980         3
        11        12        20        31     9      180.000000        0.007945         4
        11        12        20        32     9        0.000000       -0.015791         1
        11        12        20        32     9      180.000000       -0.017532         2
        11        12        20        32     9        0.000000       -0.083980         3
        11        12        20        32     9      180.000000        0.007945         4
        11        12        20        33     9        0.000000       -0.015791         1
        11        12        20        33     9      180.000000       -0.017532         2
        11        12        20        33     9        0.000000       -0.083980         3
        11        12        20        33     9      180.000000        0.007945         4
        12         7         8        21     9        0.000000        0.403892         1
        12         7         8        21     9      180.000000       21.043227         2
        12         7         8        21     9        0.000000        0.696430         3
        12         7         8        21     9      180.000000       -0.533628         4
        13        14        15        16     9        0.000000       -0.072732         1
        13        14        15        16     9      180.000000       19.006552         2
        13        14        15        16     9        0.000000       -1.552796         3
        13        14        15        16     9      180.000000       -0.489000         4
        13        14        15        26     9        0.000000        0.193490         1
        13        14        15        26     9      180.000000       15.624194         2
        13        14        15        26     9        0.000000       -0.626032         3
        13        14        15        26     9      180.000000        0.006650         4
        13        18        17        16     9        0.000000       -0.072732         1
        13        18        17        16     9      180.000000       19.006552         2
        13        18        17        16     9        0.000000       -1.552796         3
        13        18        17        16     9      180.000000       -0.489000         4
        13        18        17        27     9        0.000000        0.193490         1
        13        18        17        27     9      180.000000       15.624194         2
        13        18        17        27     9        0.000000       -0.626032         3
        13        18        17        27     9      180.000000        0.006650         4
        14        13        18        17     9        0.000000       -0.088134         1
        14        13        18        17     9      180.000000       16.854221         2
        14        13        18        17     9        0.000000       -1.112964         3
        14        13        18        17     9      180.000000       -0.302065         4
        14        13        18        28     9        0.000000        0.120874         1
        14        13        18        28     9      180.000000       12.740690         2
        14        13        18        28     9        0.000000       -0.493003         3
        14        13        18        28     9      180.000000        0.142514         4
        14        15        16        17     9        0.000000       -0.063052         1
        14        15        16        17     9      180.000000       18.637705         2
        14        15        16        17     9        0.000000       -1.312291         3
        14        15        16        17     9      180.000000       -0.441376         4
        15        14        13        18     9        0.000000       -0.088134         1
        15        14        13        18     9      180.000000       16.854221         2
        15        14        13        18     9        0.000000       -1.112964         3
        15        14        13        18     9      180.000000       -0.302065         4
        15        14        13        24     9        0.000000        0.450681         1
        15        14        13        24     9      180.000000       22.344320         2
        15        14        13        24     9        0.000000        0.466479         3
        15        14        13        24     9      180.000000       -0.561975         4
        15        16        17        18     9        0.000000       -0.063052         1
        15        16        17        18     9      180.000000       18.637705         2
        15        16        17        18     9        0.000000       -1.312291         3
        15        16        17        18     9      180.000000       -0.441376         4
        15        16        17        27     9        0.000000        0.080620         1
        15        16        17        27     9      180.000000       14.075799         2
        15        16        17        27     9        0.000000       -0.553923         3
        15        16        17        27     9      180.000000        0.042638         4
        16        15        14        25     9        0.000000        0.049073         1
        16        15        14        25     9      180.000000       14.480411         2
        16        15        14        25     9        0.000000       -0.462803         3
        16        15        14        25     9      180.000000        0.045911         4
        16        17        18        28     9        0.000000        0.049074         1
        16        17        18        28     9      180.000000       14.480409         2
        16        17        18        28     9        0.000000       -0.462804         3
        16        17        18        28     9      180.000000        0.045911         4
        17        16        15        26     9        0.000000        0.080620         1
        17        16        15        26     9      180.000000       14.075799         2
        17        16        15        26     9        0.000000       -0.553923         3
        17        16        15        26     9      180.000000        0.042638         4
        17        18        13        24     9        0.000000        0.450681         1
        17        18        13        24     9      180.000000       22.344320         2
        17        18        13        24     9        0.000000        0.466479         3
        17        18        13        24     9      180.000000       -0.561975         4
        18        13        14        25     9        0.000000        0.120875         1
        18        13        14        25     9      180.000000       12.740693         2
        18        13        14        25     9        0.000000       -0.493004         3
        18        13        14        25     9      180.000000        0.142513         4
        20        12        11        23     9        0.000000       -0.155731         1
        20        12        11        23     9      180.000000       12.546436         2
        20        12        11        23     9        0.000000       -0.437565         3
        20        12        11        23     9      180.000000        0.160463         4
        21         8         9        22     9        0.000000       -0.155731         1
        21         8         9        22     9      180.000000       12.546436         2
        21         8         9        22     9        0.000000       -0.437565         3
        21         8         9        22     9      180.000000        0.160463         4
        24        13        14        25     9        0.000000        0.255173         1
        24        13        14        25     9      180.000000       15.641237         2
        24        13        14        25     9        0.000000        0.316513         3
        24        13        14        25     9      180.000000        0.163079         4
        24        13        18        28     9        0.000000        0.255173         1
        24        13        18        28     9      180.000000       15.641237         2
        24        13        18        28     9        0.000000        0.316514         3
        24        13        18        28     9      180.000000        0.163078         4
        25        14        15        26     9        0.000000       -0.157380         1
        25        14        15        26     9      180.000000       12.153444         2
        25        14        15        26     9        0.000000       -0.741826         3
        25        14        15        26     9      180.000000        0.224684         4
        27        17        18        28     9        0.000000       -0.157380         1
        27        17        18        28     9      180.000000       12.153444         2
        27        17        18        28     9        0.000000       -0.741826         3
        27        17        18        28     9      180.000000        0.224684         4

[ dihedrals ] ; impropers
;       ai        aj        ak        al funct           phase               k        pn
         3         2         4        10     4      180.000000        0.610013         2
         3         4        10         2     4      180.000000        0.610013         2
         3        10         2         4     4      180.000000        0.610013         2
         4         3         5        16     4      180.000000       10.739926         2
         4         5        16         3     4      180.000000       10.739926         2
         4        16         3         5     4      180.000000       10.739926         2
         6         1         5        19     4      180.000000        5.578667         2
         6         5        19         1     4      180.000000        5.578667         2
         6        19         1         5     4      180.000000        5.578667         2
         8         7         9        21     4      180.000000       13.168224         2
         8         9        21         7     4      180.000000       13.168224         2
         8        21         7         9     4      180.000000       13.168224         2
         9         8        10        22     4      180.000000        0.260104         2
         9        10        22         8     4      180.000000        0.260104         2
         9        22         8        10     4      180.000000        0.260104         2
        11        10        12        23     4      180.000000        0.260104         2
        11        12        23        10     4      180.000000        0.260104         2
        11        23        10        12     4      180.000000        0.260104         2
        12         7        11        20     4      180.000000       13.168224         2
        12        11        20         7     4      180.000000       13.168224         2
        12        20         7        11     4      180.000000       13.168224         2
        13        14        18        24     4      180.000000        1.806017         2
        13        18        24        14     4      180.000000        1.806017         2
        13        24        14        18     4      180.000000        1.806017         2
        14        13        15        25     4      180.000000        4.174853         2
        14        15        25        13     4      180.000000        4.174853         2
        14        25        13        15     4      180.000000        4.174853         2
        15        14        16        26     4      180.000000        1.807381         2
        15        16        26        14     4      180.000000        1.807381         2
        15        26        14        16     4      180.000000        1.807381         2
        17        16        18        27     4      180.000000        1.807381         2
        17        18        27        16     4      180.000000        1.807381         2
        17        27        16        18     4      180.000000        1.807381         2
        18        13        17        28     4      180.000000        4.174853         2
        18        17        28        13     4      180.000000        4.174853         2
        18        28        13        17     4      180.000000        4.174853         2

[ pairs ]
;       ai        aj funct
         1         4     1
         1        10     1
         1        29     1
         1        30     1
         2         5     1
         2         9     1
         2        11     1
         2        16     1
         2        19     1
         3         6     1
         3         8     1
         3        12     1
         3        15     1
         3        17     1
         3        22     1
         3        23     1
         4         9     1
         4        11     1
         4        14     1
         4        18     1
         4        19     1
         4        26     1
         4        27     1
         5        10     1
         5        15     1
         5        17     1
         5        29     1
         5        30     1
         6        16     1
         7        10     1
         7        22     1
         7        23     1
         7        31     1
         7        32     1
         7        33     1
         7        34     1
         7        35     1
         7        36     1
         8        11     1
         8        20     1
         9        12     1
         9        23     1
         9        34     1
         9        35     1
         9        36     1
        10        16     1
        10        20     1
        10        21     1
        11        22     1
        11        31     1
        11        32     1
        11        33     1
        12        21     1
        13        16     1
        13        26     1
        13        27     1
        14        17     1
        14        28     1
        15        18     1
        15        24     1
        15        27     1
        16        25     1
        16        28     1
        17        24     1
        17        26     1
        18        25     1
        20        23     1
        21        22     1
        24        25     1
        24        28     1
        25        26     1
        27        28     1
