; ITP file created by ByteFF-ML, 2025-12-06 04:35:55.343350

[ atomtypes ]
;name           bonded.type        at.num        mass        charge   ptype           sigma         epsilon
 n0bf                                   7      0.0000       0.00000       A     3.38432e-01     3.91971e-01
 n1bf                                   7      0.0000       0.00000       A     3.38091e-01     3.88523e-01
 c2bf                                   6      0.0000       0.00000       A     3.31565e-01     4.11724e-01
 c3bf                                   6      0.0000       0.00000       A     3.31252e-01     4.13548e-01
 n4bf                                   7      0.0000       0.00000       A     3.38445e-01     3.92580e-01
 c5bf                                   6      0.0000       0.00000       A     3.31386e-01     4.16721e-01
 n6bf                                   7      0.0000       0.00000       A     3.38284e-01     3.93570e-01
 c7bf                                   6      0.0000       0.00000       A     3.31473e-01     4.12629e-01
 c8bf                                   6      0.0000       0.00000       A     3.31487e-01     4.12933e-01
 c9bf                                   6      0.0000       0.00000       A     3.31358e-01     4.13372e-01
 c10bf                                  6      0.0000       0.00000       A     3.31487e-01     4.12933e-01
 c11bf                                  6      0.0000       0.00000       A     3.31473e-01     4.12629e-01
 c12bf                                  6      0.0000       0.00000       A     3.31577e-01     4.12654e-01
 c13bf                                  6      0.0000       0.00000       A     3.31521e-01     4.13725e-01
 c14bf                                  6      0.0000       0.00000       A     3.31479e-01     4.13918e-01
 c15bf                                  6      0.0000       0.00000       A     3.31475e-01     4.13321e-01
 c16bf                                  6      0.0000       0.00000       A     3.31479e-01     4.13918e-01
 c17bf                                  6      0.0000       0.00000       A     3.31521e-01     4.13725e-01
 n18bf                                  7      0.0000       0.00000       A     3.36783e-01     4.69230e-01
 c19bf                                  6      0.0000       0.00000       A     3.39852e-01     4.50845e-01
 c20bf                                  6      0.0000       0.00000       A     3.39852e-01     4.50845e-01
 h21bf                                  1      0.0000       0.00000       A     2.62585e-01     6.77292e-02
 h22bf                                  1      0.0000       0.00000       A     2.62585e-01     6.77292e-02
 h23bf                                  1      0.0000       0.00000       A     2.62457e-01     6.72600e-02
 f24bf                                  9      0.0000       0.00000       A     3.03463e-01     3.48447e-01
 h25bf                                  1      0.0000       0.00000       A     2.62504e-01     6.74483e-02
 h26bf                                  1      0.0000       0.00000       A     2.62504e-01     6.74483e-02
 f27bf                                  9      0.0000       0.00000       A     3.03463e-01     3.48447e-01
 h28bf                                  1      0.0000       0.00000       A     1.10093e-01     4.19894e-02
 h29bf                                  1      0.0000       0.00000       A     1.10093e-01     4.19894e-02
 h30bf                                  1      0.0000       0.00000       A     2.59989e-01     8.71151e-02
 h31bf                                  1      0.0000       0.00000       A     2.59989e-01     8.71151e-02
 h32bf                                  1      0.0000       0.00000       A     2.59989e-01     8.71151e-02
 h33bf                                  1      0.0000       0.00000       A     2.59989e-01     8.71151e-02
 h34bf                                  1      0.0000       0.00000       A     2.59989e-01     8.71151e-02
 h35bf                                  1      0.0000       0.00000       A     2.59989e-01     8.71151e-02

[ moleculetype ]
;name             nrexcl
 4i                    3

[ atoms ]
;       nr            type      resi   res      atom      cgnr      charge          mass ; qtot
         1            n0bf         1   UNL        n0         1    -0.15275       14.0070 ; qtot   -0.153
         2            n1bf         1   UNL        n1         2    -0.24193       14.0070 ; qtot   -0.395
         3            c2bf         1   UNL        c2         3     0.26815       12.0110 ; qtot   -0.127
         4            c3bf         1   UNL        c3         4     0.19820       12.0110 ; qtot    0.072
         5            n4bf         1   UNL        n4         5    -0.22714       14.0070 ; qtot   -0.155
         6            c5bf         1   UNL        c5         6     0.30797       12.0110 ; qtot    0.152
         7            n6bf         1   UNL        n6         7    -0.67570       14.0070 ; qtot   -0.523
         8            c7bf         1   UNL        c7         8     0.35508       12.0110 ; qtot   -0.168
         9            c8bf         1   UNL        c8         9    -0.13664       12.0110 ; qtot   -0.305
        10            c9bf         1   UNL        c9        10    -0.10277       12.0110 ; qtot   -0.408
        11           c10bf         1   UNL       c10        11    -0.13664       12.0110 ; qtot   -0.544
        12           c11bf         1   UNL       c11        12     0.35508       12.0110 ; qtot   -0.189
        13           c12bf         1   UNL       c12        13    -0.17623       12.0110 ; qtot   -0.365
        14           c13bf         1   UNL       c13        14     0.18772       12.0110 ; qtot   -0.178
        15           c14bf         1   UNL       c14        15    -0.12552       12.0110 ; qtot   -0.303
        16           c15bf         1   UNL       c15        16    -0.11002       12.0110 ; qtot   -0.413
        17           c16bf         1   UNL       c16        17    -0.12552       12.0110 ; qtot   -0.539
        18           c17bf         1   UNL       c17        18     0.18772       12.0110 ; qtot   -0.351
        19           n18bf         1   UNL       n18        19    -1.02351       14.0070 ; qtot   -1.374
        20           c19bf         1   UNL       c19        20    -0.14420       12.0110 ; qtot   -1.519
        21           c20bf         1   UNL       c20        21    -0.14420       12.0110 ; qtot   -1.663
        22           h21bf         1   UNL       h21        22     0.13452        1.0080 ; qtot   -1.528
        23           h22bf         1   UNL       h22        23     0.13452        1.0080 ; qtot   -1.394
        24           h23bf         1   UNL       h23        24     0.15622        1.0080 ; qtot   -1.238
        25           f24bf         1   UNL       f24        25    -0.17136       18.9980 ; qtot   -1.409
        26           h25bf         1   UNL       h25        26     0.14791        1.0080 ; qtot   -1.261
        27           h26bf         1   UNL       h26        27     0.14791        1.0080 ; qtot   -1.113
        28           f27bf         1   UNL       f27        28    -0.17136       18.9980 ; qtot   -1.284
        29           h28bf         1   UNL       h28        29     0.48059        1.0080 ; qtot   -0.804
        30           h29bf         1   UNL       h29        30     0.48059        1.0080 ; qtot   -0.323
        31           h30bf         1   UNL       h30        31     0.05389        1.0080 ; qtot   -0.269
        32           h31bf         1   UNL       h31        32     0.05389        1.0080 ; qtot   -0.216
        33           h32bf         1   UNL       h32        33     0.05389        1.0080 ; qtot   -0.162
        34           h33bf         1   UNL       h33        34     0.05389        1.0080 ; qtot   -0.108
        35           h34bf         1   UNL       h34        35     0.05389        1.0080 ; qtot   -0.054
        36           h35bf         1   UNL       h35        36     0.05386        1.0080 ; qtot   -0.000

[ bonds ]
;       ai        aj funct               r               k
         1         2     1        0.132260   299729.308105
         1         6     1        0.134751   240973.654541
         2         3     1        0.134161   275696.717529
         3         4     1        0.142327   218562.031982
         3        10     1        0.148543   208988.488892
         4         5     1        0.133483   328867.226514
         4        16     1        0.148664   205909.466846
         5         6     1        0.134351   271645.025293
         6        19     1        0.136992   327257.367139
         7         8     1        0.134401   299548.045703
         7        12     1        0.134401   299548.045703
         8         9     1        0.140062   282671.770361
         8        21     1        0.150874   206199.453491
         9        10     1        0.139941   296493.909570
         9        22     1        0.108469   322669.548828
        10        11     1        0.139941   296493.909570
        11        12     1        0.140062   282671.770361
        11        23     1        0.108469   322669.548828
        12        20     1        0.150874   206199.453491
        13        14     1        0.139184   305134.084082
        13        18     1        0.139184   305134.084082
        13        24     1        0.108383   329735.309473
        14        15     1        0.138956   310539.753857
        14        25     1        0.135453   293002.246143
        15        16     1        0.140355   290440.439941
        15        26     1        0.108375   327158.844971
        16        17     1        0.140355   290440.439941
        17        18     1        0.138956   310539.753857
        17        27     1        0.108375   327158.844971
        18        28     1        0.135453   293002.246143
        19        29     1        0.101097   429488.110742
        19        30     1        0.101097   429488.110742
        20        31     1        0.109372   304019.951074
        20        32     1        0.109372   304019.951074
        20        33     1        0.109372   304019.951074
        21        34     1        0.109372   304019.951074
        21        35     1        0.109372   304019.951074
        21        36     1        0.109372   304019.951074

[ angles ]
;       ai        aj        ak funct           theta             cth
         1         2         3     1      120.972328      826.589881
         1         6         5     1      125.882187      669.346853
         1         6        19     1      116.729599      637.422275
         2         1         6     1      117.699364      924.749677
         2         3         4     1      119.527100      756.812219
         2         3        10     1      115.069382      526.930161
         3         4         5     1      119.391518      764.360031
         3         4        16     1      124.734940      443.540933
         3        10         9     1      120.954674      475.126698
         3        10        11     1      120.954674      475.126698
         4         3        10     1      125.115524      445.380467
         4         5         6     1      116.506126      988.554975
         4        16        15     1      119.858871      492.243776
         4        16        17     1      119.858871      492.243776
         5         4        16     1      115.748001      481.361073
         5         6        19     1      116.922890      592.907965
         6        19        29     1      115.911415      477.678845
         6        19        30     1      115.911415      477.678845
         7         8         9     1      122.216469      728.055710
         7         8        21     1      116.238647      454.549981
         7        12        11     1      122.216469      728.055710
         7        12        20     1      116.238647      454.549981
         8         7        12     1      118.814575      694.407823
         8         9        10     1      119.277878      757.749176
         8         9        22     1      120.160461      398.968622
         8        21        34     1      110.680740      489.693832
         8        21        35     1      110.680740      489.693832
         8        21        36     1      110.680740      489.693832
         9         8        21     1      121.321190      453.252632
         9        10        11     1      118.030235      762.124193
        10         9        22     1      120.515099      398.713634
        10        11        12     1      119.277878      757.749176
        10        11        23     1      120.515114      398.713634
        11        12        20     1      121.321190      453.252600
        12        11        23     1      120.160461      398.968558
        12        20        31     1      110.680740      489.693800
        12        20        32     1      110.680740      489.693800
        12        20        33     1      110.680740      489.693800
        13        14        15     1      123.009567      630.502676
        13        14        25     1      118.254990      546.814568
        13        18        17     1      123.009567      630.502676
        13        18        28     1      118.254990      546.814695
        14        13        18     1      116.444824      693.663161
        14        13        24     1      121.754539      420.766843
        14        15        16     1      118.692238      684.296086
        14        15        26     1      119.773277      407.740396
        15        14        25     1      118.664162      554.915066
        15        16        17     1      119.896324      696.953873
        16        15        26     1      121.395226      385.886408
        16        17        18     1      118.692238      684.296086
        16        17        27     1      121.395226      385.886408
        17        18        28     1      118.664162      554.915066
        18        13        24     1      121.754539      420.766843
        18        17        27     1      119.773277      407.740396
        29        19        30     1      117.818871      318.801156
        31        20        32     1      108.254662      359.304799
        31        20        33     1      108.254662      359.304799
        32        20        33     1      108.254662      359.304799
        34        21        35     1      108.254662      359.304799
        34        21        36     1      108.254662      359.304799
        35        21        36     1      108.254662      359.304767

[ dihedrals ] ; propers for gromacs 4.5 or higher, use funct 9
;       ai        aj        ak        al funct           phase               k        pn
         1         2         3         4     9        0.000000        0.963248         1
         1         2         3         4     9      180.000000       22.656394         2
         1         2         3         4     9        0.000000        1.325430         3
         1         2         3         4     9      180.000000       -0.875947         4
         1         2         3        10     9        0.000000        0.667767         1
         1         2         3        10     9      180.000000       25.799308         2
         1         2         3        10     9        0.000000        2.290158         3
         1         2         3        10     9      180.000000       -1.489478         4
         1         6         5         4     9        0.000000        0.695197         1
         1         6         5         4     9      180.000000        9.390356         2
         1         6         5         4     9        0.000000        0.468437         3
         1         6         5         4     9      180.000000       -0.504792         4
         1         6        19        29     9        0.000000        2.084886         1
         1         6        19        29     9      180.000000        7.869700         2
         1         6        19        29     9        0.000000       -0.285384         3
         1         6        19        29     9      180.000000       -0.670789         4
         1         6        19        30     9        0.000000        2.084886         1
         1         6        19        30     9      180.000000        7.869700         2
         1         6        19        30     9        0.000000       -0.285384         3
         1         6        19        30     9      180.000000       -0.670789         4
         2         1         6         5     9        0.000000        0.996669         1
         2         1         6         5     9      180.000000        9.806670         2
         2         1         6         5     9        0.000000        1.154760         3
         2         1         6         5     9      180.000000       -0.713160         4
         2         1         6        19     9        0.000000        1.188860         1
         2         1         6        19     9      180.000000       18.423536         2
         2         1         6        19     9        0.000000        0.534243         3
         2         1         6        19     9      180.000000       -1.308435         4
         2         3         4         5     9        0.000000        1.773329         1
         2         3         4         5     9      180.000000        2.940374         2
         2         3         4         5     9        0.000000        0.544407         3
         2         3         4         5     9      180.000000       -0.441206         4
         2         3         4        16     9        0.000000       -2.041109         1
         2         3         4        16     9      180.000000        2.621082         2
         2         3         4        16     9        0.000000       -0.157847         3
         2         3         4        16     9      180.000000       -0.799567         4
         2         3        10         9     9        0.000000        0.133015         1
         2         3        10         9     9      180.000000        3.448761         2
         2         3        10         9     9        0.000000        0.080182         3
         2         3        10         9     9      180.000000       -0.069331         4
         2         3        10        11     9        0.000000        0.133015         1
         2         3        10        11     9      180.000000        3.448761         2
         2         3        10        11     9        0.000000        0.080182         3
         2         3        10        11     9      180.000000       -0.069331         4
         3         2         1         6     9        0.000000       -0.002146         1
         3         2         1         6     9      180.000000       21.987950         2
         3         2         1         6     9        0.000000        0.490858         3
         3         2         1         6     9      180.000000       -0.653083         4
         3         4         5         6     9        0.000000       -0.503540         1
         3         4         5         6     9      180.000000       18.831699         2
         3         4         5         6     9        0.000000       -1.034536         3
         3         4         5         6     9      180.000000       -0.230245         4
         3         4        16        15     9        0.000000        0.062185         1
         3         4        16        15     9      180.000000        2.953174         2
         3         4        16        15     9        0.000000        0.241832         3
         3         4        16        15     9      180.000000       -0.210716         4
         3         4        16        17     9        0.000000        0.062185         1
         3         4        16        17     9      180.000000        2.953174         2
         3         4        16        17     9        0.000000        0.241832         3
         3         4        16        17     9      180.000000       -0.210716         4
         3        10         9         8     9        0.000000        0.178736         1
         3        10         9         8     9      180.000000       15.811477         2
         3        10         9         8     9        0.000000       -0.073868         3
         3        10         9         8     9      180.000000       -0.500867         4
         3        10         9        22     9        0.000000       -0.102484         1
         3        10         9        22     9      180.000000       12.876820         2
         3        10         9        22     9        0.000000       -0.262708         3
         3        10         9        22     9      180.000000        0.139690         4
         3        10        11        12     9        0.000000        0.178736         1
         3        10        11        12     9      180.000000       15.811477         2
         3        10        11        12     9        0.000000       -0.073868         3
         3        10        11        12     9      180.000000       -0.500867         4
         3        10        11        23     9        0.000000       -0.102484         1
         3        10        11        23     9      180.000000       12.876820         2
         3        10        11        23     9        0.000000       -0.262708         3
         3        10        11        23     9      180.000000        0.139690         4
         4         3        10         9     9        0.000000       -0.036249         1
         4         3        10         9     9      180.000000        2.251311         2
         4         3        10         9     9        0.000000        0.122538         3
         4         3        10         9     9      180.000000       -0.188326         4
         4         3        10        11     9        0.000000       -0.036249         1
         4         3        10        11     9      180.000000        2.251311         2
         4         3        10        11     9        0.000000        0.122538         3
         4         3        10        11     9      180.000000       -0.188326         4
         4         5         6        19     9        0.000000        0.836504         1
         4         5         6        19     9      180.000000       18.516308         2
         4         5         6        19     9        0.000000        0.297645         3
         4         5         6        19     9      180.000000       -1.343110         4
         4        16        15        14     9        0.000000        0.100616         1
         4        16        15        14     9      180.000000       16.269208         2
         4        16        15        14     9        0.000000       -0.239203         3
         4        16        15        14     9      180.000000       -0.524844         4
         4        16        15        26     9        0.000000       -0.129240         1
         4        16        15        26     9      180.000000       13.041295         2
         4        16        15        26     9        0.000000       -0.354118         3
         4        16        15        26     9      180.000000        0.133199         4
         4        16        17        18     9        0.000000        0.100616         1
         4        16        17        18     9      180.000000       16.269208         2
         4        16        17        18     9        0.000000       -0.239203         3
         4        16        17        18     9      180.000000       -0.524844         4
         4        16        17        27     9        0.000000       -0.129240         1
         4        16        17        27     9      180.000000       13.041295         2
         4        16        17        27     9        0.000000       -0.354118         3
         4        16        17        27     9      180.000000        0.133199         4
         5         4         3        10     9        0.000000       -1.568538         1
         5         4         3        10     9      180.000000        5.613505         2
         5         4         3        10     9        0.000000       -0.052257         3
         5         4         3        10     9      180.000000       -0.846027         4
         5         4        16        15     9        0.000000       -0.164154         1
         5         4        16        15     9      180.000000        4.502208         2
         5         4        16        15     9        0.000000       -0.079455         3
         5         4        16        15     9      180.000000        0.228201         4
         5         4        16        17     9        0.000000       -0.164154         1
         5         4        16        17     9      180.000000        4.502208         2
         5         4        16        17     9        0.000000       -0.079455         3
         5         4        16        17     9      180.000000        0.228201         4
         5         6        19        29     9        0.000000        1.716704         1
         5         6        19        29     9      180.000000        8.533549         2
         5         6        19        29     9        0.000000       -0.306059         3
         5         6        19        29     9      180.000000       -0.822715         4
         5         6        19        30     9        0.000000        1.716704         1
         5         6        19        30     9      180.000000        8.533549         2
         5         6        19        30     9        0.000000       -0.306059         3
         5         6        19        30     9      180.000000       -0.822715         4
         6         5         4        16     9        0.000000        0.087851         1
         6         5         4        16     9      180.000000       20.925484         2
         6         5         4        16     9        0.000000        0.061217         3
         6         5         4        16     9      180.000000       -0.876695         4
         7         8         9        10     9        0.000000        0.034632         1
         7         8         9        10     9      180.000000       17.758213         2
         7         8         9        10     9        0.000000       -0.574489         3
         7         8         9        10     9      180.000000       -0.744120         4
         7         8         9        22     9        0.000000       -0.090934         1
         7         8         9        22     9      180.000000       13.590607         2
         7         8         9        22     9        0.000000       -0.222586         3
         7         8         9        22     9      180.000000       -0.164253         4
         7         8        21        34     9        0.000000       -0.024108         1
         7         8        21        34     9      180.000000        0.006771         2
         7         8        21        34     9        0.000000        0.088769         3
         7         8        21        34     9      180.000000        0.008523         4
         7         8        21        35     9        0.000000       -0.024108         1
         7         8        21        35     9      180.000000        0.006771         2
         7         8        21        35     9        0.000000        0.088769         3
         7         8        21        35     9      180.000000        0.008523         4
         7         8        21        36     9        0.000000       -0.024108         1
         7         8        21        36     9      180.000000        0.006771         2
         7         8        21        36     9        0.000000        0.088769         3
         7         8        21        36     9      180.000000        0.008523         4
         7        12        11        10     9        0.000000        0.034632         1
         7        12        11        10     9      180.000000       17.758213         2
         7        12        11        10     9        0.000000       -0.574489         3
         7        12        11        10     9      180.000000       -0.744120         4
         7        12        11        23     9        0.000000       -0.090934         1
         7        12        11        23     9      180.000000       13.590607         2
         7        12        11        23     9        0.000000       -0.222586         3
         7        12        11        23     9      180.000000       -0.164253         4
         7        12        20        31     9        0.000000       -0.024108         1
         7        12        20        31     9      180.000000        0.006771         2
         7        12        20        31     9        0.000000        0.088769         3
         7        12        20        31     9      180.000000        0.008523         4
         7        12        20        32     9        0.000000       -0.024108         1
         7        12        20        32     9      180.000000        0.006771         2
         7        12        20        32     9        0.000000        0.088769         3
         7        12        20        32     9      180.000000        0.008523         4
         7        12        20        33     9        0.000000       -0.024108         1
         7        12        20        33     9      180.000000        0.006771         2
         7        12        20        33     9        0.000000        0.088769         3
         7        12        20        33     9      180.000000        0.008523         4
         8         7        12        11     9        0.000000        0.177474         1
         8         7        12        11     9      180.000000       20.722768         2
         8         7        12        11     9        0.000000       -0.330074         3
         8         7        12        11     9      180.000000       -0.157138         4
         8         7        12        20     9        0.000000        0.403892         1
         8         7        12        20     9      180.000000       21.043227         2
         8         7        12        20     9        0.000000        0.696430         3
         8         7        12        20     9      180.000000       -0.533628         4
         8         9        10        11     9        0.000000       -0.216175         1
         8         9        10        11     9      180.000000       18.597404         2
         8         9        10        11     9        0.000000       -1.711569         3
         8         9        10        11     9      180.000000       -0.528236         4
         9         8         7        12     9        0.000000        0.177474         1
         9         8         7        12     9      180.000000       20.722768         2
         9         8         7        12     9        0.000000       -0.330074         3
         9         8         7        12     9      180.000000       -0.157138         4
         9         8        21        34     9        0.000000       -0.015791         1
         9         8        21        34     9      180.000000       -0.017532         2
         9         8        21        34     9        0.000000       -0.083980         3
         9         8        21        34     9      180.000000        0.007945         4
         9         8        21        35     9        0.000000       -0.015791         1
         9         8        21        35     9      180.000000       -0.017532         2
         9         8        21        35     9        0.000000       -0.083980         3
         9         8        21        35     9      180.000000        0.007945         4
         9         8        21        36     9        0.000000       -0.015791         1
         9         8        21        36     9      180.000000       -0.017532         2
         9         8        21        36     9        0.000000       -0.083980         3
         9         8        21        36     9      180.000000        0.007945         4
         9        10        11        12     9        0.000000       -0.216175         1
         9        10        11        12     9      180.000000       18.597404         2
         9        10        11        12     9        0.000000       -1.711569         3
         9        10        11        12     9      180.000000       -0.528236         4
         9        10        11        23     9        0.000000       -0.058549         1
         9        10        11        23     9      180.000000       14.228010         2
         9        10        11        23     9        0.000000       -0.518583         3
         9        10        11        23     9      180.000000        0.049418         4
        10         3         4        16     9        0.000000        1.156366         1
        10         3         4        16     9      180.000000        6.546127         2
        10         3         4        16     9        0.000000        0.397166         3
        10         3         4        16     9      180.000000       -0.715455         4
        10         9         8        21     9        0.000000        0.222799         1
        10         9         8        21     9      180.000000       15.202533         2
        10         9         8        21     9        0.000000       -0.000319         3
        10         9         8        21     9      180.000000       -0.262604         4
        10        11        12        20     9        0.000000        0.222799         1
        10        11        12        20     9      180.000000       15.202533         2
        10        11        12        20     9        0.000000       -0.000319         3
        10        11        12        20     9      180.000000       -0.262604         4
        11        10         9        22     9        0.000000       -0.058549         1
        11        10         9        22     9      180.000000       14.228010         2
        11        10         9        22     9        0.000000       -0.518583         3
        11        10         9        22     9      180.000000        0.049418         4
        11        12        20        31     9        0.000000       -0.015791         1
        11        12        20        31     9      180.000000       -0.017532         2
        11        12        20        31     9        0.000000       -0.083980         3
        11        12        20        31     9      180.000000        0.007945         4
        11        12        20        32     9        0.000000       -0.015791         1
        11        12        20        32     9      180.000000       -0.017532         2
        11        12        20        32     9        0.000000       -0.083980         3
        11        12        20        32     9      180.000000        0.007945         4
        11        12        20        33     9        0.000000       -0.015791         1
        11        12        20        33     9      180.000000       -0.017532         2
        11        12        20        33     9        0.000000       -0.083980         3
        11        12        20        33     9      180.000000        0.007945         4
        12         7         8        21     9        0.000000        0.403892         1
        12         7         8        21     9      180.000000       21.043227         2
        12         7         8        21     9        0.000000        0.696430         3
        12         7         8        21     9      180.000000       -0.533628         4
        13        14        15        16     9        0.000000        0.057788         1
        13        14        15        16     9      180.000000       17.554762         2
        13        14        15        16     9        0.000000       -1.021036         3
        13        14        15        16     9      180.000000       -0.480996         4
        13        14        15        26     9        0.000000        0.231586         1
        13        14        15        26     9      180.000000       13.615640         2
        13        14        15        26     9        0.000000       -0.553927         3
        13        14        15        26     9      180.000000        0.075822         4
        13        18        17        16     9        0.000000        0.057788         1
        13        18        17        16     9      180.000000       17.554762         2
        13        18        17        16     9        0.000000       -1.021036         3
        13        18        17        16     9      180.000000       -0.480996         4
        13        18        17        27     9        0.000000        0.231586         1
        13        18        17        27     9      180.000000       13.615640         2
        13        18        17        27     9        0.000000       -0.553927         3
        13        18        17        27     9      180.000000        0.075822         4
        14        13        18        17     9        0.000000       -0.127557         1
        14        13        18        17     9      180.000000       17.435817         2
        14        13        18        17     9        0.000000       -1.177729         3
        14        13        18        17     9      180.000000       -0.383945         4
        14        13        18        28     9        0.000000        0.347297         1
        14        13        18        28     9      180.000000       23.388437         2
        14        13        18        28     9        0.000000        0.623001         3
        14        13        18        28     9      180.000000       -0.798052         4
        14        15        16        17     9        0.000000       -0.267965         1
        14        15        16        17     9      180.000000       19.107805         2
        14        15        16        17     9        0.000000       -1.534658         3
        14        15        16        17     9      180.000000       -0.475127         4
        15        14        13        18     9        0.000000       -0.127557         1
        15        14        13        18     9      180.000000       17.435817         2
        15        14        13        18     9        0.000000       -1.177729         3
        15        14        13        18     9      180.000000       -0.383945         4
        15        14        13        24     9        0.000000        0.059698         1
        15        14        13        24     9      180.000000       12.469041         2
        15        14        13        24     9        0.000000       -0.411185         3
        15        14        13        24     9      180.000000        0.164498         4
        15        16        17        18     9        0.000000       -0.267965         1
        15        16        17        18     9      180.000000       19.107805         2
        15        16        17        18     9        0.000000       -1.534658         3
        15        16        17        18     9      180.000000       -0.475127         4
        15        16        17        27     9        0.000000        0.048742         1
        15        16        17        27     9      180.000000       14.352952         2
        15        16        17        27     9        0.000000       -0.499613         3
        15        16        17        27     9      180.000000        0.049174         4
        16        15        14        25     9        0.000000        0.387673         1
        16        15        14        25     9      180.000000       22.976779         2
        16        15        14        25     9        0.000000        0.674219         3
        16        15        14        25     9      180.000000       -0.969643         4
        16        17        18        28     9        0.000000        0.387674         1
        16        17        18        28     9      180.000000       22.976779         2
        16        17        18        28     9        0.000000        0.674219         3
        16        17        18        28     9      180.000000       -0.969643         4
        17        16        15        26     9        0.000000        0.048742         1
        17        16        15        26     9      180.000000       14.352952         2
        17        16        15        26     9        0.000000       -0.499613         3
        17        16        15        26     9      180.000000        0.049174         4
        17        18        13        24     9        0.000000        0.059698         1
        17        18        13        24     9      180.000000       12.469041         2
        17        18        13        24     9        0.000000       -0.411185         3
        17        18        13        24     9      180.000000        0.164498         4
        18        13        14        25     9        0.000000        0.347297         1
        18        13        14        25     9      180.000000       23.388429         2
        18        13        14        25     9        0.000000        0.623001         3
        18        13        14        25     9      180.000000       -0.798053         4
        20        12        11        23     9        0.000000       -0.155731         1
        20        12        11        23     9      180.000000       12.546436         2
        20        12        11        23     9        0.000000       -0.437565         3
        20        12        11        23     9      180.000000        0.160463         4
        21         8         9        22     9        0.000000       -0.155731         1
        21         8         9        22     9      180.000000       12.546436         2
        21         8         9        22     9        0.000000       -0.437565         3
        21         8         9        22     9      180.000000        0.160463         4
        24        13        14        25     9        0.000000        0.299382         1
        24        13        14        25     9      180.000000       15.175831         2
        24        13        14        25     9        0.000000        0.237321         3
        24        13        14        25     9      180.000000        0.215427         4
        24        13        18        28     9        0.000000        0.299382         1
        24        13        18        28     9      180.000000       15.175832         2
        24        13        18        28     9        0.000000        0.237321         3
        24        13        18        28     9      180.000000        0.215426         4
        25        14        15        26     9        0.000000        0.393228         1
        25        14        15        26     9      180.000000       16.831918         2
        25        14        15        26     9        0.000000        0.328277         3
        25        14        15        26     9      180.000000       -0.055798         4
        27        17        18        28     9        0.000000        0.393227         1
        27        17        18        28     9      180.000000       16.831916         2
        27        17        18        28     9        0.000000        0.328277         3
        27        17        18        28     9      180.000000       -0.055797         4

[ dihedrals ] ; impropers
;       ai        aj        ak        al funct           phase               k        pn
         3         2         4        10     4      180.000000        0.949099         2
         3         4        10         2     4      180.000000        0.949099         2
         3        10         2         4     4      180.000000        0.949099         2
         4         3         5        16     4      180.000000        9.703241         2
         4         5        16         3     4      180.000000        9.703241         2
         4        16         3         5     4      180.000000        9.703241         2
         6         1         5        19     4      180.000000        5.578667         2
         6         5        19         1     4      180.000000        5.578667         2
         6        19         1         5     4      180.000000        5.578667         2
         8         7         9        21     4      180.000000       13.168224         2
         8         9        21         7     4      180.000000       13.168224         2
         8        21         7         9     4      180.000000       13.168224         2
         9         8        10        22     4      180.000000        0.260104         2
         9        10        22         8     4      180.000000        0.260104         2
         9        22         8        10     4      180.000000        0.260104         2
        11        10        12        23     4      180.000000        0.260104         2
        11        12        23        10     4      180.000000        0.260104         2
        11        23        10        12     4      180.000000        0.260104         2
        12         7        11        20     4      180.000000       13.168224         2
        12        11        20         7     4      180.000000       13.168224         2
        12        20         7        11     4      180.000000       13.168224         2
        14        13        15        25     4      180.000000        2.850244         2
        14        15        25        13     4      180.000000        2.850244         2
        14        25        13        15     4      180.000000        2.850244         2
        18        13        17        28     4      180.000000        2.850245         2
        18        17        28        13     4      180.000000        2.850245         2
        18        28        13        17     4      180.000000        2.850245         2

[ pairs ]
;       ai        aj funct
         1         4     1
         1        10     1
         1        29     1
         1        30     1
         2         5     1
         2         9     1
         2        11     1
         2        16     1
         2        19     1
         3         6     1
         3         8     1
         3        12     1
         3        15     1
         3        17     1
         3        22     1
         3        23     1
         4         9     1
         4        11     1
         4        14     1
         4        18     1
         4        19     1
         4        26     1
         4        27     1
         5        10     1
         5        15     1
         5        17     1
         5        29     1
         5        30     1
         6        16     1
         7        10     1
         7        22     1
         7        23     1
         7        31     1
         7        32     1
         7        33     1
         7        34     1
         7        35     1
         7        36     1
         8        11     1
         8        20     1
         9        12     1
         9        23     1
         9        34     1
         9        35     1
         9        36     1
        10        16     1
        10        20     1
        10        21     1
        11        22     1
        11        31     1
        11        32     1
        11        33     1
        12        21     1
        13        16     1
        13        26     1
        13        27     1
        14        17     1
        14        28     1
        15        18     1
        15        24     1
        15        27     1
        16        25     1
        16        28     1
        17        24     1
        17        26     1
        18        25     1
        20        23     1
        21        22     1
        24        25     1
        24        28     1
        25        26     1
        27        28     1
