; ITP file created by ByteFF-ML, 2025-12-06 04:37:35.839652

[ atomtypes ]
;name           bonded.type        at.num        mass        charge   ptype           sigma         epsilon
 n0bf                                   7      0.0000       0.00000       A     3.38432e-01     3.91971e-01
 n1bf                                   7      0.0000       0.00000       A     3.38091e-01     3.88523e-01
 c2bf                                   6      0.0000       0.00000       A     3.31565e-01     4.11724e-01
 c3bf                                   6      0.0000       0.00000       A     3.31239e-01     4.13554e-01
 n4bf                                   7      0.0000       0.00000       A     3.38445e-01     3.92580e-01
 c5bf                                   6      0.0000       0.00000       A     3.31386e-01     4.16721e-01
 n6bf                                   7      0.0000       0.00000       A     3.38284e-01     3.93570e-01
 c7bf                                   6      0.0000       0.00000       A     3.31473e-01     4.12629e-01
 c8bf                                   6      0.0000       0.00000       A     3.31487e-01     4.12933e-01
 c9bf                                   6      0.0000       0.00000       A     3.31358e-01     4.13372e-01
 c10bf                                  6      0.0000       0.00000       A     3.31487e-01     4.12933e-01
 c11bf                                  6      0.0000       0.00000       A     3.31473e-01     4.12629e-01
 c12bf                                  6      0.0000       0.00000       A     3.31503e-01     4.12440e-01
 c13bf                                  6      0.0000       0.00000       A     3.31469e-01     4.12956e-01
 c14bf                                  6      0.0000       0.00000       A     3.31427e-01     4.12796e-01
 c15bf                                  6      0.0000       0.00000       A     3.31455e-01     4.13973e-01
 c16bf                                  6      0.0000       0.00000       A     3.31490e-01     4.14488e-01
 c17bf                                  6      0.0000       0.00000       A     3.31530e-01     4.13615e-01
 n18bf                                  7      0.0000       0.00000       A     3.36783e-01     4.69230e-01
 c19bf                                  6      0.0000       0.00000       A     3.39852e-01     4.50845e-01
 c20bf                                  6      0.0000       0.00000       A     3.39852e-01     4.50845e-01
 h21bf                                  1      0.0000       0.00000       A     2.62585e-01     6.77292e-02
 h22bf                                  1      0.0000       0.00000       A     2.62585e-01     6.77292e-02
 h23bf                                  1      0.0000       0.00000       A     2.62514e-01     6.71323e-02
 h24bf                                  1      0.0000       0.00000       A     2.62488e-01     6.75042e-02
 h25bf                                  1      0.0000       0.00000       A     2.62504e-01     6.74483e-02
 f26bf                                  9      0.0000       0.00000       A     3.03450e-01     3.48510e-01
 h27bf                                  1      0.0000       0.00000       A     1.10093e-01     4.19894e-02
 h28bf                                  1      0.0000       0.00000       A     1.10093e-01     4.19894e-02
 h29bf                                  1      0.0000       0.00000       A     2.59989e-01     8.71151e-02
 h30bf                                  1      0.0000       0.00000       A     2.59989e-01     8.71151e-02
 h31bf                                  1      0.0000       0.00000       A     2.59989e-01     8.71151e-02
 h32bf                                  1      0.0000       0.00000       A     2.59989e-01     8.71151e-02
 h33bf                                  1      0.0000       0.00000       A     2.59989e-01     8.71151e-02
 h34bf                                  1      0.0000       0.00000       A     2.59989e-01     8.71151e-02
 h35bf                                  1      0.0000       0.00000       A     2.62505e-01     6.72488e-02

[ moleculetype ]
;name             nrexcl
 4jR                   3

[ atoms ]
;       nr            type      resi   res      atom      cgnr      charge          mass ; qtot
         1            n0bf         1   UNL        n0         1    -0.15275       14.0070 ; qtot   -0.153
         2            n1bf         1   UNL        n1         2    -0.24193       14.0070 ; qtot   -0.395
         3            c2bf         1   UNL        c2         3     0.26540       12.0110 ; qtot   -0.129
         4            c3bf         1   UNL        c3         4     0.20233       12.0110 ; qtot    0.073
         5            n4bf         1   UNL        n4         5    -0.22853       14.0070 ; qtot   -0.155
         6            c5bf         1   UNL        c5         6     0.30797       12.0110 ; qtot    0.152
         7            n6bf         1   UNL        n6         7    -0.67570       14.0070 ; qtot   -0.523
         8            c7bf         1   UNL        c7         8     0.35508       12.0110 ; qtot   -0.168
         9            c8bf         1   UNL        c8         9    -0.13664       12.0110 ; qtot   -0.305
        10            c9bf         1   UNL        c9        10    -0.10277       12.0110 ; qtot   -0.408
        11           c10bf         1   UNL       c10        11    -0.13664       12.0110 ; qtot   -0.544
        12           c11bf         1   UNL       c11        12     0.35508       12.0110 ; qtot   -0.189
        13           c12bf         1   UNL       c12        13    -0.13491       12.0110 ; qtot   -0.324
        14           c13bf         1   UNL       c13        14    -0.08920       12.0110 ; qtot   -0.413
        15           c14bf         1   UNL       c14        15    -0.08752       12.0110 ; qtot   -0.501
        16           c15bf         1   UNL       c15        16    -0.13861       12.0110 ; qtot   -0.639
        17           c16bf         1   UNL       c16        17    -0.11387       12.0110 ; qtot   -0.753
        18           c17bf         1   UNL       c17        18     0.15606       12.0110 ; qtot   -0.597
        19           n18bf         1   UNL       n18        19    -1.02351       14.0070 ; qtot   -1.621
        20           c19bf         1   UNL       c19        20    -0.14420       12.0110 ; qtot   -1.765
        21           c20bf         1   UNL       c20        21    -0.14420       12.0110 ; qtot   -1.909
        22           h21bf         1   UNL       h21        22     0.13452        1.0080 ; qtot   -1.775
        23           h22bf         1   UNL       h22        23     0.13452        1.0080 ; qtot   -1.640
        24           h23bf         1   UNL       h23        24     0.13758        1.0080 ; qtot   -1.502
        25           h24bf         1   UNL       h24        25     0.12815        1.0080 ; qtot   -1.374
        26           h25bf         1   UNL       h25        26     0.14548        1.0080 ; qtot   -1.229
        27           f26bf         1   UNL       f26        27    -0.17832       18.9980 ; qtot   -1.407
        28           h27bf         1   UNL       h27        28     0.48059        1.0080 ; qtot   -0.927
        29           h28bf         1   UNL       h28        29     0.48059        1.0080 ; qtot   -0.446
        30           h29bf         1   UNL       h29        30     0.05389        1.0080 ; qtot   -0.392
        31           h30bf         1   UNL       h30        31     0.05389        1.0080 ; qtot   -0.338
        32           h31bf         1   UNL       h31        32     0.05389        1.0080 ; qtot   -0.284
        33           h32bf         1   UNL       h32        33     0.05389        1.0080 ; qtot   -0.230
        34           h33bf         1   UNL       h33        34     0.05389        1.0080 ; qtot   -0.177
        35           h34bf         1   UNL       h34        35     0.05389        1.0080 ; qtot   -0.123
        36           h35bf         1   UNL       h35        36     0.12261        1.0080 ; qtot   -0.000

[ bonds ]
;       ai        aj funct               r               k
         1         2     1        0.132260   299729.308105
         1         6     1        0.134751   240973.654541
         2         3     1        0.134161   275696.717529
         3         4     1        0.142424   216956.054248
         3        10     1        0.148543   208988.488892
         4         5     1        0.133513   328055.682715
         4        16     1        0.148579   206590.107422
         5         6     1        0.134351   271645.025293
         6        19     1        0.136992   327257.367139
         7         8     1        0.134401   299548.045703
         7        12     1        0.134401   299548.045703
         8         9     1        0.140062   282671.770361
         8        21     1        0.150874   206199.453491
         9        10     1        0.139941   296493.909570
         9        22     1        0.108469   322669.548828
        10        11     1        0.139941   296493.909570
        11        12     1        0.140062   282671.770361
        11        23     1        0.108469   322669.548828
        12        20     1        0.150874   206199.453491
        13        14     1        0.139867   308974.303516
        13        18     1        0.139186   301537.182227
        13        24     1        0.108479   325802.926611
        14        15     1        0.139656   312178.776611
        14        36     1        0.108587   321251.754053
        15        16     1        0.140455   286143.259473
        15        25     1        0.108451   323680.818359
        16        17     1        0.140412   289269.129346
        17        18     1        0.138941   311297.158984
        17        26     1        0.108403   326064.911816
        18        27     1        0.135768   286812.101904
        19        28     1        0.101097   429488.110742
        19        29     1        0.101097   429488.110742
        20        30     1        0.109372   304019.951074
        20        31     1        0.109372   304019.951074
        20        32     1        0.109372   304019.951074
        21        33     1        0.109372   304019.951074
        21        34     1        0.109372   304019.951074
        21        35     1        0.109372   304019.951074

[ angles ]
;       ai        aj        ak funct           theta             cth
         1         2         3     1      120.972328      826.589881
         1         6         5     1      125.882187      669.346853
         1         6        19     1      116.729599      637.422275
         2         1         6     1      117.699364      924.749677
         2         3         4     1      119.581741      760.946486
         2         3        10     1      115.069382      526.930161
         3         4         5     1      119.281570      767.604202
         3         4        16     1      124.764748      442.460490
         3        10         9     1      120.954674      475.126698
         3        10        11     1      120.954674      475.126698
         4         3        10     1      125.097878      445.656108
         4         5         6     1      116.525253      991.316749
         4        16        15     1      120.372299      499.709486
         4        16        17     1      119.867149      492.690675
         5         4        16     1      115.880760      481.927709
         5         6        19     1      116.922890      592.907965
         6        19        28     1      115.911415      477.678845
         6        19        29     1      115.911415      477.678845
         7         8         9     1      122.216469      728.055710
         7         8        21     1      116.238647      454.549981
         7        12        11     1      122.216469      728.055710
         7        12        20     1      116.238647      454.549981
         8         7        12     1      118.814575      694.407823
         8         9        10     1      119.277878      757.749176
         8         9        22     1      120.160461      398.968622
         8        21        33     1      110.680740      489.693832
         8        21        34     1      110.680740      489.693832
         8        21        35     1      110.680740      489.693832
         9         8        21     1      121.321190      453.252632
         9        10        11     1      118.030235      762.124193
        10         9        22     1      120.515099      398.713634
        10        11        12     1      119.277878      757.749176
        10        11        23     1      120.515114      398.713634
        11        12        20     1      121.321190      453.252600
        12        11        23     1      120.160461      398.968558
        12        20        30     1      110.680740      489.693800
        12        20        31     1      110.680740      489.693800
        12        20        32     1      110.680740      489.693800
        13        14        15     1      120.701805      722.164554
        13        14        36     1      119.480873      440.304136
        13        18        17     1      122.726967      635.542807
        13        18        27     1      118.761497      550.219813
        14        13        18     1      117.890259      651.547552
        14        13        24     1      122.126022      423.611103
        14        15        16     1      120.296814      698.345518
        14        15        25     1      120.026390      415.575596
        15        14        36     1      119.764183      426.972105
        15        16        17     1      119.469849      707.452434
        16        15        25     1      119.577347      391.374077
        16        17        18     1      118.812424      686.331138
        16        17        26     1      121.366562      382.788629
        17        18        27     1      118.521896      559.708318
        18        13        24     1      120.000954      426.847835
        18        17        26     1      119.721169      405.340290
        28        19        29     1      117.818871      318.801156
        30        20        31     1      108.254662      359.304799
        30        20        32     1      108.254662      359.304799
        31        20        32     1      108.254662      359.304799
        33        21        34     1      108.254662      359.304799
        33        21        35     1      108.254662      359.304799
        34        21        35     1      108.254662      359.304767

[ dihedrals ] ; propers for gromacs 4.5 or higher, use funct 9
;       ai        aj        ak        al funct           phase               k        pn
         1         2         3         4     9        0.000000        0.891783         1
         1         2         3         4     9      180.000000       22.640333         2
         1         2         3         4     9        0.000000        1.285748         3
         1         2         3         4     9      180.000000       -0.880704         4
         1         2         3        10     9        0.000000        0.667767         1
         1         2         3        10     9      180.000000       25.799308         2
         1         2         3        10     9        0.000000        2.290158         3
         1         2         3        10     9      180.000000       -1.489478         4
         1         6         5         4     9        0.000000        0.653811         1
         1         6         5         4     9      180.000000        9.471110         2
         1         6         5         4     9        0.000000        0.450279         3
         1         6         5         4     9      180.000000       -0.501929         4
         1         6        19        28     9        0.000000        2.084886         1
         1         6        19        28     9      180.000000        7.869700         2
         1         6        19        28     9        0.000000       -0.285384         3
         1         6        19        28     9      180.000000       -0.670789         4
         1         6        19        29     9        0.000000        2.084886         1
         1         6        19        29     9      180.000000        7.869700         2
         1         6        19        29     9        0.000000       -0.285384         3
         1         6        19        29     9      180.000000       -0.670789         4
         2         1         6         5     9        0.000000        0.996669         1
         2         1         6         5     9      180.000000        9.806670         2
         2         1         6         5     9        0.000000        1.154760         3
         2         1         6         5     9      180.000000       -0.713160         4
         2         1         6        19     9        0.000000        1.188860         1
         2         1         6        19     9      180.000000       18.423536         2
         2         1         6        19     9        0.000000        0.534243         3
         2         1         6        19     9      180.000000       -1.308435         4
         2         3         4         5     9        0.000000        1.809451         1
         2         3         4         5     9      180.000000        2.920449         2
         2         3         4         5     9        0.000000        0.528752         3
         2         3         4         5     9      180.000000       -0.432654         4
         2         3         4        16     9        0.000000       -2.382688         1
         2         3         4        16     9      180.000000        2.423280         2
         2         3         4        16     9        0.000000       -0.166917         3
         2         3         4        16     9      180.000000       -0.794800         4
         2         3        10         9     9        0.000000        0.133015         1
         2         3        10         9     9      180.000000        3.448761         2
         2         3        10         9     9        0.000000        0.080182         3
         2         3        10         9     9      180.000000       -0.069331         4
         2         3        10        11     9        0.000000        0.133015         1
         2         3        10        11     9      180.000000        3.448761         2
         2         3        10        11     9        0.000000        0.080182         3
         2         3        10        11     9      180.000000       -0.069331         4
         3         2         1         6     9        0.000000       -0.002146         1
         3         2         1         6     9      180.000000       21.987950         2
         3         2         1         6     9        0.000000        0.490858         3
         3         2         1         6     9      180.000000       -0.653083         4
         3         4         5         6     9        0.000000       -0.465747         1
         3         4         5         6     9      180.000000       18.684330         2
         3         4         5         6     9        0.000000       -0.999491         3
         3         4         5         6     9      180.000000       -0.249853         4
         3         4        16        15     9        0.000000        0.089038         1
         3         4        16        15     9      180.000000        3.029484         2
         3         4        16        15     9        0.000000        0.225683         3
         3         4        16        15     9      180.000000       -0.236611         4
         3         4        16        17     9        0.000000       -0.063043         1
         3         4        16        17     9      180.000000        2.994851         2
         3         4        16        17     9        0.000000        0.237916         3
         3         4        16        17     9      180.000000       -0.220540         4
         3        10         9         8     9        0.000000        0.178736         1
         3        10         9         8     9      180.000000       15.811477         2
         3        10         9         8     9        0.000000       -0.073868         3
         3        10         9         8     9      180.000000       -0.500867         4
         3        10         9        22     9        0.000000       -0.102484         1
         3        10         9        22     9      180.000000       12.876820         2
         3        10         9        22     9        0.000000       -0.262708         3
         3        10         9        22     9      180.000000        0.139690         4
         3        10        11        12     9        0.000000        0.178736         1
         3        10        11        12     9      180.000000       15.811477         2
         3        10        11        12     9        0.000000       -0.073868         3
         3        10        11        12     9      180.000000       -0.500867         4
         3        10        11        23     9        0.000000       -0.102484         1
         3        10        11        23     9      180.000000       12.876820         2
         3        10        11        23     9        0.000000       -0.262708         3
         3        10        11        23     9      180.000000        0.139690         4
         4         3        10         9     9        0.000000       -0.021994         1
         4         3        10         9     9      180.000000        2.217233         2
         4         3        10         9     9        0.000000        0.126349         3
         4         3        10         9     9      180.000000       -0.185966         4
         4         3        10        11     9        0.000000       -0.021994         1
         4         3        10        11     9      180.000000        2.217233         2
         4         3        10        11     9        0.000000        0.126349         3
         4         3        10        11     9      180.000000       -0.185966         4
         4         5         6        19     9        0.000000        0.845567         1
         4         5         6        19     9      180.000000       18.487153         2
         4         5         6        19     9        0.000000        0.300660         3
         4         5         6        19     9      180.000000       -1.341955         4
         4        16        15        14     9        0.000000        0.060210         1
         4        16        15        14     9      180.000000       15.705689         2
         4        16        15        14     9        0.000000       -0.320511         3
         4        16        15        14     9      180.000000       -0.387179         4
         4        16        15        25     9        0.000000       -0.149570         1
         4        16        15        25     9      180.000000       12.897679         2
         4        16        15        25     9        0.000000       -0.315333         3
         4        16        15        25     9      180.000000        0.128165         4
         4        16        17        18     9        0.000000        0.118483         1
         4        16        17        18     9      180.000000       16.160224         2
         4        16        17        18     9        0.000000       -0.244290         3
         4        16        17        18     9      180.000000       -0.500094         4
         4        16        17        26     9        0.000000       -0.125066         1
         4        16        17        26     9      180.000000       12.940954         2
         4        16        17        26     9        0.000000       -0.351360         3
         4        16        17        26     9      180.000000        0.123216         4
         5         4         3        10     9        0.000000       -1.596287         1
         5         4         3        10     9      180.000000        5.518020         2
         5         4         3        10     9        0.000000       -0.077161         3
         5         4         3        10     9      180.000000       -0.835757         4
         5         4        16        15     9        0.000000        0.039321         1
         5         4        16        15     9      180.000000        4.562118         2
         5         4        16        15     9        0.000000       -0.047623         3
         5         4        16        15     9      180.000000        0.204931         4
         5         4        16        17     9        0.000000       -0.202985         1
         5         4        16        17     9      180.000000        4.547103         2
         5         4        16        17     9        0.000000       -0.036591         3
         5         4        16        17     9      180.000000        0.214232         4
         5         6        19        28     9        0.000000        1.716704         1
         5         6        19        28     9      180.000000        8.533549         2
         5         6        19        28     9        0.000000       -0.306059         3
         5         6        19        28     9      180.000000       -0.822715         4
         5         6        19        29     9        0.000000        1.716704         1
         5         6        19        29     9      180.000000        8.533549         2
         5         6        19        29     9        0.000000       -0.306059         3
         5         6        19        29     9      180.000000       -0.822715         4
         6         5         4        16     9        0.000000        0.151572         1
         6         5         4        16     9      180.000000       20.670173         2
         6         5         4        16     9        0.000000        0.035740         3
         6         5         4        16     9      180.000000       -0.887289         4
         7         8         9        10     9        0.000000        0.034632         1
         7         8         9        10     9      180.000000       17.758213         2
         7         8         9        10     9        0.000000       -0.574489         3
         7         8         9        10     9      180.000000       -0.744120         4
         7         8         9        22     9        0.000000       -0.090934         1
         7         8         9        22     9      180.000000       13.590607         2
         7         8         9        22     9        0.000000       -0.222586         3
         7         8         9        22     9      180.000000       -0.164253         4
         7         8        21        33     9        0.000000       -0.024108         1
         7         8        21        33     9      180.000000        0.006771         2
         7         8        21        33     9        0.000000        0.088769         3
         7         8        21        33     9      180.000000        0.008523         4
         7         8        21        34     9        0.000000       -0.024108         1
         7         8        21        34     9      180.000000        0.006771         2
         7         8        21        34     9        0.000000        0.088769         3
         7         8        21        34     9      180.000000        0.008523         4
         7         8        21        35     9        0.000000       -0.024108         1
         7         8        21        35     9      180.000000        0.006771         2
         7         8        21        35     9        0.000000        0.088769         3
         7         8        21        35     9      180.000000        0.008523         4
         7        12        11        10     9        0.000000        0.034632         1
         7        12        11        10     9      180.000000       17.758213         2
         7        12        11        10     9        0.000000       -0.574489         3
         7        12        11        10     9      180.000000       -0.744120         4
         7        12        11        23     9        0.000000       -0.090934         1
         7        12        11        23     9      180.000000       13.590607         2
         7        12        11        23     9        0.000000       -0.222586         3
         7        12        11        23     9      180.000000       -0.164253         4
         7        12        20        30     9        0.000000       -0.024108         1
         7        12        20        30     9      180.000000        0.006771         2
         7        12        20        30     9        0.000000        0.088769         3
         7        12        20        30     9      180.000000        0.008523         4
         7        12        20        31     9        0.000000       -0.024108         1
         7        12        20        31     9      180.000000        0.006771         2
         7        12        20        31     9        0.000000        0.088769         3
         7        12        20        31     9      180.000000        0.008523         4
         7        12        20        32     9        0.000000       -0.024108         1
         7        12        20        32     9      180.000000        0.006771         2
         7        12        20        32     9        0.000000        0.088769         3
         7        12        20        32     9      180.000000        0.008523         4
         8         7        12        11     9        0.000000        0.177474         1
         8         7        12        11     9      180.000000       20.722768         2
         8         7        12        11     9        0.000000       -0.330074         3
         8         7        12        11     9      180.000000       -0.157138         4
         8         7        12        20     9        0.000000        0.403892         1
         8         7        12        20     9      180.000000       21.043227         2
         8         7        12        20     9        0.000000        0.696430         3
         8         7        12        20     9      180.000000       -0.533628         4
         8         9        10        11     9        0.000000       -0.216175         1
         8         9        10        11     9      180.000000       18.597404         2
         8         9        10        11     9        0.000000       -1.711569         3
         8         9        10        11     9      180.000000       -0.528236         4
         9         8         7        12     9        0.000000        0.177474         1
         9         8         7        12     9      180.000000       20.722768         2
         9         8         7        12     9        0.000000       -0.330074         3
         9         8         7        12     9      180.000000       -0.157138         4
         9         8        21        33     9        0.000000       -0.015791         1
         9         8        21        33     9      180.000000       -0.017532         2
         9         8        21        33     9        0.000000       -0.083980         3
         9         8        21        33     9      180.000000        0.007945         4
         9         8        21        34     9        0.000000       -0.015791         1
         9         8        21        34     9      180.000000       -0.017532         2
         9         8        21        34     9        0.000000       -0.083980         3
         9         8        21        34     9      180.000000        0.007945         4
         9         8        21        35     9        0.000000       -0.015791         1
         9         8        21        35     9      180.000000       -0.017532         2
         9         8        21        35     9        0.000000       -0.083980         3
         9         8        21        35     9      180.000000        0.007945         4
         9        10        11        12     9        0.000000       -0.216175         1
         9        10        11        12     9      180.000000       18.597404         2
         9        10        11        12     9        0.000000       -1.711569         3
         9        10        11        12     9      180.000000       -0.528236         4
         9        10        11        23     9        0.000000       -0.058549         1
         9        10        11        23     9      180.000000       14.228010         2
         9        10        11        23     9        0.000000       -0.518583         3
         9        10        11        23     9      180.000000        0.049418         4
        10         3         4        16     9        0.000000        1.011488         1
        10         3         4        16     9      180.000000        6.359316         2
        10         3         4        16     9        0.000000        0.397684         3
        10         3         4        16     9      180.000000       -0.714868         4
        10         9         8        21     9        0.000000        0.222799         1
        10         9         8        21     9      180.000000       15.202533         2
        10         9         8        21     9        0.000000       -0.000319         3
        10         9         8        21     9      180.000000       -0.262604         4
        10        11        12        20     9        0.000000        0.222799         1
        10        11        12        20     9      180.000000       15.202533         2
        10        11        12        20     9        0.000000       -0.000319         3
        10        11        12        20     9      180.000000       -0.262604         4
        11        10         9        22     9        0.000000       -0.058549         1
        11        10         9        22     9      180.000000       14.228010         2
        11        10         9        22     9        0.000000       -0.518583         3
        11        10         9        22     9      180.000000        0.049418         4
        11        12        20        30     9        0.000000       -0.015791         1
        11        12        20        30     9      180.000000       -0.017532         2
        11        12        20        30     9        0.000000       -0.083980         3
        11        12        20        30     9      180.000000        0.007945         4
        11        12        20        31     9        0.000000       -0.015791         1
        11        12        20        31     9      180.000000       -0.017532         2
        11        12        20        31     9        0.000000       -0.083980         3
        11        12        20        31     9      180.000000        0.007945         4
        11        12        20        32     9        0.000000       -0.015791         1
        11        12        20        32     9      180.000000       -0.017532         2
        11        12        20        32     9        0.000000       -0.083980         3
        11        12        20        32     9      180.000000        0.007945         4
        12         7         8        21     9        0.000000        0.403892         1
        12         7         8        21     9      180.000000       21.043227         2
        12         7         8        21     9        0.000000        0.696430         3
        12         7         8        21     9      180.000000       -0.533628         4
        13        14        15        16     9        0.000000        0.077101         1
        13        14        15        16     9      180.000000       19.148824         2
        13        14        15        16     9        0.000000       -1.434236         3
        13        14        15        16     9      180.000000       -0.512551         4
        13        14        15        25     9        0.000000        0.088778         1
        13        14        15        25     9      180.000000       15.270420         2
        13        14        15        25     9        0.000000       -0.737612         3
        13        14        15        25     9      180.000000        0.040357         4
        13        18        17        16     9        0.000000        0.021289         1
        13        18        17        16     9      180.000000       17.524949         2
        13        18        17        16     9        0.000000       -1.016697         3
        13        18        17        16     9      180.000000       -0.495072         4
        13        18        17        26     9        0.000000        0.193134         1
        13        18        17        26     9      180.000000       13.298729         2
        13        18        17        26     9        0.000000       -0.519591         3
        13        18        17        26     9      180.000000        0.094943         4
        14        13        18        17     9        0.000000       -0.022982         1
        14        13        18        17     9      180.000000       17.315830         2
        14        13        18        17     9        0.000000       -1.089811         3
        14        13        18        17     9      180.000000       -0.315262         4
        14        13        18        27     9        0.000000        0.579510         1
        14        13        18        27     9      180.000000       23.389179         2
        14        13        18        27     9        0.000000        0.545547         3
        14        13        18        27     9      180.000000       -0.677009         4
        14        15        16        17     9        0.000000       -0.016319         1
        14        15        16        17     9      180.000000       18.655634         2
        14        15        16        17     9        0.000000       -1.354854         3
        14        15        16        17     9      180.000000       -0.471312         4
        15        14        13        18     9        0.000000       -0.074034         1
        15        14        13        18     9      180.000000       18.820977         2
        15        14        13        18     9        0.000000       -1.571558         3
        15        14        13        18     9      180.000000       -0.409999         4
        15        14        13        24     9        0.000000        0.102668         1
        15        14        13        24     9      180.000000       13.731370         2
        15        14        13        24     9        0.000000       -0.669534         3
        15        14        13        24     9      180.000000        0.172923         4
        15        16        17        18     9        0.000000       -0.214140         1
        15        16        17        18     9      180.000000       19.039186         2
        15        16        17        18     9        0.000000       -1.524313         3
        15        16        17        18     9      180.000000       -0.443098         4
        15        16        17        26     9        0.000000        0.050966         1
        15        16        17        26     9      180.000000       14.272765         2
        15        16        17        26     9        0.000000       -0.470872         3
        15        16        17        26     9      180.000000        0.020021         4
        16        15        14        36     9        0.000000       -0.043595         1
        16        15        14        36     9      180.000000       15.091677         2
        16        15        14        36     9        0.000000       -0.580550         3
        16        15        14        36     9      180.000000       -0.009604         4
        16        17        18        27     9        0.000000        0.354590         1
        16        17        18        27     9      180.000000       23.144500         2
        16        17        18        27     9        0.000000        0.667518         3
        16        17        18        27     9      180.000000       -0.983834         4
        17        16        15        25     9        0.000000        0.054090         1
        17        16        15        25     9      180.000000       14.326496         2
        17        16        15        25     9        0.000000       -0.547008         3
        17        16        15        25     9      180.000000        0.040482         4
        17        18        13        24     9        0.000000        0.069853         1
        17        18        13        24     9      180.000000       12.690234         2
        17        18        13        24     9        0.000000       -0.444265         3
        17        18        13        24     9      180.000000        0.148766         4
        18        13        14        36     9        0.000000        0.076330         1
        18        13        14        36     9      180.000000       14.852143         2
        18        13        14        36     9        0.000000       -0.630293         3
        18        13        14        36     9      180.000000        0.079342         4
        20        12        11        23     9        0.000000       -0.155731         1
        20        12        11        23     9      180.000000       12.546436         2
        20        12        11        23     9        0.000000       -0.437565         3
        20        12        11        23     9      180.000000        0.160463         4
        21         8         9        22     9        0.000000       -0.155731         1
        21         8         9        22     9      180.000000       12.546436         2
        21         8         9        22     9        0.000000       -0.437565         3
        21         8         9        22     9      180.000000        0.160463         4
        24        13        14        36     9        0.000000       -0.108787         1
        24        13        14        36     9      180.000000       11.338529         2
        24        13        14        36     9        0.000000       -0.586146         3
        24        13        14        36     9      180.000000        0.208962         4
        24        13        18        27     9        0.000000        0.265103         1
        24        13        18        27     9      180.000000       15.920438         2
        24        13        18        27     9        0.000000        0.279847         3
        24        13        18        27     9      180.000000        0.143417         4
        25        15        14        36     9        0.000000       -0.181785         1
        25        15        14        36     9      180.000000       12.198597         2
        25        15        14        36     9        0.000000       -0.717814         3
        25        15        14        36     9      180.000000        0.291029         4
        26        17        18        27     9        0.000000        0.396528         1
        26        17        18        27     9      180.000000       16.848996         2
        26        17        18        27     9        0.000000        0.334024         3
        26        17        18        27     9      180.000000       -0.040141         4

[ dihedrals ] ; impropers
;       ai        aj        ak        al funct           phase               k        pn
         3         2         4        10     4      180.000000        0.854241         2
         3         4        10         2     4      180.000000        0.854241         2
         3        10         2         4     4      180.000000        0.854241         2
         4         3         5        16     4      180.000000       10.437992         2
         4         5        16         3     4      180.000000       10.437992         2
         4        16         3         5     4      180.000000       10.437992         2
         6         1         5        19     4      180.000000        5.578667         2
         6         5        19         1     4      180.000000        5.578667         2
         6        19         1         5     4      180.000000        5.578667         2
         8         7         9        21     4      180.000000       13.168224         2
         8         9        21         7     4      180.000000       13.168224         2
         8        21         7         9     4      180.000000       13.168224         2
         9         8        10        22     4      180.000000        0.260104         2
         9        10        22         8     4      180.000000        0.260104         2
         9        22         8        10     4      180.000000        0.260104         2
        11        10        12        23     4      180.000000        0.260104         2
        11        12        23        10     4      180.000000        0.260104         2
        11        23        10        12     4      180.000000        0.260104         2
        12         7        11        20     4      180.000000       13.168224         2
        12        11        20         7     4      180.000000       13.168224         2
        12        20         7        11     4      180.000000       13.168224         2
        14        13        15        36     4      180.000000        7.125919         2
        14        15        36        13     4      180.000000        7.125919         2
        14        36        13        15     4      180.000000        7.125919         2
        15        14        16        25     4      180.000000        0.287408         2
        15        16        25        14     4      180.000000        0.287408         2
        15        25        14        16     4      180.000000        0.287408         2
        17        16        18        26     4      180.000000        0.392495         2
        17        18        26        16     4      180.000000        0.392495         2
        17        26        16        18     4      180.000000        0.392495         2
        18        13        17        27     4      180.000000        1.513952         2
        18        17        27        13     4      180.000000        1.513952         2
        18        27        13        17     4      180.000000        1.513952         2

[ pairs ]
;       ai        aj funct
         1         4     1
         1        10     1
         1        28     1
         1        29     1
         2         5     1
         2         9     1
         2        11     1
         2        16     1
         2        19     1
         3         6     1
         3         8     1
         3        12     1
         3        15     1
         3        17     1
         3        22     1
         3        23     1
         4         9     1
         4        11     1
         4        14     1
         4        18     1
         4        19     1
         4        25     1
         4        26     1
         5        10     1
         5        15     1
         5        17     1
         5        28     1
         5        29     1
         6        16     1
         7        10     1
         7        22     1
         7        23     1
         7        30     1
         7        31     1
         7        32     1
         7        33     1
         7        34     1
         7        35     1
         8        11     1
         8        20     1
         9        12     1
         9        23     1
         9        33     1
         9        34     1
         9        35     1
        10        16     1
        10        20     1
        10        21     1
        11        22     1
        11        30     1
        11        31     1
        11        32     1
        12        21     1
        13        16     1
        13        25     1
        13        26     1
        14        17     1
        14        27     1
        15        18     1
        15        24     1
        15        26     1
        16        27     1
        16        36     1
        17        24     1
        17        25     1
        18        36     1
        20        23     1
        21        22     1
        24        27     1
        24        36     1
        25        36     1
        26        27     1
