; ITP file created by ByteFF-ML, 2025-12-06 04:37:43.542514

[ atomtypes ]
;name           bonded.type        at.num        mass        charge   ptype           sigma         epsilon
 n0bf                                   7      0.0000       0.00000       A     3.38432e-01     3.91971e-01
 n1bf                                   7      0.0000       0.00000       A     3.38091e-01     3.88523e-01
 c2bf                                   6      0.0000       0.00000       A     3.31565e-01     4.11724e-01
 c3bf                                   6      0.0000       0.00000       A     3.31222e-01     4.13851e-01
 n4bf                                   7      0.0000       0.00000       A     3.38445e-01     3.92580e-01
 c5bf                                   6      0.0000       0.00000       A     3.31386e-01     4.16721e-01
 n6bf                                   7      0.0000       0.00000       A     3.38275e-01     3.94176e-01
 c7bf                                   6      0.0000       0.00000       A     3.31508e-01     4.13296e-01
 c8bf                                   6      0.0000       0.00000       A     3.31487e-01     4.12933e-01
 c9bf                                   6      0.0000       0.00000       A     3.31342e-01     4.14014e-01
 c10bf                                  6      0.0000       0.00000       A     3.31323e-01     4.14266e-01
 c11bf                                  6      0.0000       0.00000       A     3.31642e-01     4.15182e-01
 c12bf                                  6      0.0000       0.00000       A     3.31494e-01     4.13000e-01
 c13bf                                  6      0.0000       0.00000       A     3.31488e-01     4.13045e-01
 c14bf                                  6      0.0000       0.00000       A     3.31446e-01     4.13138e-01
 c15bf                                  6      0.0000       0.00000       A     3.31460e-01     4.14367e-01
 c16bf                                  6      0.0000       0.00000       A     3.31446e-01     4.13138e-01
 c17bf                                  6      0.0000       0.00000       A     3.31488e-01     4.13045e-01
 n18bf                                  7      0.0000       0.00000       A     3.36783e-01     4.69230e-01
 c19bf                                  6      0.0000       0.00000       A     3.39605e-01     4.50682e-01
 c20bf                                  6      0.0000       0.00000       A     3.39852e-01     4.50845e-01
 h21bf                                  1      0.0000       0.00000       A     2.62585e-01     6.77292e-02
 h22bf                                  1      0.0000       0.00000       A     2.62532e-01     6.75137e-02
 h23bf                                  1      0.0000       0.00000       A     2.62457e-01     6.73477e-02
 h24bf                                  1      0.0000       0.00000       A     2.62467e-01     6.73573e-02
 h25bf                                  1      0.0000       0.00000       A     2.62488e-01     6.75042e-02
 h26bf                                  1      0.0000       0.00000       A     2.62488e-01     6.75042e-02
 h27bf                                  1      0.0000       0.00000       A     2.62467e-01     6.73573e-02
 h28bf                                  1      0.0000       0.00000       A     1.10093e-01     4.19894e-02
 h29bf                                  1      0.0000       0.00000       A     1.10093e-01     4.19894e-02
 f30bf                                  9      0.0000       0.00000       A     3.03419e-01     3.46760e-01
 f31bf                                  9      0.0000       0.00000       A     3.03419e-01     3.46760e-01
 f32bf                                  9      0.0000       0.00000       A     3.03419e-01     3.46760e-01
 h33bf                                  1      0.0000       0.00000       A     2.59989e-01     8.71151e-02
 h34bf                                  1      0.0000       0.00000       A     2.59989e-01     8.71151e-02
 h35bf                                  1      0.0000       0.00000       A     2.59989e-01     8.71151e-02

[ moleculetype ]
;name             nrexcl
 4kD                   3

[ atoms ]
;       nr            type      resi   res      atom      cgnr      charge          mass ; qtot
         1            n0bf         1   UNL        n0         1    -0.15275       14.0070 ; qtot   -0.153
         2            n1bf         1   UNL        n1         2    -0.24193       14.0070 ; qtot   -0.395
         3            c2bf         1   UNL        c2         3     0.25930       12.0110 ; qtot   -0.135
         4            c3bf         1   UNL        c3         4     0.20647       12.0110 ; qtot    0.071
         5            n4bf         1   UNL        n4         5    -0.22989       14.0070 ; qtot   -0.159
         6            c5bf         1   UNL        c5         6     0.30797       12.0110 ; qtot    0.149
         7            n6bf         1   UNL        n6         7    -0.63159       14.0070 ; qtot   -0.482
         8            c7bf         1   UNL        c7         8     0.36037       12.0110 ; qtot   -0.122
         9            c8bf         1   UNL        c8         9    -0.12065       12.0110 ; qtot   -0.243
        10            c9bf         1   UNL        c9        10    -0.10118       12.0110 ; qtot   -0.344
        11           c10bf         1   UNL       c10        11    -0.06483       12.0110 ; qtot   -0.409
        12           c11bf         1   UNL       c11        12     0.25129       12.0110 ; qtot   -0.157
        13           c12bf         1   UNL       c12        13    -0.09693       12.0110 ; qtot   -0.254
        14           c13bf         1   UNL       c13        14    -0.11911       12.0110 ; qtot   -0.373
        15           c14bf         1   UNL       c14        15    -0.07492       12.0110 ; qtot   -0.448
        16           c15bf         1   UNL       c15        16    -0.16632       12.0110 ; qtot   -0.615
        17           c16bf         1   UNL       c16        17    -0.07492       12.0110 ; qtot   -0.690
        18           c17bf         1   UNL       c17        18    -0.11911       12.0110 ; qtot   -0.809
        19           n18bf         1   UNL       n18        19    -1.02351       14.0070 ; qtot   -1.832
        20           c19bf         1   UNL       c19        20     0.25012       12.0110 ; qtot   -1.582
        21           c20bf         1   UNL       c20        21    -0.14293       12.0110 ; qtot   -1.725
        22           h21bf         1   UNL       h21        22     0.13452        1.0080 ; qtot   -1.591
        23           h22bf         1   UNL       h22        23     0.15603        1.0080 ; qtot   -1.434
        24           h23bf         1   UNL       h23        24     0.11588        1.0080 ; qtot   -1.319
        25           h24bf         1   UNL       h24        25     0.11665        1.0080 ; qtot   -1.202
        26           h25bf         1   UNL       h25        26     0.12492        1.0080 ; qtot   -1.077
        27           h26bf         1   UNL       h26        27     0.12492        1.0080 ; qtot   -0.952
        28           h27bf         1   UNL       h27        28     0.11665        1.0080 ; qtot   -0.835
        29           h28bf         1   UNL       h28        29     0.48059        1.0080 ; qtot   -0.355
        30           h29bf         1   UNL       h29        30     0.48059        1.0080 ; qtot    0.126
        31           f30bf         1   UNL       f30        31    -0.09580       18.9980 ; qtot    0.030
        32           f31bf         1   UNL       f31        32    -0.09580       18.9980 ; qtot   -0.066
        33           f32bf         1   UNL       f32        33    -0.09580       18.9980 ; qtot   -0.162
        34           h33bf         1   UNL       h33        34     0.05389        1.0080 ; qtot   -0.108
        35           h34bf         1   UNL       h34        35     0.05389        1.0080 ; qtot   -0.054
        36           h35bf         1   UNL       h35        36     0.05392        1.0080 ; qtot    0.000

[ bonds ]
;       ai        aj funct               r               k
         1         2     1        0.132260   299729.308105
         1         6     1        0.134751   240973.654541
         2         3     1        0.134161   275696.717529
         3         4     1        0.142528   215369.816699
         3        10     1        0.148538   208575.809204
         4         5     1        0.133549   327112.418506
         4        16     1        0.148484   207154.171094
         5         6     1        0.134351   271645.025293
         6        19     1        0.136992   327257.367139
         7         8     1        0.134400   299465.152246
         7        12     1        0.133345   311686.191309
         8         9     1        0.140287   277365.542090
         8        21     1        0.150728   207401.166016
         9        10     1        0.139945   295980.485986
         9        22     1        0.108469   322669.548828
        10        11     1        0.140079   295370.736426
        11        12     1        0.139369   294875.086670
        11        23     1        0.108359   327589.375098
        12        20     1        0.152059   187140.534180
        13        14     1        0.139955   305315.678467
        13        18     1        0.139955   305315.704004
        13        24     1        0.108618   320581.583691
        14        15     1        0.139631   313333.717920
        14        25     1        0.108630   319489.335986
        15        16     1        0.140491   285820.981152
        15        26     1        0.108482   322437.442041
        16        17     1        0.140491   285820.981152
        17        18     1        0.139631   313333.717920
        17        27     1        0.108482   322437.442041
        18        28     1        0.108630   319489.335986
        19        29     1        0.101097   429488.110742
        19        30     1        0.101097   429488.110742
        20        31     1        0.135405   232006.221973
        20        32     1        0.135405   232006.221973
        20        33     1        0.135405   232006.221973
        21        34     1        0.109372   304019.925537
        21        35     1        0.109372   304019.925537
        21        36     1        0.109372   304019.925537

[ angles ]
;       ai        aj        ak funct           theta             cth
         1         2         3     1      120.972328      826.589881
         1         6         5     1      125.882187      669.346853
         1         6        19     1      116.729599      637.422275
         2         1         6     1      117.699364      924.749677
         2         3         4     1      119.642014      765.563531
         2         3        10     1      114.926735      527.961669
         3         4         5     1      119.161575      770.118138
         3         4        16     1      124.811691      441.411936
         3        10         9     1      120.980606      474.465128
         3        10        11     1      120.881226      470.177607
         4         3        10     1      125.164597      445.311517
         4         5         6     1      116.549789      994.194718
         4        16        15     1      120.363159      499.700133
         4        16        17     1      120.363159      499.700133
         5         4        16     1      116.020462      482.430152
         5         6        19     1      116.922890      592.907965
         6        19        29     1      115.911415      477.678845
         6        19        30     1      115.911415      477.678845
         7         8         9     1      121.673988      735.356961
         7         8        21     1      116.605606      455.027174
         7        12        11     1      124.633766      691.713594
         7        12        20     1      115.269592      394.146035
         8         7        12     1      118.097092      664.140156
         8         9        10     1      119.806763      768.833941
         8         9        22     1      119.894753      399.050724
         8        21        34     1      110.650269      489.336152
         8        21        35     1      110.650269      489.336152
         8        21        36     1      110.650269      489.336152
         9         8        21     1      121.469650      444.977810
         9        10        11     1      117.979996      769.656427
        10         9        22     1      120.356873      397.347814
        10        11        12     1      117.797325      735.975789
        10        11        23     1      121.163109      392.969923
        11        12        20     1      120.022095      476.127338
        12        11        23     1      120.850952      402.740198
        12        20        31     1      111.439842      587.936081
        12        20        32     1      111.439842      587.936081
        12        20        33     1      111.439842      587.936081
        13        14        15     1      120.211388      725.285891
        13        14        25     1      120.091293      443.432943
        13        18        17     1      120.211388      725.285891
        13        18        28     1      120.091293      443.432943
        14        13        18     1      119.615746      659.890781
        14        13        24     1      120.215599      428.617717
        14        15        16     1      120.435951      701.577558
        14        15        26     1      119.975220      414.450271
        15        14        25     1      119.671829      431.194603
        15        16        17     1      119.073425      716.183763
        16        15        26     1      119.531372      388.633498
        16        17        18     1      120.435951      701.577558
        16        17        27     1      119.531372      388.633498
        17        18        28     1      119.671829      431.194603
        18        13        24     1      120.215599      428.617717
        18        17        27     1      119.975220      414.450239
        29        19        30     1      117.818871      318.801156
        31        20        32     1      107.187485      701.112272
        31        20        33     1      107.187485      701.112272
        32        20        33     1      107.187485      701.112272
        34        21        35     1      108.254662      359.304767
        34        21        36     1      108.254662      359.304767
        35        21        36     1      108.254662      359.304799

[ dihedrals ] ; propers for gromacs 4.5 or higher, use funct 9
;       ai        aj        ak        al funct           phase               k        pn
         1         2         3         4     9        0.000000        0.796067         1
         1         2         3         4     9      180.000000       22.570595         2
         1         2         3         4     9        0.000000        1.231704         3
         1         2         3         4     9      180.000000       -0.878803         4
         1         2         3        10     9        0.000000        0.730206         1
         1         2         3        10     9      180.000000       25.827752         2
         1         2         3        10     9        0.000000        2.345290         3
         1         2         3        10     9      180.000000       -1.499172         4
         1         6         5         4     9        0.000000        0.617944         1
         1         6         5         4     9      180.000000        9.528009         2
         1         6         5         4     9        0.000000        0.428162         3
         1         6         5         4     9      180.000000       -0.490773         4
         1         6        19        29     9        0.000000        2.084886         1
         1         6        19        29     9      180.000000        7.869700         2
         1         6        19        29     9        0.000000       -0.285384         3
         1         6        19        29     9      180.000000       -0.670789         4
         1         6        19        30     9        0.000000        2.084886         1
         1         6        19        30     9      180.000000        7.869700         2
         1         6        19        30     9        0.000000       -0.285384         3
         1         6        19        30     9      180.000000       -0.670789         4
         2         1         6         5     9        0.000000        0.996669         1
         2         1         6         5     9      180.000000        9.806670         2
         2         1         6         5     9        0.000000        1.154760         3
         2         1         6         5     9      180.000000       -0.713160         4
         2         1         6        19     9        0.000000        1.188860         1
         2         1         6        19     9      180.000000       18.423536         2
         2         1         6        19     9        0.000000        0.534243         3
         2         1         6        19     9      180.000000       -1.308435         4
         2         3         4         5     9        0.000000        1.836536         1
         2         3         4         5     9      180.000000        2.900170         2
         2         3         4         5     9        0.000000        0.515221         3
         2         3         4         5     9      180.000000       -0.429306         4
         2         3         4        16     9        0.000000       -2.603525         1
         2         3         4        16     9      180.000000        2.341313         2
         2         3         4        16     9        0.000000       -0.129222         3
         2         3         4        16     9      180.000000       -0.802480         4
         2         3        10         9     9        0.000000       -0.074031         1
         2         3        10         9     9      180.000000        3.469211         2
         2         3        10         9     9        0.000000        0.092923         3
         2         3        10         9     9      180.000000       -0.071337         4
         2         3        10        11     9        0.000000        0.160565         1
         2         3        10        11     9      180.000000        3.569231         2
         2         3        10        11     9        0.000000        0.043367         3
         2         3        10        11     9      180.000000       -0.045688         4
         3         2         1         6     9        0.000000       -0.002146         1
         3         2         1         6     9      180.000000       21.987950         2
         3         2         1         6     9        0.000000        0.490858         3
         3         2         1         6     9      180.000000       -0.653083         4
         3         4         5         6     9        0.000000       -0.427724         1
         3         4         5         6     9      180.000000       18.518508         2
         3         4         5         6     9        0.000000       -0.970484         3
         3         4         5         6     9      180.000000       -0.271006         4
         3         4        16        15     9        0.000000        0.012117         1
         3         4        16        15     9      180.000000        3.108871         2
         3         4        16        15     9        0.000000        0.228019         3
         3         4        16        15     9      180.000000       -0.244152         4
         3         4        16        17     9        0.000000        0.012117         1
         3         4        16        17     9      180.000000        3.108871         2
         3         4        16        17     9        0.000000        0.228019         3
         3         4        16        17     9      180.000000       -0.244152         4
         3        10         9         8     9        0.000000        0.150255         1
         3        10         9         8     9      180.000000       16.132425         2
         3        10         9         8     9        0.000000       -0.056689         3
         3        10         9         8     9      180.000000       -0.534654         4
         3        10         9        22     9        0.000000       -0.100331         1
         3        10         9        22     9      180.000000       12.849980         2
         3        10         9        22     9        0.000000       -0.275726         3
         3        10         9        22     9      180.000000        0.135334         4
         3        10        11        12     9        0.000000        0.203749         1
         3        10        11        12     9      180.000000       15.881643         2
         3        10        11        12     9        0.000000       -0.209137         3
         3        10        11        12     9      180.000000       -0.478735         4
         3        10        11        23     9        0.000000       -0.223398         1
         3        10        11        23     9      180.000000       12.547765         2
         3        10        11        23     9        0.000000       -0.352795         3
         3        10        11        23     9      180.000000        0.110004         4
         4         3        10         9     9        0.000000       -0.080295         1
         4         3        10         9     9      180.000000        2.261516         2
         4         3        10         9     9        0.000000        0.175398         3
         4         3        10         9     9      180.000000       -0.178173         4
         4         3        10        11     9        0.000000        0.008207         1
         4         3        10        11     9      180.000000        2.340942         2
         4         3        10        11     9        0.000000        0.118730         3
         4         3        10        11     9      180.000000       -0.165910         4
         4         5         6        19     9        0.000000        0.844283         1
         4         5         6        19     9      180.000000       18.398514         2
         4         5         6        19     9        0.000000        0.300675         3
         4         5         6        19     9      180.000000       -1.336364         4
         4        16        15        14     9        0.000000        0.080921         1
         4        16        15        14     9      180.000000       15.488456         2
         4        16        15        14     9        0.000000       -0.333854         3
         4        16        15        14     9      180.000000       -0.328331         4
         4        16        15        26     9        0.000000       -0.146915         1
         4        16        15        26     9      180.000000       12.770795         2
         4        16        15        26     9        0.000000       -0.317068         3
         4        16        15        26     9      180.000000        0.120986         4
         4        16        17        18     9        0.000000        0.080921         1
         4        16        17        18     9      180.000000       15.488456         2
         4        16        17        18     9        0.000000       -0.333854         3
         4        16        17        18     9      180.000000       -0.328331         4
         4        16        17        27     9        0.000000       -0.146915         1
         4        16        17        27     9      180.000000       12.770795         2
         4        16        17        27     9        0.000000       -0.317068         3
         4        16        17        27     9      180.000000        0.120986         4
         5         4         3        10     9        0.000000       -1.517617         1
         5         4         3        10     9      180.000000        5.312326         2
         5         4         3        10     9        0.000000       -0.166558         3
         5         4         3        10     9      180.000000       -0.785058         4
         5         4        16        15     9        0.000000       -0.010757         1
         5         4        16        15     9      180.000000        4.627989         2
         5         4        16        15     9        0.000000       -0.004937         3
         5         4        16        15     9      180.000000        0.186679         4
         5         4        16        17     9        0.000000       -0.010757         1
         5         4        16        17     9      180.000000        4.627989         2
         5         4        16        17     9        0.000000       -0.004937         3
         5         4        16        17     9      180.000000        0.186679         4
         5         6        19        29     9        0.000000        1.716704         1
         5         6        19        29     9      180.000000        8.533549         2
         5         6        19        29     9        0.000000       -0.306059         3
         5         6        19        29     9      180.000000       -0.822715         4
         5         6        19        30     9        0.000000        1.716704         1
         5         6        19        30     9      180.000000        8.533549         2
         5         6        19        30     9        0.000000       -0.306059         3
         5         6        19        30     9      180.000000       -0.822715         4
         6         5         4        16     9        0.000000        0.243669         1
         6         5         4        16     9      180.000000       20.408581         2
         6         5         4        16     9        0.000000       -0.004642         3
         6         5         4        16     9      180.000000       -0.903313         4
         7         8         9        10     9        0.000000        0.027742         1
         7         8         9        10     9      180.000000       17.343588         2
         7         8         9        10     9        0.000000       -0.567218         3
         7         8         9        10     9      180.000000       -0.683694         4
         7         8         9        22     9        0.000000       -0.150894         1
         7         8         9        22     9      180.000000       13.840094         2
         7         8         9        22     9        0.000000       -0.229804         3
         7         8         9        22     9      180.000000       -0.203776         4
         7         8        21        34     9        0.000000       -0.022712         1
         7         8        21        34     9      180.000000       -0.008600         2
         7         8        21        34     9        0.000000        0.095872         3
         7         8        21        34     9      180.000000        0.008681         4
         7         8        21        35     9        0.000000       -0.022712         1
         7         8        21        35     9      180.000000       -0.008600         2
         7         8        21        35     9        0.000000        0.095872         3
         7         8        21        35     9      180.000000        0.008681         4
         7         8        21        36     9        0.000000       -0.022712         1
         7         8        21        36     9      180.000000       -0.008600         2
         7         8        21        36     9        0.000000        0.095872         3
         7         8        21        36     9      180.000000        0.008681         4
         7        12        11        10     9        0.000000       -0.076336         1
         7        12        11        10     9      180.000000       17.325273         2
         7        12        11        10     9        0.000000       -0.898839         3
         7        12        11        10     9      180.000000       -0.656688         4
         7        12        11        23     9        0.000000        0.188342         1
         7        12        11        23     9      180.000000       12.431146         2
         7        12        11        23     9        0.000000       -0.251246         3
         7        12        11        23     9      180.000000       -0.120534         4
         7        12        20        31     9        0.000000        0.119608         1
         7        12        20        31     9      180.000000        0.213202         2
         7        12        20        31     9        0.000000        0.561665         3
         7        12        20        31     9      180.000000       -0.048139         4
         7        12        20        32     9        0.000000        0.119608         1
         7        12        20        32     9      180.000000        0.213202         2
         7        12        20        32     9        0.000000        0.561665         3
         7        12        20        32     9      180.000000       -0.048139         4
         7        12        20        33     9        0.000000        0.119608         1
         7        12        20        33     9      180.000000        0.213202         2
         7        12        20        33     9        0.000000        0.561665         3
         7        12        20        33     9      180.000000       -0.048139         4
         8         7        12        11     9        0.000000       -0.160909         1
         8         7        12        11     9      180.000000       22.270071         2
         8         7        12        11     9        0.000000       -0.892708         3
         8         7        12        11     9      180.000000        0.164405         4
         8         7        12        20     9        0.000000        1.558339         1
         8         7        12        20     9      180.000000       20.918875         2
         8         7        12        20     9        0.000000        1.335259         3
         8         7        12        20     9      180.000000       -0.629324         4
         8         9        10        11     9        0.000000       -0.228865         1
         8         9        10        11     9      180.000000       18.844098         2
         8         9        10        11     9        0.000000       -1.633640         3
         8         9        10        11     9      180.000000       -0.521883         4
         9         8         7        12     9        0.000000        0.211667         1
         9         8         7        12     9      180.000000       21.907520         2
         9         8         7        12     9        0.000000       -0.233909         3
         9         8         7        12     9      180.000000       -0.161989         4
         9         8        21        34     9        0.000000       -0.010088         1
         9         8        21        34     9      180.000000       -0.014199         2
         9         8        21        34     9        0.000000       -0.079569         3
         9         8        21        34     9      180.000000        0.009155         4
         9         8        21        35     9        0.000000       -0.010088         1
         9         8        21        35     9      180.000000       -0.014199         2
         9         8        21        35     9        0.000000       -0.079569         3
         9         8        21        35     9      180.000000        0.009155         4
         9         8        21        36     9        0.000000       -0.010088         1
         9         8        21        36     9      180.000000       -0.014199         2
         9         8        21        36     9        0.000000       -0.079569         3
         9         8        21        36     9      180.000000        0.009155         4
         9        10        11        12     9        0.000000       -0.145837         1
         9        10        11        12     9      180.000000       18.814126         2
         9        10        11        12     9        0.000000       -1.672532         3
         9        10        11        12     9      180.000000       -0.576405         4
         9        10        11        23     9        0.000000        0.013488         1
         9        10        11        23     9      180.000000       14.230634         2
         9        10        11        23     9        0.000000       -0.553770         3
         9        10        11        23     9      180.000000       -0.013347         4
        10         3         4        16     9        0.000000        1.111181         1
        10         3         4        16     9      180.000000        6.177283         2
        10         3         4        16     9        0.000000        0.326063         3
        10         3         4        16     9      180.000000       -0.693254         4
        10         9         8        21     9        0.000000        0.214548         1
        10         9         8        21     9      180.000000       14.889335         2
        10         9         8        21     9        0.000000       -0.057089         3
        10         9         8        21     9      180.000000       -0.224248         4
        10        11        12        20     9        0.000000        0.424497         1
        10        11        12        20     9      180.000000       14.423002         2
        10        11        12        20     9        0.000000        0.320169         3
        10        11        12        20     9      180.000000       -0.368604         4
        11        10         9        22     9        0.000000       -0.088451         1
        11        10         9        22     9      180.000000       14.564212         2
        11        10         9        22     9        0.000000       -0.551767         3
        11        10         9        22     9      180.000000        0.023231         4
        11        12        20        31     9        0.000000       -0.189648         1
        11        12        20        31     9      180.000000        0.105406         2
        11        12        20        31     9        0.000000       -0.180694         3
        11        12        20        31     9      180.000000        0.005644         4
        11        12        20        32     9        0.000000       -0.189648         1
        11        12        20        32     9      180.000000        0.105406         2
        11        12        20        32     9        0.000000       -0.180694         3
        11        12        20        32     9      180.000000        0.005644         4
        11        12        20        33     9        0.000000       -0.189648         1
        11        12        20        33     9      180.000000        0.105406         2
        11        12        20        33     9        0.000000       -0.180694         3
        11        12        20        33     9      180.000000        0.005644         4
        12         7         8        21     9        0.000000        0.252354         1
        12         7         8        21     9      180.000000       23.038068         2
        12         7         8        21     9        0.000000        0.735117         3
        12         7         8        21     9      180.000000       -0.704416         4
        13        14        15        16     9        0.000000        0.045085         1
        13        14        15        16     9      180.000000       19.128221         2
        13        14        15        16     9        0.000000       -1.471931         3
        13        14        15        16     9      180.000000       -0.521708         4
        13        14        15        26     9        0.000000        0.064860         1
        13        14        15        26     9      180.000000       15.029547         2
        13        14        15        26     9        0.000000       -0.687676         3
        13        14        15        26     9      180.000000        0.070746         4
        13        18        17        16     9        0.000000        0.045085         1
        13        18        17        16     9      180.000000       19.128221         2
        13        18        17        16     9        0.000000       -1.471931         3
        13        18        17        16     9      180.000000       -0.521708         4
        13        18        17        27     9        0.000000        0.064860         1
        13        18        17        27     9      180.000000       15.029547         2
        13        18        17        27     9        0.000000       -0.687676         3
        13        18        17        27     9      180.000000        0.070746         4
        14        13        18        17     9        0.000000       -0.012905         1
        14        13        18        17     9      180.000000       18.557273         2
        14        13        18        17     9        0.000000       -1.563999         3
        14        13        18        17     9      180.000000       -0.362525         4
        14        13        18        28     9        0.000000       -0.012177         1
        14        13        18        28     9      180.000000       14.387129         2
        14        13        18        28     9        0.000000       -0.717057         3
        14        13        18        28     9      180.000000        0.168766         4
        14        15        16        17     9        0.000000       -0.050872         1
        14        15        16        17     9      180.000000       18.634536         2
        14        15        16        17     9        0.000000       -1.319344         3
        14        15        16        17     9      180.000000       -0.454743         4
        15        14        13        18     9        0.000000       -0.012905         1
        15        14        13        18     9      180.000000       18.557273         2
        15        14        13        18     9        0.000000       -1.563999         3
        15        14        13        18     9      180.000000       -0.362525         4
        15        14        13        24     9        0.000000        0.054760         1
        15        14        13        24     9      180.000000       13.766277         2
        15        14        13        24     9        0.000000       -0.709421         3
        15        14        13        24     9      180.000000        0.167938         4
        15        16        17        18     9        0.000000       -0.050872         1
        15        16        17        18     9      180.000000       18.634536         2
        15        16        17        18     9        0.000000       -1.319344         3
        15        16        17        18     9      180.000000       -0.454743         4
        15        16        17        27     9        0.000000        0.068124         1
        15        16        17        27     9      180.000000       14.251024         2
        15        16        17        27     9        0.000000       -0.519434         3
        15        16        17        27     9      180.000000        0.018507         4
        16        15        14        25     9        0.000000       -0.025973         1
        16        15        14        25     9      180.000000       15.086199         2
        16        15        14        25     9        0.000000       -0.567660         3
        16        15        14        25     9      180.000000        0.001579         4
        16        17        18        28     9        0.000000       -0.025973         1
        16        17        18        28     9      180.000000       15.086197         2
        16        17        18        28     9        0.000000       -0.567660         3
        16        17        18        28     9      180.000000        0.001579         4
        17        16        15        26     9        0.000000        0.068124         1
        17        16        15        26     9      180.000000       14.251024         2
        17        16        15        26     9        0.000000       -0.519434         3
        17        16        15        26     9      180.000000        0.018507         4
        17        18        13        24     9        0.000000        0.054760         1
        17        18        13        24     9      180.000000       13.766277         2
        17        18        13        24     9        0.000000       -0.709421         3
        17        18        13        24     9      180.000000        0.167938         4
        18        13        14        25     9        0.000000       -0.012177         1
        18        13        14        25     9      180.000000       14.387129         2
        18        13        14        25     9        0.000000       -0.717057         3
        18        13        14        25     9      180.000000        0.168766         4
        20        12        11        23     9        0.000000        0.088138         1
        20        12        11        23     9      180.000000       11.930906         2
        20        12        11        23     9        0.000000       -0.181387         3
        20        12        11        23     9      180.000000        0.057784         4
        21         8         9        22     9        0.000000       -0.199502         1
        21         8         9        22     9      180.000000       12.558539         2
        21         8         9        22     9        0.000000       -0.472043         3
        21         8         9        22     9      180.000000        0.166041         4
        24        13        14        25     9        0.000000       -0.083985         1
        24        13        14        25     9      180.000000       11.297506         2
        24        13        14        25     9        0.000000       -0.541472         3
        24        13        14        25     9      180.000000        0.257965         4
        24        13        18        28     9        0.000000       -0.083985         1
        24        13        18        28     9      180.000000       11.297505         2
        24        13        18        28     9        0.000000       -0.541472         3
        24        13        18        28     9      180.000000        0.257966         4
        25        14        15        26     9        0.000000       -0.167083         1
        25        14        15        26     9      180.000000       12.251291         2
        25        14        15        26     9        0.000000       -0.693635         3
        25        14        15        26     9      180.000000        0.279541         4
        27        17        18        28     9        0.000000       -0.167082         1
        27        17        18        28     9      180.000000       12.251292         2
        27        17        18        28     9        0.000000       -0.693636         3
        27        17        18        28     9      180.000000        0.279541         4

[ dihedrals ] ; impropers
;       ai        aj        ak        al funct           phase               k        pn
         3         2         4        10     4      180.000000        0.430040         2
         3         4        10         2     4      180.000000        0.430040         2
         3        10         2         4     4      180.000000        0.430040         2
         4         3         5        16     4      180.000000       11.093877         2
         4         5        16         3     4      180.000000       11.093877         2
         4        16         3         5     4      180.000000       11.093877         2
         6         1         5        19     4      180.000000        5.578667         2
         6         5        19         1     4      180.000000        5.578667         2
         6        19         1         5     4      180.000000        5.578667         2
         8         7         9        21     4      180.000000       11.857839         2
         8         9        21         7     4      180.000000       11.857839         2
         8        21         7         9     4      180.000000       11.857839         2
         9         8        10        22     4      180.000000        0.747128         2
         9        10        22         8     4      180.000000        0.747128         2
         9        22         8        10     4      180.000000        0.747128         2
        14        13        15        25     4      180.000000        6.002969         2
        14        15        25        13     4      180.000000        6.002969         2
        14        25        13        15     4      180.000000        6.002969         2
        15        14        16        26     4      180.000000        0.979441         2
        15        16        26        14     4      180.000000        0.979441         2
        15        26        14        16     4      180.000000        0.979441         2
        17        16        18        27     4      180.000000        0.979442         2
        17        18        27        16     4      180.000000        0.979442         2
        17        27        16        18     4      180.000000        0.979442         2
        18        13        17        28     4      180.000000        6.002970         2
        18        17        28        13     4      180.000000        6.002970         2
        18        28        13        17     4      180.000000        6.002970         2

[ pairs ]
;       ai        aj funct
         1         4     1
         1        10     1
         1        29     1
         1        30     1
         2         5     1
         2         9     1
         2        11     1
         2        16     1
         2        19     1
         3         6     1
         3         8     1
         3        12     1
         3        15     1
         3        17     1
         3        22     1
         3        23     1
         4         9     1
         4        11     1
         4        14     1
         4        18     1
         4        19     1
         4        26     1
         4        27     1
         5        10     1
         5        15     1
         5        17     1
         5        29     1
         5        30     1
         6        16     1
         7        10     1
         7        22     1
         7        23     1
         7        31     1
         7        32     1
         7        33     1
         7        34     1
         7        35     1
         7        36     1
         8        11     1
         8        20     1
         9        12     1
         9        23     1
         9        34     1
         9        35     1
         9        36     1
        10        16     1
        10        20     1
        10        21     1
        11        22     1
        11        31     1
        11        32     1
        11        33     1
        12        21     1
        13        16     1
        13        26     1
        13        27     1
        14        17     1
        14        28     1
        15        18     1
        15        24     1
        15        27     1
        16        25     1
        16        28     1
        17        24     1
        17        26     1
        18        25     1
        20        23     1
        21        22     1
        24        25     1
        24        28     1
        25        26     1
        27        28     1
