; ITP file created by ByteFF-ML, 2025-12-06 04:38:05.135450

[ atomtypes ]
;name           bonded.type        at.num        mass        charge   ptype           sigma         epsilon
 n0bf                                   7      0.0000       0.00000       A     3.38432e-01     3.91971e-01
 n1bf                                   7      0.0000       0.00000       A     3.38091e-01     3.88523e-01
 c2bf                                   6      0.0000       0.00000       A     3.31511e-01     4.12739e-01
 c3bf                                   6      0.0000       0.00000       A     3.31222e-01     4.13851e-01
 n4bf                                   7      0.0000       0.00000       A     3.38445e-01     3.92580e-01
 c5bf                                   6      0.0000       0.00000       A     3.31386e-01     4.16721e-01
 n6bf                                   7      0.0000       0.00000       A     3.38405e-01     3.93149e-01
 c7bf                                   6      0.0000       0.00000       A     3.31498e-01     4.12653e-01
 c8bf                                   6      0.0000       0.00000       A     3.31346e-01     4.13358e-01
 c9bf                                   6      0.0000       0.00000       A     3.31342e-01     4.13084e-01
 c10bf                                  6      0.0000       0.00000       A     3.31455e-01     4.13115e-01
 c11bf                                  6      0.0000       0.00000       A     3.31443e-01     4.13457e-01
 c12bf                                  6      0.0000       0.00000       A     3.31494e-01     4.13000e-01
 c13bf                                  6      0.0000       0.00000       A     3.31488e-01     4.13045e-01
 c14bf                                  6      0.0000       0.00000       A     3.31446e-01     4.13138e-01
 c15bf                                  6      0.0000       0.00000       A     3.31460e-01     4.14367e-01
 c16bf                                  6      0.0000       0.00000       A     3.31446e-01     4.13136e-01
 c17bf                                  6      0.0000       0.00000       A     3.31488e-01     4.13045e-01
 n18bf                                  7      0.0000       0.00000       A     3.36783e-01     4.69230e-01
 h19bf                                  1      0.0000       0.00000       A     2.53540e-01     6.72105e-02
 h20bf                                  1      0.0000       0.00000       A     2.62533e-01     6.76047e-02
 h21bf                                  1      0.0000       0.00000       A     2.62340e-01     6.74834e-02
 cl22bf                                17      0.0000       0.00000       A     3.46751e-01     1.10672e+00
 h23bf                                  1      0.0000       0.00000       A     2.62457e-01     6.73477e-02
 h24bf                                  1      0.0000       0.00000       A     2.62467e-01     6.73573e-02
 h25bf                                  1      0.0000       0.00000       A     2.62488e-01     6.75042e-02
 h26bf                                  1      0.0000       0.00000       A     2.62488e-01     6.75042e-02
 h27bf                                  1      0.0000       0.00000       A     2.62467e-01     6.73573e-02
 h28bf                                  1      0.0000       0.00000       A     1.10093e-01     4.19894e-02
 h29bf                                  1      0.0000       0.00000       A     1.10093e-01     4.19894e-02

[ moleculetype ]
;name             nrexcl
 4m_U                  3

[ atoms ]
;       nr            type      resi   res      atom      cgnr      charge          mass ; qtot
         1            n0bf         1   UNL        n0         1    -0.15275       14.0070 ; qtot   -0.153
         2            n1bf         1   UNL        n1         2    -0.23902       14.0070 ; qtot   -0.392
         3            c2bf         1   UNL        c2         3     0.25552       12.0110 ; qtot   -0.136
         4            c3bf         1   UNL        c3         4     0.21092       12.0110 ; qtot    0.075
         5            n4bf         1   UNL        n4         5    -0.22989       14.0070 ; qtot   -0.155
         6            c5bf         1   UNL        c5         6     0.30797       12.0110 ; qtot    0.153
         7            n6bf         1   UNL        n6         7    -0.64655       14.0070 ; qtot   -0.494
         8            c7bf         1   UNL        c7         8     0.34552       12.0110 ; qtot   -0.148
         9            c8bf         1   UNL        c8         9    -0.13048       12.0110 ; qtot   -0.279
        10            c9bf         1   UNL        c9        10    -0.09275       12.0110 ; qtot   -0.372
        11           c10bf         1   UNL       c10        11    -0.11685       12.0110 ; qtot   -0.488
        12           c11bf         1   UNL       c11        12     0.44409       12.0110 ; qtot   -0.044
        13           c12bf         1   UNL       c12        13    -0.09693       12.0110 ; qtot   -0.141
        14           c13bf         1   UNL       c13        14    -0.11911       12.0110 ; qtot   -0.260
        15           c14bf         1   UNL       c14        15    -0.07492       12.0110 ; qtot   -0.335
        16           c15bf         1   UNL       c15        16    -0.16632       12.0110 ; qtot   -0.502
        17           c16bf         1   UNL       c16        17    -0.07492       12.0110 ; qtot   -0.576
        18           c17bf         1   UNL       c17        18    -0.11911       12.0110 ; qtot   -0.696
        19           n18bf         1   UNL       n18        19    -1.02351       14.0070 ; qtot   -1.719
        20           h19bf         1   UNL       h19        20     0.03197        1.0080 ; qtot   -1.687
        21           h20bf         1   UNL       h20        21     0.13930        1.0080 ; qtot   -1.548
        22           h21bf         1   UNL       h21        22     0.15259        1.0080 ; qtot   -1.395
        23          cl22bf         1   UNL      cl22        23    -0.16499       35.4530 ; qtot   -1.560
        24           h23bf         1   UNL       h23        24     0.11588        1.0080 ; qtot   -1.444
        25           h24bf         1   UNL       h24        25     0.11665        1.0080 ; qtot   -1.328
        26           h25bf         1   UNL       h25        26     0.12492        1.0080 ; qtot   -1.203
        27           h26bf         1   UNL       h26        27     0.12492        1.0080 ; qtot   -1.078
        28           h27bf         1   UNL       h27        28     0.11665        1.0080 ; qtot   -0.961
        29           h28bf         1   UNL       h28        29     0.48059        1.0080 ; qtot   -0.481
        30           h29bf         1   UNL       h29        30     0.48061        1.0080 ; qtot    0.000

[ bonds ]
;       ai        aj funct               r               k
         1         2     1        0.132260   299729.308105
         1         6     1        0.134751   240973.654541
         2         3     1        0.134216   274380.739209
         3         4     1        0.142465   217387.963379
         3        10     1        0.148492   209133.769507
         4         5     1        0.133549   327112.418506
         4        16     1        0.148484   207154.171094
         5         6     1        0.134351   271645.025293
         6        19     1        0.136992   327257.367139
         7         8     1        0.134276   312493.598096
         7        12     1        0.132183   313266.836230
         8         9     1        0.139419   303276.387061
         8        20     1        0.108783   316657.500391
         9        10     1        0.140171   293159.707959
         9        21     1        0.108418   325780.249658
        10        11     1        0.139900   297993.831689
        11        12     1        0.139884   282493.138281
        11        22     1        0.108301   329507.007715
        12        23     1        0.175991   130264.233105
        13        14     1        0.139955   305315.704004
        13        18     1        0.139955   305315.704004
        13        24     1        0.108618   320581.609229
        14        15     1        0.139631   313333.717920
        14        25     1        0.108630   319489.335986
        15        16     1        0.140491   285820.981152
        15        26     1        0.108482   322437.442041
        16        17     1        0.140491   285820.981152
        17        18     1        0.139631   313333.717920
        17        27     1        0.108482   322437.442041
        18        28     1        0.108630   319489.335986
        19        29     1        0.101097   429488.110742
        19        30     1        0.101097   429488.110742

[ angles ]
;       ai        aj        ak funct           theta             cth
         1         2         3     1      120.973412      820.355825
         1         6         5     1      125.882187      669.346853
         1         6        19     1      116.729599      637.422275
         2         1         6     1      117.699364      924.749677
         2         3         4     1      119.757187      759.869586
         2         3        10     1      114.836243      525.000992
         3         4         5     1      119.079491      764.703122
         3         4        16     1      124.875145      442.074528
         3        10         9     1      121.173218      492.336156
         3        10        11     1      120.649048      479.562207
         4         3        10     1      125.104698      445.789763
         4         5         6     1      116.549789      994.194718
         4        16        15     1      120.363159      499.700133
         4        16        17     1      120.363159      499.700133
         5         4        16     1      116.020462      482.430152
         5         6        19     1      116.922890      592.907965
         6        19        29     1      115.911415      477.678845
         6        19        30     1      115.911415      477.678845
         7         8         9     1      123.635170      725.795931
         7         8        20     1      115.847511      353.405694
         7        12        11     1      124.961563      691.637877
         7        12        23     1      116.635109      475.448306
         8         7        12     1      116.727600      548.452135
         8         9        10     1      118.607262      772.822263
         8         9        21     1      120.294983      437.069063
         9         8        20     1      120.354324      403.625952
         9        10        11     1      118.112694      774.351042
        10         9        21     1      120.928055      398.299390
        10        11        12     1      117.633057      712.104210
        10        11        22     1      121.561256      384.798144
        11        12        23     1      118.473976      335.627206
        12        11        22     1      120.738754      407.579767
        13        14        15     1      120.211388      725.285891
        13        14        25     1      120.091293      443.432943
        13        18        17     1      120.211388      725.285955
        13        18        28     1      120.091293      443.432943
        14        13        18     1      119.615746      659.890781
        14        13        24     1      120.215599      428.617717
        14        15        16     1      120.435951      701.577558
        14        15        26     1      119.975220      414.450271
        15        14        25     1      119.671829      431.194603
        15        16        17     1      119.073425      716.183763
        16        15        26     1      119.531387      388.633435
        16        17        18     1      120.435951      701.577558
        16        17        27     1      119.531372      388.633435
        17        18        28     1      119.671829      431.194603
        18        13        24     1      120.215599      428.617717
        18        17        27     1      119.975220      414.450271
        29        19        30     1      117.818871      318.801187

[ dihedrals ] ; propers for gromacs 4.5 or higher, use funct 9
;       ai        aj        ak        al funct           phase               k        pn
         1         2         3         4     9        0.000000        0.741687         1
         1         2         3         4     9      180.000000       23.013432         2
         1         2         3         4     9        0.000000        1.211286         3
         1         2         3         4     9      180.000000       -0.881927         4
         1         2         3        10     9        0.000000        0.658788         1
         1         2         3        10     9      180.000000       26.524087         2
         1         2         3        10     9        0.000000        2.335334         3
         1         2         3        10     9      180.000000       -1.438151         4
         1         6         5         4     9        0.000000        0.617944         1
         1         6         5         4     9      180.000000        9.528009         2
         1         6         5         4     9        0.000000        0.428162         3
         1         6         5         4     9      180.000000       -0.490773         4
         1         6        19        29     9        0.000000        2.084886         1
         1         6        19        29     9      180.000000        7.869700         2
         1         6        19        29     9        0.000000       -0.285384         3
         1         6        19        29     9      180.000000       -0.670789         4
         1         6        19        30     9        0.000000        2.084886         1
         1         6        19        30     9      180.000000        7.869700         2
         1         6        19        30     9        0.000000       -0.285384         3
         1         6        19        30     9      180.000000       -0.670789         4
         2         1         6         5     9        0.000000        0.996669         1
         2         1         6         5     9      180.000000        9.806670         2
         2         1         6         5     9        0.000000        1.154760         3
         2         1         6         5     9      180.000000       -0.713160         4
         2         1         6        19     9        0.000000        1.188860         1
         2         1         6        19     9      180.000000       18.423536         2
         2         1         6        19     9        0.000000        0.534243         3
         2         1         6        19     9      180.000000       -1.308435         4
         2         3         4         5     9        0.000000        1.772692         1
         2         3         4         5     9      180.000000        2.947404         2
         2         3         4         5     9        0.000000        0.473800         3
         2         3         4         5     9      180.000000       -0.415085         4
         2         3         4        16     9        0.000000       -2.651299         1
         2         3         4        16     9      180.000000        2.379399         2
         2         3         4        16     9        0.000000       -0.111253         3
         2         3         4        16     9      180.000000       -0.848999         4
         2         3        10         9     9        0.000000        0.199254         1
         2         3        10         9     9      180.000000        3.457437         2
         2         3        10         9     9        0.000000        0.121953         3
         2         3        10         9     9      180.000000       -0.069787         4
         2         3        10        11     9        0.000000        0.239556         1
         2         3        10        11     9      180.000000        3.535929         2
         2         3        10        11     9        0.000000        0.101328         3
         2         3        10        11     9      180.000000       -0.076232         4
         3         2         1         6     9        0.000000       -0.174405         1
         3         2         1         6     9      180.000000       22.038114         2
         3         2         1         6     9        0.000000        0.534313         3
         3         2         1         6     9      180.000000       -0.688940         4
         3         4         5         6     9        0.000000       -0.454825         1
         3         4         5         6     9      180.000000       18.552419         2
         3         4         5         6     9        0.000000       -0.930391         3
         3         4         5         6     9      180.000000       -0.273870         4
         3         4        16        15     9        0.000000        0.016989         1
         3         4        16        15     9      180.000000        3.212974         2
         3         4        16        15     9        0.000000        0.214833         3
         3         4        16        15     9      180.000000       -0.232999         4
         3         4        16        17     9        0.000000        0.016989         1
         3         4        16        17     9      180.000000        3.212974         2
         3         4        16        17     9        0.000000        0.214833         3
         3         4        16        17     9      180.000000       -0.233000         4
         3        10         9         8     9        0.000000        0.258041         1
         3        10         9         8     9      180.000000       15.786950         2
         3        10         9         8     9        0.000000       -0.101654         3
         3        10         9         8     9      180.000000       -0.432426         4
         3        10         9        21     9        0.000000       -0.060567         1
         3        10         9        21     9      180.000000       13.099582         2
         3        10         9        21     9        0.000000       -0.225689         3
         3        10         9        21     9      180.000000        0.141025         4
         3        10        11        12     9        0.000000        0.245414         1
         3        10        11        12     9      180.000000       16.187218         2
         3        10        11        12     9        0.000000       -0.140621         3
         3        10        11        12     9      180.000000       -0.491762         4
         3        10        11        22     9        0.000000       -0.083800         1
         3        10        11        22     9      180.000000       13.301082         2
         3        10        11        22     9        0.000000       -0.281308         3
         3        10        11        22     9      180.000000        0.132981         4
         4         3        10         9     9        0.000000        0.051684         1
         4         3        10         9     9      180.000000        2.223173         2
         4         3        10         9     9        0.000000        0.154615         3
         4         3        10         9     9      180.000000       -0.174871         4
         4         3        10        11     9        0.000000        0.092083         1
         4         3        10        11     9      180.000000        2.229805         2
         4         3        10        11     9        0.000000        0.090423         3
         4         3        10        11     9      180.000000       -0.169814         4
         4         5         6        19     9        0.000000        0.844283         1
         4         5         6        19     9      180.000000       18.398514         2
         4         5         6        19     9        0.000000        0.300675         3
         4         5         6        19     9      180.000000       -1.336364         4
         4        16        15        14     9        0.000000        0.080921         1
         4        16        15        14     9      180.000000       15.488456         2
         4        16        15        14     9        0.000000       -0.333854         3
         4        16        15        14     9      180.000000       -0.328331         4
         4        16        15        26     9        0.000000       -0.146914         1
         4        16        15        26     9      180.000000       12.770795         2
         4        16        15        26     9        0.000000       -0.317069         3
         4        16        15        26     9      180.000000        0.120985         4
         4        16        17        18     9        0.000000        0.080922         1
         4        16        17        18     9      180.000000       15.488454         2
         4        16        17        18     9        0.000000       -0.333854         3
         4        16        17        18     9      180.000000       -0.328331         4
         4        16        17        27     9        0.000000       -0.146915         1
         4        16        17        27     9      180.000000       12.770795         2
         4        16        17        27     9        0.000000       -0.317069         3
         4        16        17        27     9      180.000000        0.120986         4
         5         4         3        10     9        0.000000       -1.485587         1
         5         4         3        10     9      180.000000        5.728059         2
         5         4         3        10     9        0.000000       -0.134810         3
         5         4         3        10     9      180.000000       -0.830217         4
         5         4        16        15     9        0.000000       -0.010757         1
         5         4        16        15     9      180.000000        4.627989         2
         5         4        16        15     9        0.000000       -0.004937         3
         5         4        16        15     9      180.000000        0.186679         4
         5         4        16        17     9        0.000000       -0.010757         1
         5         4        16        17     9      180.000000        4.627990         2
         5         4        16        17     9        0.000000       -0.004937         3
         5         4        16        17     9      180.000000        0.186679         4
         5         6        19        29     9        0.000000        1.716704         1
         5         6        19        29     9      180.000000        8.533549         2
         5         6        19        29     9        0.000000       -0.306059         3
         5         6        19        29     9      180.000000       -0.822715         4
         5         6        19        30     9        0.000000        1.716704         1
         5         6        19        30     9      180.000000        8.533549         2
         5         6        19        30     9        0.000000       -0.306059         3
         5         6        19        30     9      180.000000       -0.822715         4
         6         5         4        16     9        0.000000        0.243669         1
         6         5         4        16     9      180.000000       20.408581         2
         6         5         4        16     9        0.000000       -0.004642         3
         6         5         4        16     9      180.000000       -0.903313         4
         7         8         9        10     9        0.000000        0.009749         1
         7         8         9        10     9      180.000000       19.302039         2
         7         8         9        10     9        0.000000       -1.036545         3
         7         8         9        10     9      180.000000       -0.737169         4
         7         8         9        21     9        0.000000       -0.002721         1
         7         8         9        21     9      180.000000       15.236323         2
         7         8         9        21     9        0.000000       -0.344195         3
         7         8         9        21     9      180.000000       -0.133800         4
         7        12        11        10     9        0.000000        0.054523         1
         7        12        11        10     9      180.000000       15.493673         2
         7        12        11        10     9        0.000000       -0.310573         3
         7        12        11        10     9      180.000000       -0.543491         4
         7        12        11        22     9        0.000000       -0.018431         1
         7        12        11        22     9      180.000000       12.151693         2
         7        12        11        22     9        0.000000       -0.243073         3
         7        12        11        22     9      180.000000       -0.103248         4
         8         7        12        11     9        0.000000        0.268970         1
         8         7        12        11     9      180.000000       21.752857         2
         8         7        12        11     9        0.000000       -0.165316         3
         8         7        12        11     9      180.000000        0.012220         4
         8         7        12        23     9        0.000000        1.078085         1
         8         7        12        23     9      180.000000       28.702111         2
         8         7        12        23     9        0.000000        0.888963         3
         8         7        12        23     9      180.000000       -0.893531         4
         8         9        10        11     9        0.000000       -0.104713         1
         8         9        10        11     9      180.000000       18.404250         2
         8         9        10        11     9        0.000000       -1.541025         3
         8         9        10        11     9      180.000000       -0.543345         4
         9         8         7        12     9        0.000000        0.121974         1
         9         8         7        12     9      180.000000       21.339643         2
         9         8         7        12     9        0.000000       -1.062702         3
         9         8         7        12     9      180.000000       -0.175775         4
         9        10        11        12     9        0.000000       -0.399864         1
         9        10        11        12     9      180.000000       18.705542         2
         9        10        11        12     9        0.000000       -1.654374         3
         9        10        11        12     9      180.000000       -0.505130         4
         9        10        11        22     9        0.000000       -0.022378         1
         9        10        11        22     9      180.000000       14.394362         2
         9        10        11        22     9        0.000000       -0.520883         3
         9        10        11        22     9      180.000000        0.089452         4
        10         3         4        16     9        0.000000        0.958389         1
        10         3         4        16     9      180.000000        6.502959         2
        10         3         4        16     9        0.000000        0.333769         3
        10         3         4        16     9      180.000000       -0.711405         4
        10         9         8        20     9        0.000000       -0.055033         1
        10         9         8        20     9      180.000000       15.131484         2
        10         9         8        20     9        0.000000       -0.466790         3
        10         9         8        20     9      180.000000       -0.016520         4
        10        11        12        23     9        0.000000        0.337075         1
        10        11        12        23     9      180.000000       16.944654         2
        10        11        12        23     9        0.000000        0.366672         3
        10        11        12        23     9      180.000000       -0.595212         4
        11        10         9        21     9        0.000000       -0.024945         1
        11        10         9        21     9      180.000000       14.188636         2
        11        10         9        21     9        0.000000       -0.532713         3
        11        10         9        21     9      180.000000        0.050625         4
        12         7         8        20     9        0.000000        0.679297         1
        12         7         8        20     9      180.000000       19.922505         2
        12         7         8        20     9        0.000000        0.322831         3
        12         7         8        20     9      180.000000       -0.398946         4
        13        14        15        16     9        0.000000        0.045085         1
        13        14        15        16     9      180.000000       19.128221         2
        13        14        15        16     9        0.000000       -1.471931         3
        13        14        15        16     9      180.000000       -0.521708         4
        13        14        15        26     9        0.000000        0.064860         1
        13        14        15        26     9      180.000000       15.029547         2
        13        14        15        26     9        0.000000       -0.687677         3
        13        14        15        26     9      180.000000        0.070746         4
        13        18        17        16     9        0.000000        0.045085         1
        13        18        17        16     9      180.000000       19.128223         2
        13        18        17        16     9        0.000000       -1.471931         3
        13        18        17        16     9      180.000000       -0.521708         4
        13        18        17        27     9        0.000000        0.064861         1
        13        18        17        27     9      180.000000       15.029547         2
        13        18        17        27     9        0.000000       -0.687677         3
        13        18        17        27     9      180.000000        0.070746         4
        14        13        18        17     9        0.000000       -0.012905         1
        14        13        18        17     9      180.000000       18.557273         2
        14        13        18        17     9        0.000000       -1.563998         3
        14        13        18        17     9      180.000000       -0.362525         4
        14        13        18        28     9        0.000000       -0.012176         1
        14        13        18        28     9      180.000000       14.387129         2
        14        13        18        28     9        0.000000       -0.717057         3
        14        13        18        28     9      180.000000        0.168766         4
        14        15        16        17     9        0.000000       -0.050872         1
        14        15        16        17     9      180.000000       18.634540         2
        14        15        16        17     9        0.000000       -1.319344         3
        14        15        16        17     9      180.000000       -0.454742         4
        15        14        13        18     9        0.000000       -0.012906         1
        15        14        13        18     9      180.000000       18.557273         2
        15        14        13        18     9        0.000000       -1.563998         3
        15        14        13        18     9      180.000000       -0.362525         4
        15        14        13        24     9        0.000000        0.054760         1
        15        14        13        24     9      180.000000       13.766277         2
        15        14        13        24     9        0.000000       -0.709420         3
        15        14        13        24     9      180.000000        0.167938         4
        15        16        17        18     9        0.000000       -0.050872         1
        15        16        17        18     9      180.000000       18.634536         2
        15        16        17        18     9        0.000000       -1.319343         3
        15        16        17        18     9      180.000000       -0.454743         4
        15        16        17        27     9        0.000000        0.068123         1
        15        16        17        27     9      180.000000       14.251022         2
        15        16        17        27     9        0.000000       -0.519433         3
        15        16        17        27     9      180.000000        0.018507         4
        16        15        14        25     9        0.000000       -0.025973         1
        16        15        14        25     9      180.000000       15.086197         2
        16        15        14        25     9        0.000000       -0.567660         3
        16        15        14        25     9      180.000000        0.001579         4
        16        17        18        28     9        0.000000       -0.025974         1
        16        17        18        28     9      180.000000       15.086199         2
        16        17        18        28     9        0.000000       -0.567659         3
        16        17        18        28     9      180.000000        0.001579         4
        17        16        15        26     9        0.000000        0.068124         1
        17        16        15        26     9      180.000000       14.251021         2
        17        16        15        26     9        0.000000       -0.519433         3
        17        16        15        26     9      180.000000        0.018507         4
        17        18        13        24     9        0.000000        0.054761         1
        17        18        13        24     9      180.000000       13.766276         2
        17        18        13        24     9        0.000000       -0.709421         3
        17        18        13        24     9      180.000000        0.167938         4
        18        13        14        25     9        0.000000       -0.012177         1
        18        13        14        25     9      180.000000       14.387129         2
        18        13        14        25     9        0.000000       -0.717056         3
        18        13        14        25     9      180.000000        0.168766         4
        20         8         9        21     9        0.000000       -0.204723         1
        20         8         9        21     9      180.000000       12.302477         2
        20         8         9        21     9        0.000000       -0.715976         3
        20         8         9        21     9      180.000000        0.317920         4
        22        11        12        23     9        0.000000        0.119110         1
        22        11        12        23     9      180.000000       12.983492         2
        22        11        12        23     9        0.000000       -0.166542         3
        22        11        12        23     9      180.000000        0.095519         4
        24        13        14        25     9        0.000000       -0.083984         1
        24        13        14        25     9      180.000000       11.297505         2
        24        13        14        25     9        0.000000       -0.541472         3
        24        13        14        25     9      180.000000        0.257966         4
        24        13        18        28     9        0.000000       -0.083985         1
        24        13        18        28     9      180.000000       11.297506         2
        24        13        18        28     9        0.000000       -0.541472         3
        24        13        18        28     9      180.000000        0.257966         4
        25        14        15        26     9        0.000000       -0.167082         1
        25        14        15        26     9      180.000000       12.251294         2
        25        14        15        26     9        0.000000       -0.693636         3
        25        14        15        26     9      180.000000        0.279540         4
        27        17        18        28     9        0.000000       -0.167082         1
        27        17        18        28     9      180.000000       12.251293         2
        27        17        18        28     9        0.000000       -0.693636         3
        27        17        18        28     9      180.000000        0.279540         4

[ dihedrals ] ; impropers
;       ai        aj        ak        al funct           phase               k        pn
         4         3         5        16     4      180.000000       10.853317         2
         4         5        16         3     4      180.000000       10.853317         2
         4        16         3         5     4      180.000000       10.853317         2
         6         1         5        19     4      180.000000        5.578667         2
         6         5        19         1     4      180.000000        5.578667         2
         6        19         1         5     4      180.000000        5.578667         2
         8         7         9        20     4      180.000000        9.624960         2
         8         9        20         7     4      180.000000        9.624960         2
         8        20         7         9     4      180.000000        9.624960         2
        11        10        12        22     4      180.000000        0.415575         2
        11        12        22        10     4      180.000000        0.415575         2
        11        22        10        12     4      180.000000        0.415575         2
        12         7        11        23     4      180.000000        9.963473         2
        12        11        23         7     4      180.000000        9.963473         2
        12        23         7        11     4      180.000000        9.963473         2
        14        13        15        25     4      180.000000        6.002970         2
        14        15        25        13     4      180.000000        6.002970         2
        14        25        13        15     4      180.000000        6.002970         2
        15        14        16        26     4      180.000000        0.979441         2
        15        16        26        14     4      180.000000        0.979441         2
        15        26        14        16     4      180.000000        0.979441         2
        17        16        18        27     4      180.000000        0.979441         2
        17        18        27        16     4      180.000000        0.979441         2
        17        27        16        18     4      180.000000        0.979441         2
        18        13        17        28     4      180.000000        6.002969         2
        18        17        28        13     4      180.000000        6.002969         2
        18        28        13        17     4      180.000000        6.002969         2

[ pairs ]
;       ai        aj funct
         1         4     1
         1        10     1
         1        29     1
         1        30     1
         2         5     1
         2         9     1
         2        11     1
         2        16     1
         2        19     1
         3         6     1
         3         8     1
         3        12     1
         3        15     1
         3        17     1
         3        21     1
         3        22     1
         4         9     1
         4        11     1
         4        14     1
         4        18     1
         4        19     1
         4        26     1
         4        27     1
         5        10     1
         5        15     1
         5        17     1
         5        29     1
         5        30     1
         6        16     1
         7        10     1
         7        21     1
         7        22     1
         8        11     1
         8        23     1
         9        12     1
         9        22     1
        10        16     1
        10        20     1
        10        23     1
        11        21     1
        12        20     1
        13        16     1
        13        26     1
        13        27     1
        14        17     1
        14        28     1
        15        18     1
        15        24     1
        15        27     1
        16        25     1
        16        28     1
        17        24     1
        17        26     1
        18        25     1
        20        21     1
        22        23     1
        24        25     1
        24        28     1
        25        26     1
        27        28     1
