; ITP file created by ByteFF-ML, 2025-12-06 04:36:50.642479

[ atomtypes ]
;name           bonded.type        at.num        mass        charge   ptype           sigma         epsilon
 n0bf                                   7      0.0000       0.00000       A     3.38432e-01     3.91971e-01
 n1bf                                   7      0.0000       0.00000       A     3.38091e-01     3.88523e-01
 c2bf                                   6      0.0000       0.00000       A     3.31539e-01     4.10423e-01
 c3bf                                   6      0.0000       0.00000       A     3.31222e-01     4.13851e-01
 n4bf                                   7      0.0000       0.00000       A     3.38445e-01     3.92580e-01
 c5bf                                   6      0.0000       0.00000       A     3.31386e-01     4.16721e-01
 c6bf                                   6      0.0000       0.00000       A     3.31489e-01     4.11313e-01
 c7bf                                   6      0.0000       0.00000       A     3.31579e-01     4.12945e-01
 c8bf                                   6      0.0000       0.00000       A     3.31498e-01     4.12311e-01
 c9bf                                   6      0.0000       0.00000       A     3.31567e-01     4.17398e-01
 c10bf                                  6      0.0000       0.00000       A     3.31498e-01     4.12311e-01
 c11bf                                  6      0.0000       0.00000       A     3.31579e-01     4.12945e-01
 c12bf                                  6      0.0000       0.00000       A     3.31494e-01     4.13000e-01
 c13bf                                  6      0.0000       0.00000       A     3.31488e-01     4.13045e-01
 c14bf                                  6      0.0000       0.00000       A     3.31446e-01     4.13138e-01
 c15bf                                  6      0.0000       0.00000       A     3.31460e-01     4.14367e-01
 c16bf                                  6      0.0000       0.00000       A     3.31446e-01     4.13136e-01
 c17bf                                  6      0.0000       0.00000       A     3.31488e-01     4.13045e-01
 n18bf                                  7      0.0000       0.00000       A     3.36783e-01     4.69230e-01
 o19bf                                  8      0.0000       0.00000       A     3.24473e-01     3.89637e-01
 h20bf                                  1      0.0000       0.00000       A     2.62385e-01     6.75824e-02
 h21bf                                  1      0.0000       0.00000       A     2.62497e-01     6.75281e-02
 h22bf                                  1      0.0000       0.00000       A     2.62497e-01     6.75281e-02
 h23bf                                  1      0.0000       0.00000       A     2.62385e-01     6.75824e-02
 h24bf                                  1      0.0000       0.00000       A     2.62457e-01     6.73477e-02
 h25bf                                  1      0.0000       0.00000       A     2.62467e-01     6.73573e-02
 h26bf                                  1      0.0000       0.00000       A     2.62488e-01     6.75042e-02
 h27bf                                  1      0.0000       0.00000       A     2.62488e-01     6.75042e-02
 h28bf                                  1      0.0000       0.00000       A     2.62467e-01     6.73573e-02
 h29bf                                  1      0.0000       0.00000       A     1.10093e-01     4.19894e-02
 h30bf                                  1      0.0000       0.00000       A     1.10093e-01     4.19894e-02
 h31bf                                  1      0.0000       0.00000       A     5.35921e-02     2.01009e-02

[ moleculetype ]
;name             nrexcl
 4o                    3

[ atoms ]
;       nr            type      resi   res      atom      cgnr      charge          mass ; qtot
         1            n0bf         1   UNL        n0         1    -0.15275       14.0070 ; qtot   -0.153
         2            n1bf         1   UNL        n1         2    -0.24734       14.0070 ; qtot   -0.400
         3            c2bf         1   UNL        c2         3     0.27606       12.0110 ; qtot   -0.124
         4            c3bf         1   UNL        c3         4     0.20079       12.0110 ; qtot    0.077
         5            n4bf         1   UNL        n4         5    -0.22989       14.0070 ; qtot   -0.153
         6            c5bf         1   UNL        c5         6     0.30797       12.0110 ; qtot    0.155
         7            c6bf         1   UNL        c6         7     0.14275       12.0110 ; qtot    0.298
         8            c7bf         1   UNL        c7         8    -0.18188       12.0110 ; qtot    0.116
         9            c8bf         1   UNL        c8         9    -0.03592       12.0110 ; qtot    0.080
        10            c9bf         1   UNL        c9        10    -0.18577       12.0110 ; qtot   -0.106
        11           c10bf         1   UNL       c10        11    -0.03592       12.0110 ; qtot   -0.142
        12           c11bf         1   UNL       c11        12    -0.18188       12.0110 ; qtot   -0.324
        13           c12bf         1   UNL       c12        13    -0.09693       12.0110 ; qtot   -0.421
        14           c13bf         1   UNL       c13        14    -0.11911       12.0110 ; qtot   -0.540
        15           c14bf         1   UNL       c14        15    -0.07492       12.0110 ; qtot   -0.615
        16           c15bf         1   UNL       c15        16    -0.16632       12.0110 ; qtot   -0.781
        17           c16bf         1   UNL       c16        17    -0.07492       12.0110 ; qtot   -0.856
        18           c17bf         1   UNL       c17        18    -0.11911       12.0110 ; qtot   -0.975
        19           n18bf         1   UNL       n18        19    -1.02351       14.0070 ; qtot   -1.999
        20           o19bf         1   UNL       o19        20    -0.53447       15.9990 ; qtot   -2.533
        21           h20bf         1   UNL       h20        21     0.12543        1.0080 ; qtot   -2.408
        22           h21bf         1   UNL       h21        22     0.12984        1.0080 ; qtot   -2.278
        23           h22bf         1   UNL       h22        23     0.12984        1.0080 ; qtot   -2.148
        24           h23bf         1   UNL       h23        24     0.12543        1.0080 ; qtot   -2.023
        25           h24bf         1   UNL       h24        25     0.11588        1.0080 ; qtot   -1.907
        26           h25bf         1   UNL       h25        26     0.11665        1.0080 ; qtot   -1.790
        27           h26bf         1   UNL       h26        27     0.12492        1.0080 ; qtot   -1.665
        28           h27bf         1   UNL       h27        28     0.12492        1.0080 ; qtot   -1.540
        29           h28bf         1   UNL       h28        29     0.11665        1.0080 ; qtot   -1.424
        30           h29bf         1   UNL       h29        30     0.48059        1.0080 ; qtot   -0.943
        31           h30bf         1   UNL       h30        31     0.48059        1.0080 ; qtot   -0.462
        32           h31bf         1   UNL       h31        32     0.46233        1.0080 ; qtot    0.000

[ bonds ]
;       ai        aj funct               r               k
         1         2     1        0.132260   299729.308105
         1         6     1        0.134751   240973.654541
         2         3     1        0.134177   275575.186426
         3         4     1        0.142626   212886.409424
         3        10     1        0.148364   208654.935937
         4         5     1        0.133549   327112.418506
         4        16     1        0.148484   207154.171094
         5         6     1        0.134351   271645.025293
         6        19     1        0.136992   327257.367139
         7         8     1        0.140156   289289.942090
         7        12     1        0.140156   289289.942090
         7        20     1        0.137131   286567.507471
         8         9     1        0.139305   327555.870410
         8        21     1        0.108623   319023.385889
         9        10     1        0.140512   285652.155322
         9        22     1        0.108497   322530.626953
        10        11     1        0.140512   285652.155322
        11        12     1        0.139305   327555.870410
        11        23     1        0.108497   322530.626953
        12        24     1        0.108623   319023.385889
        13        14     1        0.139955   305315.704004
        13        18     1        0.139955   305315.704004
        13        25     1        0.108618   320581.609229
        14        15     1        0.139631   313333.717920
        14        26     1        0.108630   319489.335986
        15        16     1        0.140491   285820.981152
        15        27     1        0.108482   322437.442041
        16        17     1        0.140491   285820.981152
        17        18     1        0.139631   313333.717920
        17        28     1        0.108482   322437.442041
        18        29     1        0.108630   319489.335986
        19        30     1        0.101097   429488.110742
        19        31     1        0.101097   429488.110742
        20        32     1        0.097010   469639.545996

[ angles ]
;       ai        aj        ak funct           theta             cth
         1         2         3     1      121.028946      830.791310
         1         6         5     1      125.882187      669.346853
         1         6        19     1      116.729599      637.422275
         2         1         6     1      117.699364      924.749677
         2         3         4     1      119.420547      767.729908
         2         3        10     1      115.237549      528.820993
         3         4         5     1      119.279663      775.071125
         3         4        16     1      124.775368      439.470254
         3        10         9     1      120.833084      502.727461
         3        10        11     1      120.833084      502.727461
         4         3        10     1      125.160263      439.786723
         4         5         6     1      116.549789      994.194718
         4        16        15     1      120.363159      499.700133
         4        16        17     1      120.363159      499.700133
         5         4        16     1      116.020462      482.430152
         5         6        19     1      116.922890      592.907965
         6        19        30     1      115.911415      477.678845
         6        19        31     1      115.911415      477.678845
         7         8         9     1      119.736282      754.420988
         7         8        21     1      119.600510      451.856071
         7        12        11     1      119.736282      754.420988
         7        12        24     1      119.600510      451.856071
         7        20        32     1      109.322998      610.542552
         8         7        12     1      119.865112      556.109948
         8         7        20     1      119.931686      615.953801
         8         9        10     1      121.017212      669.546617
         8         9        22     1      119.364639      402.847453
         9         8        21     1      120.575439      428.712587
         9        10        11     1      118.472534      687.339790
        10         9        22     1      119.574417      388.842679
        10        11        12     1      121.017212      669.546617
        10        11        23     1      119.574417      388.842679
        11        12        24     1      120.575439      428.712587
        12         7        20     1      119.931686      615.953801
        12        11        23     1      119.364639      402.847453
        13        14        15     1      120.211388      725.285891
        13        14        26     1      120.091293      443.432943
        13        18        17     1      120.211388      725.285955
        13        18        29     1      120.091293      443.432943
        14        13        18     1      119.615746      659.890781
        14        13        25     1      120.215599      428.617717
        14        15        16     1      120.435951      701.577558
        14        15        27     1      119.975220      414.450271
        15        14        26     1      119.671829      431.194603
        15        16        17     1      119.073425      716.183763
        16        15        27     1      119.531387      388.633435
        16        17        18     1      120.435951      701.577558
        16        17        28     1      119.531372      388.633435
        17        18        29     1      119.671829      431.194603
        18        13        25     1      120.215599      428.617717
        18        17        28     1      119.975220      414.450271
        30        19        31     1      117.818871      318.801156

[ dihedrals ] ; propers for gromacs 4.5 or higher, use funct 9
;       ai        aj        ak        al funct           phase               k        pn
         1         2         3         4     9        0.000000        1.091609         1
         1         2         3         4     9      180.000000       22.531615         2
         1         2         3         4     9        0.000000        1.330124         3
         1         2         3         4     9      180.000000       -0.931324         4
         1         2         3        10     9        0.000000        0.774340         1
         1         2         3        10     9      180.000000       24.699730         2
         1         2         3        10     9        0.000000        2.180047         3
         1         2         3        10     9      180.000000       -1.476933         4
         1         6         5         4     9        0.000000        0.617944         1
         1         6         5         4     9      180.000000        9.528009         2
         1         6         5         4     9        0.000000        0.428162         3
         1         6         5         4     9      180.000000       -0.490773         4
         1         6        19        30     9        0.000000        2.084886         1
         1         6        19        30     9      180.000000        7.869700         2
         1         6        19        30     9        0.000000       -0.285384         3
         1         6        19        30     9      180.000000       -0.670789         4
         1         6        19        31     9        0.000000        2.084886         1
         1         6        19        31     9      180.000000        7.869700         2
         1         6        19        31     9        0.000000       -0.285384         3
         1         6        19        31     9      180.000000       -0.670789         4
         2         1         6         5     9        0.000000        0.996669         1
         2         1         6         5     9      180.000000        9.806670         2
         2         1         6         5     9        0.000000        1.154760         3
         2         1         6         5     9      180.000000       -0.713160         4
         2         1         6        19     9        0.000000        1.188860         1
         2         1         6        19     9      180.000000       18.423536         2
         2         1         6        19     9        0.000000        0.534243         3
         2         1         6        19     9      180.000000       -1.308435         4
         2         3         4         5     9        0.000000        1.932579         1
         2         3         4         5     9      180.000000        2.877804         2
         2         3         4         5     9        0.000000        0.518817         3
         2         3         4         5     9      180.000000       -0.440565         4
         2         3         4        16     9        0.000000       -2.414566         1
         2         3         4        16     9      180.000000        2.301056         2
         2         3         4        16     9        0.000000       -0.156658         3
         2         3         4        16     9      180.000000       -0.776670         4
         2         3        10         9     9        0.000000       -0.002409         1
         2         3        10         9     9      180.000000        4.010382         2
         2         3        10         9     9        0.000000        0.076501         3
         2         3        10         9     9      180.000000       -0.003393         4
         2         3        10        11     9        0.000000       -0.002409         1
         2         3        10        11     9      180.000000        4.010382         2
         2         3        10        11     9        0.000000        0.076501         3
         2         3        10        11     9      180.000000       -0.003393         4
         3         2         1         6     9        0.000000        0.332419         1
         3         2         1         6     9      180.000000       21.821027         2
         3         2         1         6     9        0.000000        0.442126         3
         3         2         1         6     9      180.000000       -0.601342         4
         3         4         5         6     9        0.000000       -0.364314         1
         3         4         5         6     9      180.000000       18.428911         2
         3         4         5         6     9        0.000000       -1.021552         3
         3         4         5         6     9      180.000000       -0.267591         4
         3         4        16        15     9        0.000000       -0.001178         1
         3         4        16        15     9      180.000000        2.918049         2
         3         4        16        15     9        0.000000        0.236105         3
         3         4        16        15     9      180.000000       -0.257048         4
         3         4        16        17     9        0.000000       -0.001178         1
         3         4        16        17     9      180.000000        2.918049         2
         3         4        16        17     9        0.000000        0.236105         3
         3         4        16        17     9      180.000000       -0.257048         4
         3        10         9         8     9        0.000000       -0.003550         1
         3        10         9         8     9      180.000000       14.621061         2
         3        10         9         8     9        0.000000       -0.288859         3
         3        10         9         8     9      180.000000       -0.169778         4
         3        10         9        22     9        0.000000       -0.075359         1
         3        10         9        22     9      180.000000       12.355886         2
         3        10         9        22     9        0.000000       -0.265563         3
         3        10         9        22     9      180.000000        0.144439         4
         3        10        11        12     9        0.000000       -0.003550         1
         3        10        11        12     9      180.000000       14.621061         2
         3        10        11        12     9        0.000000       -0.288859         3
         3        10        11        12     9      180.000000       -0.169778         4
         3        10        11        23     9        0.000000       -0.075359         1
         3        10        11        23     9      180.000000       12.355886         2
         3        10        11        23     9        0.000000       -0.265563         3
         3        10        11        23     9      180.000000        0.144439         4
         4         3        10         9     9        0.000000       -0.117573         1
         4         3        10         9     9      180.000000        2.322294         2
         4         3        10         9     9        0.000000        0.174333         3
         4         3        10         9     9      180.000000       -0.248539         4
         4         3        10        11     9        0.000000       -0.117573         1
         4         3        10        11     9      180.000000        2.322294         2
         4         3        10        11     9        0.000000        0.174333         3
         4         3        10        11     9      180.000000       -0.248539         4
         4         5         6        19     9        0.000000        0.844283         1
         4         5         6        19     9      180.000000       18.398514         2
         4         5         6        19     9        0.000000        0.300675         3
         4         5         6        19     9      180.000000       -1.336364         4
         4        16        15        14     9        0.000000        0.080921         1
         4        16        15        14     9      180.000000       15.488456         2
         4        16        15        14     9        0.000000       -0.333854         3
         4        16        15        14     9      180.000000       -0.328331         4
         4        16        15        27     9        0.000000       -0.146914         1
         4        16        15        27     9      180.000000       12.770795         2
         4        16        15        27     9        0.000000       -0.317069         3
         4        16        15        27     9      180.000000        0.120985         4
         4        16        17        18     9        0.000000        0.080922         1
         4        16        17        18     9      180.000000       15.488454         2
         4        16        17        18     9        0.000000       -0.333854         3
         4        16        17        18     9      180.000000       -0.328331         4
         4        16        17        28     9        0.000000       -0.146915         1
         4        16        17        28     9      180.000000       12.770795         2
         4        16        17        28     9        0.000000       -0.317069         3
         4        16        17        28     9      180.000000        0.120986         4
         5         4         3        10     9        0.000000       -1.519788         1
         5         4         3        10     9      180.000000        5.089182         2
         5         4         3        10     9        0.000000       -0.066830         3
         5         4         3        10     9      180.000000       -0.840008         4
         5         4        16        15     9        0.000000       -0.010757         1
         5         4        16        15     9      180.000000        4.627989         2
         5         4        16        15     9        0.000000       -0.004937         3
         5         4        16        15     9      180.000000        0.186679         4
         5         4        16        17     9        0.000000       -0.010757         1
         5         4        16        17     9      180.000000        4.627990         2
         5         4        16        17     9        0.000000       -0.004937         3
         5         4        16        17     9      180.000000        0.186679         4
         5         6        19        30     9        0.000000        1.716704         1
         5         6        19        30     9      180.000000        8.533549         2
         5         6        19        30     9        0.000000       -0.306059         3
         5         6        19        30     9      180.000000       -0.822715         4
         5         6        19        31     9        0.000000        1.716704         1
         5         6        19        31     9      180.000000        8.533549         2
         5         6        19        31     9        0.000000       -0.306059         3
         5         6        19        31     9      180.000000       -0.822715         4
         6         5         4        16     9        0.000000        0.243669         1
         6         5         4        16     9      180.000000       20.408581         2
         6         5         4        16     9        0.000000       -0.004642         3
         6         5         4        16     9      180.000000       -0.903313         4
         7         8         9        10     9        0.000000       -0.002768         1
         7         8         9        10     9      180.000000       18.563132         2
         7         8         9        10     9        0.000000       -1.690707         3
         7         8         9        10     9      180.000000       -0.491149         4
         7         8         9        22     9        0.000000        0.146780         1
         7         8         9        22     9      180.000000       14.801178         2
         7         8         9        22     9        0.000000       -0.647444         3
         7         8         9        22     9      180.000000        0.061792         4
         7        12        11        10     9        0.000000       -0.002768         1
         7        12        11        10     9      180.000000       18.563132         2
         7        12        11        10     9        0.000000       -1.690707         3
         7        12        11        10     9      180.000000       -0.491149         4
         7        12        11        23     9        0.000000        0.146780         1
         7        12        11        23     9      180.000000       14.801178         2
         7        12        11        23     9        0.000000       -0.647444         3
         7        12        11        23     9      180.000000        0.061792         4
         8         7        12        11     9        0.000000        0.070756         1
         8         7        12        11     9      180.000000       16.652117         2
         8         7        12        11     9        0.000000       -0.987654         3
         8         7        12        11     9      180.000000       -0.290702         4
         8         7        12        24     9        0.000000        0.059194         1
         8         7        12        24     9      180.000000       12.640497         2
         8         7        12        24     9        0.000000       -0.332579         3
         8         7        12        24     9      180.000000        0.146637         4
         8         7        20        32     9        0.000000        0.085020         1
         8         7        20        32     9      180.000000        4.725711         2
         8         7        20        32     9        0.000000        0.255587         3
         8         7        20        32     9      180.000000       -0.010666         4
         8         9        10        11     9        0.000000       -0.141378         1
         8         9        10        11     9      180.000000       18.852540         2
         8         9        10        11     9        0.000000       -1.440960         3
         8         9        10        11     9      180.000000       -0.504910         4
         9         8         7        12     9        0.000000        0.070756         1
         9         8         7        12     9      180.000000       16.652117         2
         9         8         7        12     9        0.000000       -0.987654         3
         9         8         7        12     9      180.000000       -0.290702         4
         9         8         7        20     9        0.000000        0.445792         1
         9         8         7        20     9      180.000000       19.875730         2
         9         8         7        20     9        0.000000        0.422823         3
         9         8         7        20     9      180.000000       -0.573475         4
         9        10        11        12     9        0.000000       -0.141378         1
         9        10        11        12     9      180.000000       18.852540         2
         9        10        11        12     9        0.000000       -1.440960         3
         9        10        11        12     9      180.000000       -0.504910         4
         9        10        11        23     9        0.000000        0.029998         1
         9        10        11        23     9      180.000000       14.094032         2
         9        10        11        23     9        0.000000       -0.582460         3
         9        10        11        23     9      180.000000        0.029112         4
        10         3         4        16     9        0.000000        0.700973         1
        10         3         4        16     9      180.000000        5.617271         2
        10         3         4        16     9        0.000000        0.316406         3
        10         3         4        16     9      180.000000       -0.542446         4
        10         9         8        21     9        0.000000        0.105355         1
        10         9         8        21     9      180.000000       14.551015         2
        10         9         8        21     9        0.000000       -0.478458         3
        10         9         8        21     9      180.000000        0.034344         4
        10        11        12        24     9        0.000000        0.105355         1
        10        11        12        24     9      180.000000       14.551015         2
        10        11        12        24     9        0.000000       -0.478458         3
        10        11        12        24     9      180.000000        0.034344         4
        11        10         9        22     9        0.000000        0.029998         1
        11        10         9        22     9      180.000000       14.094032         2
        11        10         9        22     9        0.000000       -0.582460         3
        11        10         9        22     9      180.000000        0.029112         4
        11        12         7        20     9        0.000000        0.445792         1
        11        12         7        20     9      180.000000       19.875730         2
        11        12         7        20     9        0.000000        0.422823         3
        11        12         7        20     9      180.000000       -0.573475         4
        12         7         8        21     9        0.000000        0.059194         1
        12         7         8        21     9      180.000000       12.640497         2
        12         7         8        21     9        0.000000       -0.332579         3
        12         7         8        21     9      180.000000        0.146637         4
        12         7        20        32     9        0.000000        0.085020         1
        12         7        20        32     9      180.000000        4.725711         2
        12         7        20        32     9        0.000000        0.255587         3
        12         7        20        32     9      180.000000       -0.010666         4
        13        14        15        16     9        0.000000        0.045085         1
        13        14        15        16     9      180.000000       19.128221         2
        13        14        15        16     9        0.000000       -1.471931         3
        13        14        15        16     9      180.000000       -0.521708         4
        13        14        15        27     9        0.000000        0.064860         1
        13        14        15        27     9      180.000000       15.029547         2
        13        14        15        27     9        0.000000       -0.687677         3
        13        14        15        27     9      180.000000        0.070746         4
        13        18        17        16     9        0.000000        0.045085         1
        13        18        17        16     9      180.000000       19.128223         2
        13        18        17        16     9        0.000000       -1.471931         3
        13        18        17        16     9      180.000000       -0.521708         4
        13        18        17        28     9        0.000000        0.064861         1
        13        18        17        28     9      180.000000       15.029547         2
        13        18        17        28     9        0.000000       -0.687677         3
        13        18        17        28     9      180.000000        0.070746         4
        14        13        18        17     9        0.000000       -0.012905         1
        14        13        18        17     9      180.000000       18.557273         2
        14        13        18        17     9        0.000000       -1.563998         3
        14        13        18        17     9      180.000000       -0.362525         4
        14        13        18        29     9        0.000000       -0.012176         1
        14        13        18        29     9      180.000000       14.387129         2
        14        13        18        29     9        0.000000       -0.717057         3
        14        13        18        29     9      180.000000        0.168766         4
        14        15        16        17     9        0.000000       -0.050872         1
        14        15        16        17     9      180.000000       18.634540         2
        14        15        16        17     9        0.000000       -1.319344         3
        14        15        16        17     9      180.000000       -0.454742         4
        15        14        13        18     9        0.000000       -0.012906         1
        15        14        13        18     9      180.000000       18.557273         2
        15        14        13        18     9        0.000000       -1.563998         3
        15        14        13        18     9      180.000000       -0.362525         4
        15        14        13        25     9        0.000000        0.054760         1
        15        14        13        25     9      180.000000       13.766277         2
        15        14        13        25     9        0.000000       -0.709420         3
        15        14        13        25     9      180.000000        0.167938         4
        15        16        17        18     9        0.000000       -0.050872         1
        15        16        17        18     9      180.000000       18.634536         2
        15        16        17        18     9        0.000000       -1.319343         3
        15        16        17        18     9      180.000000       -0.454743         4
        15        16        17        28     9        0.000000        0.068123         1
        15        16        17        28     9      180.000000       14.251022         2
        15        16        17        28     9        0.000000       -0.519433         3
        15        16        17        28     9      180.000000        0.018507         4
        16        15        14        26     9        0.000000       -0.025973         1
        16        15        14        26     9      180.000000       15.086197         2
        16        15        14        26     9        0.000000       -0.567660         3
        16        15        14        26     9      180.000000        0.001579         4
        16        17        18        29     9        0.000000       -0.025974         1
        16        17        18        29     9      180.000000       15.086199         2
        16        17        18        29     9        0.000000       -0.567659         3
        16        17        18        29     9      180.000000        0.001579         4
        17        16        15        27     9        0.000000        0.068124         1
        17        16        15        27     9      180.000000       14.251021         2
        17        16        15        27     9        0.000000       -0.519433         3
        17        16        15        27     9      180.000000        0.018507         4
        17        18        13        25     9        0.000000        0.054761         1
        17        18        13        25     9      180.000000       13.766276         2
        17        18        13        25     9        0.000000       -0.709421         3
        17        18        13        25     9      180.000000        0.167938         4
        18        13        14        26     9        0.000000       -0.012177         1
        18        13        14        26     9      180.000000       14.387129         2
        18        13        14        26     9        0.000000       -0.717056         3
        18        13        14        26     9      180.000000        0.168766         4
        20         7         8        21     9        0.000000       -0.027564         1
        20         7         8        21     9      180.000000       15.003066         2
        20         7         8        21     9        0.000000        0.090518         3
        20         7         8        21     9      180.000000        0.104971         4
        20         7        12        24     9        0.000000       -0.027564         1
        20         7        12        24     9      180.000000       15.003066         2
        20         7        12        24     9        0.000000        0.090518         3
        20         7        12        24     9      180.000000        0.104971         4
        21         8         9        22     9        0.000000       -0.166078         1
        21         8         9        22     9      180.000000       12.563055         2
        21         8         9        22     9        0.000000       -0.670593         3
        21         8         9        22     9      180.000000        0.249449         4
        23        11        12        24     9        0.000000       -0.166078         1
        23        11        12        24     9      180.000000       12.563055         2
        23        11        12        24     9        0.000000       -0.670593         3
        23        11        12        24     9      180.000000        0.249449         4
        25        13        14        26     9        0.000000       -0.083984         1
        25        13        14        26     9      180.000000       11.297505         2
        25        13        14        26     9        0.000000       -0.541472         3
        25        13        14        26     9      180.000000        0.257966         4
        25        13        18        29     9        0.000000       -0.083985         1
        25        13        18        29     9      180.000000       11.297506         2
        25        13        18        29     9        0.000000       -0.541472         3
        25        13        18        29     9      180.000000        0.257966         4
        26        14        15        27     9        0.000000       -0.167082         1
        26        14        15        27     9      180.000000       12.251294         2
        26        14        15        27     9        0.000000       -0.693636         3
        26        14        15        27     9      180.000000        0.279540         4
        28        17        18        29     9        0.000000       -0.167082         1
        28        17        18        29     9      180.000000       12.251293         2
        28        17        18        29     9        0.000000       -0.693636         3
        28        17        18        29     9      180.000000        0.279540         4

[ dihedrals ] ; impropers
;       ai        aj        ak        al funct           phase               k        pn
         3         2         4        10     4      180.000000        1.487878         2
         3         4        10         2     4      180.000000        1.487878         2
         3        10         2         4     4      180.000000        1.487878         2
         4         3         5        16     4      180.000000       10.192960         2
         4         5        16         3     4      180.000000       10.192960         2
         4        16         3         5     4      180.000000       10.192960         2
         6         1         5        19     4      180.000000        5.578667         2
         6         5        19         1     4      180.000000        5.578667         2
         6        19         1         5     4      180.000000        5.578667         2
         7         8        12        20     4      180.000000        1.144379         2
         7        12        20         8     4      180.000000        1.144379         2
         7        20         8        12     4      180.000000        1.144379         2
         8         7         9        21     4      180.000000        3.150900         2
         8         9        21         7     4      180.000000        3.150900         2
         8        21         7         9     4      180.000000        3.150900         2
         9         8        10        22     4      180.000000        1.950628         2
         9        10        22         8     4      180.000000        1.950628         2
         9        22         8        10     4      180.000000        1.950628         2
        11        10        12        23     4      180.000000        1.950628         2
        11        12        23        10     4      180.000000        1.950628         2
        11        23        10        12     4      180.000000        1.950628         2
        12         7        11        24     4      180.000000        3.150900         2
        12        11        24         7     4      180.000000        3.150900         2
        12        24         7        11     4      180.000000        3.150900         2
        14        13        15        26     4      180.000000        6.002970         2
        14        15        26        13     4      180.000000        6.002970         2
        14        26        13        15     4      180.000000        6.002970         2
        15        14        16        27     4      180.000000        0.979441         2
        15        16        27        14     4      180.000000        0.979441         2
        15        27        14        16     4      180.000000        0.979441         2
        17        16        18        28     4      180.000000        0.979441         2
        17        18        28        16     4      180.000000        0.979441         2
        17        28        16        18     4      180.000000        0.979441         2
        18        13        17        29     4      180.000000        6.002970         2
        18        17        29        13     4      180.000000        6.002970         2
        18        29        13        17     4      180.000000        6.002970         2

[ pairs ]
;       ai        aj funct
         1         4     1
         1        10     1
         1        30     1
         1        31     1
         2         5     1
         2         9     1
         2        11     1
         2        16     1
         2        19     1
         3         6     1
         3         8     1
         3        12     1
         3        15     1
         3        17     1
         3        22     1
         3        23     1
         4         9     1
         4        11     1
         4        14     1
         4        18     1
         4        19     1
         4        27     1
         4        28     1
         5        10     1
         5        15     1
         5        17     1
         5        30     1
         5        31     1
         6        16     1
         7        10     1
         7        22     1
         7        23     1
         8        11     1
         8        24     1
         8        32     1
         9        12     1
         9        20     1
         9        23     1
        10        16     1
        10        21     1
        10        24     1
        11        20     1
        11        22     1
        12        21     1
        12        32     1
        13        16     1
        13        27     1
        13        28     1
        14        17     1
        14        29     1
        15        18     1
        15        25     1
        15        28     1
        16        26     1
        16        29     1
        17        25     1
        17        27     1
        18        26     1
        20        21     1
        20        24     1
        21        22     1
        23        24     1
        25        26     1
        25        29     1
        26        27     1
        28        29     1
