; ITP file created by ByteFF-ML, 2025-12-06 04:35:41.241609

[ atomtypes ]
;name           bonded.type        at.num        mass        charge   ptype           sigma         epsilon
 n0bf                                   7      0.0000       0.00000       A     3.38432e-01     3.91971e-01
 n1bf                                   7      0.0000       0.00000       A     3.38091e-01     3.88523e-01
 c2bf                                   6      0.0000       0.00000       A     3.31523e-01     4.12167e-01
 c3bf                                   6      0.0000       0.00000       A     3.31222e-01     4.13851e-01
 n4bf                                   7      0.0000       0.00000       A     3.38445e-01     3.92580e-01
 c5bf                                   6      0.0000       0.00000       A     3.31386e-01     4.16721e-01
 n6bf                                   7      0.0000       0.00000       A     3.38336e-01     3.92922e-01
 c7bf                                   6      0.0000       0.00000       A     3.31482e-01     4.13016e-01
 c8bf                                   6      0.0000       0.00000       A     3.31342e-01     4.13382e-01
 c9bf                                   6      0.0000       0.00000       A     3.31328e-01     4.12600e-01
 c10bf                                  6      0.0000       0.00000       A     3.31342e-01     4.13382e-01
 c11bf                                  6      0.0000       0.00000       A     3.31482e-01     4.13016e-01
 c12bf                                  6      0.0000       0.00000       A     3.31494e-01     4.13000e-01
 c13bf                                  6      0.0000       0.00000       A     3.31488e-01     4.13045e-01
 c14bf                                  6      0.0000       0.00000       A     3.31446e-01     4.13138e-01
 c15bf                                  6      0.0000       0.00000       A     3.31460e-01     4.14367e-01
 c16bf                                  6      0.0000       0.00000       A     3.31446e-01     4.13136e-01
 c17bf                                  6      0.0000       0.00000       A     3.31488e-01     4.13045e-01
 n18bf                                  7      0.0000       0.00000       A     3.36783e-01     4.69230e-01
 h19bf                                  1      0.0000       0.00000       A     2.53698e-01     6.71259e-02
 h20bf                                  1      0.0000       0.00000       A     2.62533e-01     6.76047e-02
 h21bf                                  1      0.0000       0.00000       A     2.62533e-01     6.76047e-02
 h22bf                                  1      0.0000       0.00000       A     2.53698e-01     6.71259e-02
 h23bf                                  1      0.0000       0.00000       A     2.62457e-01     6.73477e-02
 h24bf                                  1      0.0000       0.00000       A     2.62467e-01     6.73573e-02
 h25bf                                  1      0.0000       0.00000       A     2.62488e-01     6.75042e-02
 h26bf                                  1      0.0000       0.00000       A     2.62488e-01     6.75042e-02
 h27bf                                  1      0.0000       0.00000       A     2.62467e-01     6.73573e-02
 h28bf                                  1      0.0000       0.00000       A     1.10093e-01     4.19894e-02
 h29bf                                  1      0.0000       0.00000       A     1.10093e-01     4.19894e-02

[ moleculetype ]
;name             nrexcl
 4q                    3

[ atoms ]
;       nr            type      resi   res      atom      cgnr      charge          mass ; qtot
         1            n0bf         1   UNL        n0         1    -0.15275       14.0070 ; qtot   -0.153
         2            n1bf         1   UNL        n1         2    -0.24195       14.0070 ; qtot   -0.395
         3            c2bf         1   UNL        c2         3     0.26047       12.0110 ; qtot   -0.134
         4            c3bf         1   UNL        c3         4     0.20825       12.0110 ; qtot    0.074
         5            n4bf         1   UNL        n4         5    -0.22989       14.0070 ; qtot   -0.156
         6            c5bf         1   UNL        c5         6     0.30797       12.0110 ; qtot    0.152
         7            n6bf         1   UNL        n6         7    -0.64722       14.0070 ; qtot   -0.495
         8            c7bf         1   UNL        c7         8     0.32635       12.0110 ; qtot   -0.169
         9            c8bf         1   UNL        c8         9    -0.12933       12.0110 ; qtot   -0.298
        10            c9bf         1   UNL        c9        10    -0.10626       12.0110 ; qtot   -0.404
        11           c10bf         1   UNL       c10        11    -0.12933       12.0110 ; qtot   -0.534
        12           c11bf         1   UNL       c11        12     0.32635       12.0110 ; qtot   -0.207
        13           c12bf         1   UNL       c12        13    -0.09693       12.0110 ; qtot   -0.304
        14           c13bf         1   UNL       c13        14    -0.11911       12.0110 ; qtot   -0.423
        15           c14bf         1   UNL       c14        15    -0.07492       12.0110 ; qtot   -0.498
        16           c15bf         1   UNL       c15        16    -0.16632       12.0110 ; qtot   -0.665
        17           c16bf         1   UNL       c16        17    -0.07492       12.0110 ; qtot   -0.740
        18           c17bf         1   UNL       c17        18    -0.11911       12.0110 ; qtot   -0.859
        19           n18bf         1   UNL       n18        19    -1.02351       14.0070 ; qtot   -1.882
        20           h19bf         1   UNL       h19        20     0.02512        1.0080 ; qtot   -1.857
        21           h20bf         1   UNL       h20        21     0.13586        1.0080 ; qtot   -1.721
        22           h21bf         1   UNL       h21        22     0.13586        1.0080 ; qtot   -1.585
        23           h22bf         1   UNL       h22        23     0.02512        1.0080 ; qtot   -1.560
        24           h23bf         1   UNL       h23        24     0.11588        1.0080 ; qtot   -1.444
        25           h24bf         1   UNL       h24        25     0.11665        1.0080 ; qtot   -1.328
        26           h25bf         1   UNL       h25        26     0.12492        1.0080 ; qtot   -1.203
        27           h26bf         1   UNL       h26        27     0.12492        1.0080 ; qtot   -1.078
        28           h27bf         1   UNL       h27        28     0.11665        1.0080 ; qtot   -0.961
        29           h28bf         1   UNL       h28        29     0.48059        1.0080 ; qtot   -0.481
        30           h29bf         1   UNL       h29        30     0.48059        1.0080 ; qtot    0.000

[ bonds ]
;       ai        aj funct               r               k
         1         2     1        0.132260   299729.308105
         1         6     1        0.134751   240973.654541
         2         3     1        0.134184   275276.325635
         3         4     1        0.142493   216285.500830
         3        10     1        0.148510   209026.143359
         4         5     1        0.133549   327112.418506
         4        16     1        0.148484   207154.171094
         5         6     1        0.134351   271645.025293
         6        19     1        0.136992   327257.367139
         7         8     1        0.134080   316020.553809
         7        12     1        0.134080   316020.553809
         8         9     1        0.139723   297607.965967
         8        20     1        0.108841   314410.719971
         9        10     1        0.140109   293807.252441
         9        21     1        0.108442   324658.583203
        10        11     1        0.140109   293807.252441
        11        12     1        0.139723   297607.965967
        11        22     1        0.108442   324658.583203
        12        23     1        0.108841   314410.719971
        13        14     1        0.139955   305315.704004
        13        18     1        0.139955   305315.704004
        13        24     1        0.108618   320581.609229
        14        15     1        0.139631   313333.717920
        14        25     1        0.108630   319489.335986
        15        16     1        0.140491   285820.981152
        15        26     1        0.108482   322437.442041
        16        17     1        0.140491   285820.981152
        17        18     1        0.139631   313333.717920
        17        27     1        0.108482   322437.442041
        18        28     1        0.108630   319489.335986
        19        29     1        0.101097   429488.110742
        19        30     1        0.101097   429488.110742

[ angles ]
;       ai        aj        ak funct           theta             cth
         1         2         3     1      120.974060      825.459991
         1         6         5     1      125.882187      669.346853
         1         6        19     1      116.729599      637.422275
         2         1         6     1      117.699364      924.749677
         2         3         4     1      119.686401      762.708802
         2         3        10     1      114.951553      527.032118
         3         4         5     1      119.115067      768.518366
         3         4        16     1      124.842552      441.411074
         3        10         9     1      121.145287      489.522637
         3        10        11     1      121.145287      489.522637
         4         3        10     1      125.144875      444.283456
         4         5         6     1      116.549789      994.194718
         4        16        15     1      120.363159      499.700133
         4        16        17     1      120.363159      499.700133
         5         4        16     1      116.020462      482.430152
         5         6        19     1      116.922890      592.907965
         6        19        29     1      115.911415      477.678845
         6        19        30     1      115.911415      477.678845
         7         8         9     1      123.857201      740.492729
         7         8        20     1      116.079735      353.476624
         7        12        11     1      123.857201      740.492729
         7        12        23     1      116.079735      353.476624
         8         7        12     1      116.727005      666.373376
         8         9        10     1      118.863419      767.393329
         8         9        21     1      120.114700      440.171599
         9         8        20     1      119.928528      407.231664
         9        10        11     1      117.727211      775.122901
        10         9        21     1      120.884117      395.508663
        10        11        12     1      118.863419      767.393329
        10        11        22     1      120.884117      395.508663
        11        12        23     1      119.928528      407.231664
        12        11        22     1      120.114700      440.171599
        13        14        15     1      120.211388      725.285891
        13        14        25     1      120.091293      443.432943
        13        18        17     1      120.211388      725.285955
        13        18        28     1      120.091293      443.432943
        14        13        18     1      119.615746      659.890781
        14        13        24     1      120.215599      428.617717
        14        15        16     1      120.435951      701.577558
        14        15        26     1      119.975220      414.450271
        15        14        25     1      119.671829      431.194603
        15        16        17     1      119.073425      716.183763
        16        15        26     1      119.531387      388.633435
        16        17        18     1      120.435951      701.577558
        16        17        27     1      119.531372      388.633435
        17        18        28     1      119.671829      431.194603
        18        13        24     1      120.215599      428.617717
        18        17        27     1      119.975220      414.450271
        29        19        30     1      117.818871      318.801187

[ dihedrals ] ; propers for gromacs 4.5 or higher, use funct 9
;       ai        aj        ak        al funct           phase               k        pn
         1         2         3         4     9        0.000000        0.822788         1
         1         2         3         4     9      180.000000       22.809152         2
         1         2         3         4     9        0.000000        1.241340         3
         1         2         3         4     9      180.000000       -0.893905         4
         1         2         3        10     9        0.000000        0.658947         1
         1         2         3        10     9      180.000000       26.225793         2
         1         2         3        10     9        0.000000        2.330904         3
         1         2         3        10     9      180.000000       -1.464579         4
         1         6         5         4     9        0.000000        0.617944         1
         1         6         5         4     9      180.000000        9.528009         2
         1         6         5         4     9        0.000000        0.428162         3
         1         6         5         4     9      180.000000       -0.490773         4
         1         6        19        29     9        0.000000        2.084886         1
         1         6        19        29     9      180.000000        7.869700         2
         1         6        19        29     9        0.000000       -0.285384         3
         1         6        19        29     9      180.000000       -0.670789         4
         1         6        19        30     9        0.000000        2.084886         1
         1         6        19        30     9      180.000000        7.869700         2
         1         6        19        30     9        0.000000       -0.285384         3
         1         6        19        30     9      180.000000       -0.670789         4
         2         1         6         5     9        0.000000        0.996669         1
         2         1         6         5     9      180.000000        9.806670         2
         2         1         6         5     9        0.000000        1.154760         3
         2         1         6         5     9      180.000000       -0.713160         4
         2         1         6        19     9        0.000000        1.188860         1
         2         1         6        19     9      180.000000       18.423536         2
         2         1         6        19     9        0.000000        0.534243         3
         2         1         6        19     9      180.000000       -1.308435         4
         2         3         4         5     9        0.000000        1.810633         1
         2         3         4         5     9      180.000000        2.913626         2
         2         3         4         5     9        0.000000        0.485964         3
         2         3         4         5     9      180.000000       -0.420890         4
         2         3         4        16     9        0.000000       -2.607858         1
         2         3         4        16     9      180.000000        2.304664         2
         2         3         4        16     9        0.000000       -0.118171         3
         2         3         4        16     9      180.000000       -0.822678         4
         2         3        10         9     9        0.000000        0.134840         1
         2         3        10         9     9      180.000000        3.445112         2
         2         3        10         9     9        0.000000        0.118499         3
         2         3        10         9     9      180.000000       -0.071032         4
         2         3        10        11     9        0.000000        0.134840         1
         2         3        10        11     9      180.000000        3.445112         2
         2         3        10        11     9        0.000000        0.118499         3
         2         3        10        11     9      180.000000       -0.071032         4
         3         2         1         6     9        0.000000       -0.065644         1
         3         2         1         6     9      180.000000       22.117734         2
         3         2         1         6     9        0.000000        0.495338         3
         3         2         1         6     9      180.000000       -0.691782         4
         3         4         5         6     9        0.000000       -0.435221         1
         3         4         5         6     9      180.000000       18.543642         2
         3         4         5         6     9        0.000000       -0.965444         3
         3         4         5         6     9      180.000000       -0.268721         4
         3         4        16        15     9        0.000000        0.025139         1
         3         4        16        15     9      180.000000        3.146822         2
         3         4        16        15     9        0.000000        0.215867         3
         3         4        16        15     9      180.000000       -0.242217         4
         3         4        16        17     9        0.000000        0.025139         1
         3         4        16        17     9      180.000000        3.146821         2
         3         4        16        17     9        0.000000        0.215866         3
         3         4        16        17     9      180.000000       -0.242217         4
         3        10         9         8     9        0.000000        0.235025         1
         3        10         9         8     9      180.000000       15.786591         2
         3        10         9         8     9        0.000000       -0.102564         3
         3        10         9         8     9      180.000000       -0.417529         4
         3        10         9        21     9        0.000000       -0.066292         1
         3        10         9        21     9      180.000000       13.059731         2
         3        10         9        21     9        0.000000       -0.228720         3
         3        10         9        21     9      180.000000        0.128388         4
         3        10        11        12     9        0.000000        0.235025         1
         3        10        11        12     9      180.000000       15.786591         2
         3        10        11        12     9        0.000000       -0.102564         3
         3        10        11        12     9      180.000000       -0.417529         4
         3        10        11        22     9        0.000000       -0.066292         1
         3        10        11        22     9      180.000000       13.059731         2
         3        10        11        22     9        0.000000       -0.228720         3
         3        10        11        22     9      180.000000        0.128388         4
         4         3        10         9     9        0.000000       -0.041326         1
         4         3        10         9     9      180.000000        2.171366         2
         4         3        10         9     9        0.000000        0.151238         3
         4         3        10         9     9      180.000000       -0.182700         4
         4         3        10        11     9        0.000000       -0.041326         1
         4         3        10        11     9      180.000000        2.171366         2
         4         3        10        11     9        0.000000        0.151238         3
         4         3        10        11     9      180.000000       -0.182700         4
         4         5         6        19     9        0.000000        0.844283         1
         4         5         6        19     9      180.000000       18.398514         2
         4         5         6        19     9        0.000000        0.300675         3
         4         5         6        19     9      180.000000       -1.336364         4
         4        16        15        14     9        0.000000        0.080921         1
         4        16        15        14     9      180.000000       15.488456         2
         4        16        15        14     9        0.000000       -0.333854         3
         4        16        15        14     9      180.000000       -0.328331         4
         4        16        15        26     9        0.000000       -0.146914         1
         4        16        15        26     9      180.000000       12.770795         2
         4        16        15        26     9        0.000000       -0.317069         3
         4        16        15        26     9      180.000000        0.120985         4
         4        16        17        18     9        0.000000        0.080922         1
         4        16        17        18     9      180.000000       15.488454         2
         4        16        17        18     9        0.000000       -0.333854         3
         4        16        17        18     9      180.000000       -0.328331         4
         4        16        17        27     9        0.000000       -0.146915         1
         4        16        17        27     9      180.000000       12.770795         2
         4        16        17        27     9        0.000000       -0.317069         3
         4        16        17        27     9      180.000000        0.120986         4
         5         4         3        10     9        0.000000       -1.673200         1
         5         4         3        10     9      180.000000        5.579126         2
         5         4         3        10     9        0.000000       -0.083432         3
         5         4         3        10     9      180.000000       -0.855119         4
         5         4        16        15     9        0.000000       -0.010757         1
         5         4        16        15     9      180.000000        4.627989         2
         5         4        16        15     9        0.000000       -0.004937         3
         5         4        16        15     9      180.000000        0.186679         4
         5         4        16        17     9        0.000000       -0.010757         1
         5         4        16        17     9      180.000000        4.627990         2
         5         4        16        17     9        0.000000       -0.004937         3
         5         4        16        17     9      180.000000        0.186679         4
         5         6        19        29     9        0.000000        1.716704         1
         5         6        19        29     9      180.000000        8.533549         2
         5         6        19        29     9        0.000000       -0.306059         3
         5         6        19        29     9      180.000000       -0.822715         4
         5         6        19        30     9        0.000000        1.716704         1
         5         6        19        30     9      180.000000        8.533549         2
         5         6        19        30     9        0.000000       -0.306059         3
         5         6        19        30     9      180.000000       -0.822715         4
         6         5         4        16     9        0.000000        0.243669         1
         6         5         4        16     9      180.000000       20.408581         2
         6         5         4        16     9        0.000000       -0.004642         3
         6         5         4        16     9      180.000000       -0.903313         4
         7         8         9        10     9        0.000000       -0.014720         1
         7         8         9        10     9      180.000000       18.644927         2
         7         8         9        10     9        0.000000       -1.022555         3
         7         8         9        10     9      180.000000       -0.652953         4
         7         8         9        21     9        0.000000       -0.040368         1
         7         8         9        21     9      180.000000       14.541764         2
         7         8         9        21     9        0.000000       -0.423060         3
         7         8         9        21     9      180.000000       -0.052362         4
         7        12        11        10     9        0.000000       -0.014720         1
         7        12        11        10     9      180.000000       18.644927         2
         7        12        11        10     9        0.000000       -1.022555         3
         7        12        11        10     9      180.000000       -0.652953         4
         7        12        11        22     9        0.000000       -0.040368         1
         7        12        11        22     9      180.000000       14.541764         2
         7        12        11        22     9        0.000000       -0.423060         3
         7        12        11        22     9      180.000000       -0.052362         4
         8         7        12        11     9        0.000000        0.175019         1
         8         7        12        11     9      180.000000       22.462892         2
         8         7        12        11     9        0.000000       -0.960406         3
         8         7        12        11     9      180.000000       -0.102069         4
         8         7        12        23     9        0.000000        1.029111         1
         8         7        12        23     9      180.000000       20.978668         2
         8         7        12        23     9        0.000000        0.227376         3
         8         7        12        23     9      180.000000       -0.370887         4
         8         9        10        11     9        0.000000       -0.128993         1
         8         9        10        11     9      180.000000       18.681822         2
         8         9        10        11     9        0.000000       -1.530254         3
         8         9        10        11     9      180.000000       -0.556580         4
         9         8         7        12     9        0.000000        0.175019         1
         9         8         7        12     9      180.000000       22.462892         2
         9         8         7        12     9        0.000000       -0.960406         3
         9         8         7        12     9      180.000000       -0.102069         4
         9        10        11        12     9        0.000000       -0.128993         1
         9        10        11        12     9      180.000000       18.681822         2
         9        10        11        12     9        0.000000       -1.530254         3
         9        10        11        12     9      180.000000       -0.556580         4
         9        10        11        22     9        0.000000       -0.001976         1
         9        10        11        22     9      180.000000       14.375461         2
         9        10        11        22     9        0.000000       -0.498330         3
         9        10        11        22     9      180.000000        0.037315         4
        10         3         4        16     9        0.000000        0.785314         1
        10         3         4        16     9      180.000000        6.298365         2
        10         3         4        16     9        0.000000        0.334364         3
        10         3         4        16     9      180.000000       -0.697691         4
        10         9         8        20     9        0.000000       -0.045645         1
        10         9         8        20     9      180.000000       15.031855         2
        10         9         8        20     9        0.000000       -0.438812         3
        10         9         8        20     9      180.000000       -0.033088         4
        10        11        12        23     9        0.000000       -0.045645         1
        10        11        12        23     9      180.000000       15.031855         2
        10        11        12        23     9        0.000000       -0.438812         3
        10        11        12        23     9      180.000000       -0.033088         4
        11        10         9        21     9        0.000000       -0.001976         1
        11        10         9        21     9      180.000000       14.375461         2
        11        10         9        21     9        0.000000       -0.498330         3
        11        10         9        21     9      180.000000        0.037315         4
        12         7         8        20     9        0.000000        1.029111         1
        12         7         8        20     9      180.000000       20.978668         2
        12         7         8        20     9        0.000000        0.227376         3
        12         7         8        20     9      180.000000       -0.370887         4
        13        14        15        16     9        0.000000        0.045085         1
        13        14        15        16     9      180.000000       19.128221         2
        13        14        15        16     9        0.000000       -1.471931         3
        13        14        15        16     9      180.000000       -0.521708         4
        13        14        15        26     9        0.000000        0.064860         1
        13        14        15        26     9      180.000000       15.029547         2
        13        14        15        26     9        0.000000       -0.687677         3
        13        14        15        26     9      180.000000        0.070746         4
        13        18        17        16     9        0.000000        0.045085         1
        13        18        17        16     9      180.000000       19.128223         2
        13        18        17        16     9        0.000000       -1.471931         3
        13        18        17        16     9      180.000000       -0.521708         4
        13        18        17        27     9        0.000000        0.064861         1
        13        18        17        27     9      180.000000       15.029547         2
        13        18        17        27     9        0.000000       -0.687677         3
        13        18        17        27     9      180.000000        0.070746         4
        14        13        18        17     9        0.000000       -0.012905         1
        14        13        18        17     9      180.000000       18.557273         2
        14        13        18        17     9        0.000000       -1.563998         3
        14        13        18        17     9      180.000000       -0.362525         4
        14        13        18        28     9        0.000000       -0.012176         1
        14        13        18        28     9      180.000000       14.387129         2
        14        13        18        28     9        0.000000       -0.717057         3
        14        13        18        28     9      180.000000        0.168766         4
        14        15        16        17     9        0.000000       -0.050872         1
        14        15        16        17     9      180.000000       18.634540         2
        14        15        16        17     9        0.000000       -1.319344         3
        14        15        16        17     9      180.000000       -0.454742         4
        15        14        13        18     9        0.000000       -0.012906         1
        15        14        13        18     9      180.000000       18.557273         2
        15        14        13        18     9        0.000000       -1.563998         3
        15        14        13        18     9      180.000000       -0.362525         4
        15        14        13        24     9        0.000000        0.054760         1
        15        14        13        24     9      180.000000       13.766277         2
        15        14        13        24     9        0.000000       -0.709420         3
        15        14        13        24     9      180.000000        0.167938         4
        15        16        17        18     9        0.000000       -0.050872         1
        15        16        17        18     9      180.000000       18.634536         2
        15        16        17        18     9        0.000000       -1.319343         3
        15        16        17        18     9      180.000000       -0.454743         4
        15        16        17        27     9        0.000000        0.068123         1
        15        16        17        27     9      180.000000       14.251022         2
        15        16        17        27     9        0.000000       -0.519433         3
        15        16        17        27     9      180.000000        0.018507         4
        16        15        14        25     9        0.000000       -0.025973         1
        16        15        14        25     9      180.000000       15.086197         2
        16        15        14        25     9        0.000000       -0.567660         3
        16        15        14        25     9      180.000000        0.001579         4
        16        17        18        28     9        0.000000       -0.025974         1
        16        17        18        28     9      180.000000       15.086199         2
        16        17        18        28     9        0.000000       -0.567659         3
        16        17        18        28     9      180.000000        0.001579         4
        17        16        15        26     9        0.000000        0.068124         1
        17        16        15        26     9      180.000000       14.251021         2
        17        16        15        26     9        0.000000       -0.519433         3
        17        16        15        26     9      180.000000        0.018507         4
        17        18        13        24     9        0.000000        0.054761         1
        17        18        13        24     9      180.000000       13.766276         2
        17        18        13        24     9        0.000000       -0.709421         3
        17        18        13        24     9      180.000000        0.167938         4
        18        13        14        25     9        0.000000       -0.012177         1
        18        13        14        25     9      180.000000       14.387129         2
        18        13        14        25     9        0.000000       -0.717056         3
        18        13        14        25     9      180.000000        0.168766         4
        20         8         9        21     9        0.000000       -0.160007         1
        20         8         9        21     9      180.000000       12.088146         2
        20         8         9        21     9        0.000000       -0.686231         3
        20         8         9        21     9      180.000000        0.312782         4
        22        11        12        23     9        0.000000       -0.160007         1
        22        11        12        23     9      180.000000       12.088145         2
        22        11        12        23     9        0.000000       -0.686231         3
        22        11        12        23     9      180.000000        0.312782         4
        24        13        14        25     9        0.000000       -0.083984         1
        24        13        14        25     9      180.000000       11.297505         2
        24        13        14        25     9        0.000000       -0.541472         3
        24        13        14        25     9      180.000000        0.257966         4
        24        13        18        28     9        0.000000       -0.083985         1
        24        13        18        28     9      180.000000       11.297506         2
        24        13        18        28     9        0.000000       -0.541472         3
        24        13        18        28     9      180.000000        0.257966         4
        25        14        15        26     9        0.000000       -0.167082         1
        25        14        15        26     9      180.000000       12.251294         2
        25        14        15        26     9        0.000000       -0.693636         3
        25        14        15        26     9      180.000000        0.279540         4
        27        17        18        28     9        0.000000       -0.167082         1
        27        17        18        28     9      180.000000       12.251293         2
        27        17        18        28     9        0.000000       -0.693636         3
        27        17        18        28     9      180.000000        0.279540         4

[ dihedrals ] ; impropers
;       ai        aj        ak        al funct           phase               k        pn
         3         2         4        10     4      180.000000        0.495693         2
         3         4        10         2     4      180.000000        0.495693         2
         3        10         2         4     4      180.000000        0.495693         2
         4         3         5        16     4      180.000000       10.982915         2
         4         5        16         3     4      180.000000       10.982915         2
         4        16         3         5     4      180.000000       10.982915         2
         6         1         5        19     4      180.000000        5.578667         2
         6         5        19         1     4      180.000000        5.578667         2
         6        19         1         5     4      180.000000        5.578667         2
         8         7         9        20     4      180.000000       10.400604         2
         8         9        20         7     4      180.000000       10.400604         2
         8        20         7         9     4      180.000000       10.400604         2
        12         7        11        23     4      180.000000       10.400604         2
        12        11        23         7     4      180.000000       10.400604         2
        12        23         7        11     4      180.000000       10.400604         2
        14        13        15        25     4      180.000000        6.002970         2
        14        15        25        13     4      180.000000        6.002970         2
        14        25        13        15     4      180.000000        6.002970         2
        15        14        16        26     4      180.000000        0.979441         2
        15        16        26        14     4      180.000000        0.979441         2
        15        26        14        16     4      180.000000        0.979441         2
        17        16        18        27     4      180.000000        0.979441         2
        17        18        27        16     4      180.000000        0.979441         2
        17        27        16        18     4      180.000000        0.979441         2
        18        13        17        28     4      180.000000        6.002969         2
        18        17        28        13     4      180.000000        6.002969         2
        18        28        13        17     4      180.000000        6.002969         2

[ pairs ]
;       ai        aj funct
         1         4     1
         1        10     1
         1        29     1
         1        30     1
         2         5     1
         2         9     1
         2        11     1
         2        16     1
         2        19     1
         3         6     1
         3         8     1
         3        12     1
         3        15     1
         3        17     1
         3        21     1
         3        22     1
         4         9     1
         4        11     1
         4        14     1
         4        18     1
         4        19     1
         4        26     1
         4        27     1
         5        10     1
         5        15     1
         5        17     1
         5        29     1
         5        30     1
         6        16     1
         7        10     1
         7        21     1
         7        22     1
         8        11     1
         8        23     1
         9        12     1
         9        22     1
        10        16     1
        10        20     1
        10        23     1
        11        21     1
        12        20     1
        13        16     1
        13        26     1
        13        27     1
        14        17     1
        14        28     1
        15        18     1
        15        24     1
        15        27     1
        16        25     1
        16        28     1
        17        24     1
        17        26     1
        18        25     1
        20        21     1
        22        23     1
        24        25     1
        24        28     1
        25        26     1
        27        28     1
