; ITP file created by ByteFF-ML, 2025-12-06 04:37:21.139317

[ atomtypes ]
;name           bonded.type        at.num        mass        charge   ptype           sigma         epsilon
 n0bf                                   7      0.0000       0.00000       A     3.38432e-01     3.91971e-01
 n1bf                                   7      0.0000       0.00000       A     3.38091e-01     3.88523e-01
 c2bf                                   6      0.0000       0.00000       A     3.31538e-01     4.12582e-01
 c3bf                                   6      0.0000       0.00000       A     3.31222e-01     4.13851e-01
 n4bf                                   7      0.0000       0.00000       A     3.38445e-01     3.92580e-01
 c5bf                                   6      0.0000       0.00000       A     3.31386e-01     4.16721e-01
 n6bf                                   7      0.0000       0.00000       A     3.38228e-01     3.93688e-01
 c7bf                                   6      0.0000       0.00000       A     3.31486e-01     4.13076e-01
 c8bf                                   6      0.0000       0.00000       A     3.31475e-01     4.13313e-01
 c9bf                                   6      0.0000       0.00000       A     3.31349e-01     4.14367e-01
 c10bf                                  6      0.0000       0.00000       A     3.31332e-01     4.14308e-01
 c11bf                                  6      0.0000       0.00000       A     3.31668e-01     4.14796e-01
 c12bf                                  6      0.0000       0.00000       A     3.31532e-01     4.13045e-01
 c13bf                                  6      0.0000       0.00000       A     3.31501e-01     4.12675e-01
 c14bf                                  6      0.0000       0.00000       A     3.31488e-01     4.12986e-01
 c15bf                                  6      0.0000       0.00000       A     3.31481e-01     4.14665e-01
 c16bf                                  6      0.0000       0.00000       A     3.31488e-01     4.12986e-01
 c17bf                                  6      0.0000       0.00000       A     3.31501e-01     4.12675e-01
 n18bf                                  7      0.0000       0.00000       A     3.36783e-01     4.69230e-01
 c19bf                                  6      0.0000       0.00000       A     3.39624e-01     4.50877e-01
 cl20bf                                17      0.0000       0.00000       A     3.46736e-01     1.10495e+00
 f21bf                                  9      0.0000       0.00000       A     3.03427e-01     3.47782e-01
 f22bf                                  9      0.0000       0.00000       A     3.03419e-01     3.46760e-01
 f23bf                                  9      0.0000       0.00000       A     3.03419e-01     3.46760e-01
 f24bf                                  9      0.0000       0.00000       A     3.03419e-01     3.46760e-01
 h25bf                                  1      0.0000       0.00000       A     2.62340e-01     6.74834e-02
 h26bf                                  1      0.0000       0.00000       A     2.62532e-01     6.75137e-02
 h27bf                                  1      0.0000       0.00000       A     2.62536e-01     6.71355e-02
 h28bf                                  1      0.0000       0.00000       A     2.62473e-01     6.73350e-02
 h29bf                                  1      0.0000       0.00000       A     2.62473e-01     6.73350e-02
 h30bf                                  1      0.0000       0.00000       A     2.62536e-01     6.71355e-02
 h31bf                                  1      0.0000       0.00000       A     1.10093e-01     4.19894e-02
 h32bf                                  1      0.0000       0.00000       A     1.10093e-01     4.19894e-02

[ moleculetype ]
;name             nrexcl
 4r_U                  3

[ atoms ]
;       nr            type      resi   res      atom      cgnr      charge          mass ; qtot
         1            n0bf         1   UNL        n0         1    -0.15275       14.0070 ; qtot   -0.153
         2            n1bf         1   UNL        n1         2    -0.23924       14.0070 ; qtot   -0.392
         3            c2bf         1   UNL        c2         3     0.25395       12.0110 ; qtot   -0.138
         4            c3bf         1   UNL        c3         4     0.20961       12.0110 ; qtot    0.072
         5            n4bf         1   UNL        n4         5    -0.22989       14.0070 ; qtot   -0.158
         6            c5bf         1   UNL        c5         6     0.30797       12.0110 ; qtot    0.150
         7            n6bf         1   UNL        n6         7    -0.61009       14.0070 ; qtot   -0.460
         8            c7bf         1   UNL        c7         8     0.44396       12.0110 ; qtot   -0.016
         9            c8bf         1   UNL        c8         9    -0.11338       12.0110 ; qtot   -0.130
        10            c9bf         1   UNL        c9        10    -0.08842       12.0110 ; qtot   -0.218
        11           c10bf         1   UNL       c10        11    -0.05987       12.0110 ; qtot   -0.278
        12           c11bf         1   UNL       c11        12     0.26212       12.0110 ; qtot   -0.016
        13           c12bf         1   UNL       c12        13     0.17337       12.0110 ; qtot    0.157
        14           c13bf         1   UNL       c13        14    -0.15402       12.0110 ; qtot    0.003
        15           c14bf         1   UNL       c14        15    -0.04922       12.0110 ; qtot   -0.046
        16           c15bf         1   UNL       c15        16    -0.17984       12.0110 ; qtot   -0.226
        17           c16bf         1   UNL       c16        17    -0.04922       12.0110 ; qtot   -0.275
        18           c17bf         1   UNL       c17        18    -0.15402       12.0110 ; qtot   -0.429
        19           n18bf         1   UNL       n18        19    -1.02351       14.0070 ; qtot   -1.452
        20           c19bf         1   UNL       c19        20     0.25176       12.0110 ; qtot   -1.201
        21          cl20bf         1   UNL      cl20        21    -0.14869       35.4530 ; qtot   -1.349
        22           f21bf         1   UNL       f21        22    -0.17685       18.9980 ; qtot   -1.526
        23           f22bf         1   UNL       f22        23    -0.09453       18.9980 ; qtot   -1.621
        24           f23bf         1   UNL       f23        24    -0.09453       18.9980 ; qtot   -1.715
        25           f24bf         1   UNL       f24        25    -0.09453       18.9980 ; qtot   -1.810
        26           h25bf         1   UNL       h25        26     0.15220        1.0080 ; qtot   -1.658
        27           h26bf         1   UNL       h26        27     0.15874        1.0080 ; qtot   -1.499
        28           h27bf         1   UNL       h27        28     0.13738        1.0080 ; qtot   -1.362
        29           h28bf         1   UNL       h28        29     0.13148        1.0080 ; qtot   -1.230
        30           h29bf         1   UNL       h29        30     0.13148        1.0080 ; qtot   -1.099
        31           h30bf         1   UNL       h30        31     0.13738        1.0080 ; qtot   -0.961
        32           h31bf         1   UNL       h31        32     0.48059        1.0080 ; qtot   -0.481
        33           h32bf         1   UNL       h32        33     0.48061        1.0080 ; qtot    0.000

[ bonds ]
;       ai        aj funct               r               k
         1         2     1        0.132260   299729.308105
         1         6     1        0.134751   240973.654541
         2         3     1        0.134204   274588.509131
         3         4     1        0.142481   216910.521582
         3        10     1        0.148491   208656.570313
         4         5     1        0.133549   327112.418506
         4        16     1        0.148441   207286.389478
         5         6     1        0.134351   271645.025293
         6        19     1        0.136992   327257.367139
         7         8     1        0.132120   317326.828027
         7        12     1        0.133704   304061.499951
         8         9     1        0.139968   279316.475098
         8        21     1        0.175373   135912.045752
         9        10     1        0.139875   298299.281055
         9        26     1        0.108298   329423.322607
        10        11     1        0.140161   293818.335547
        11        12     1        0.139280   296108.631201
        11        27     1        0.108352   328286.333887
        12        20     1        0.152148   187251.901514
        13        14     1        0.139219   306800.329395
        13        18     1        0.139219   306800.329395
        13        22     1        0.135527   291307.424805
        14        15     1        0.139558   319228.448877
        14        28     1        0.108491   324826.872754
        15        16     1        0.140506   285682.442334
        15        29     1        0.108458   323747.674512
        16        17     1        0.140506   285682.442334
        17        18     1        0.139558   319228.448877
        17        30     1        0.108458   323747.674512
        18        31     1        0.108491   324826.872754
        19        32     1        0.101097   429488.110742
        19        33     1        0.101097   429488.110742
        20        23     1        0.135316   233736.590967
        20        24     1        0.135316   233736.590967
        20        25     1        0.135316   233736.590967

[ angles ]
;       ai        aj        ak funct           theta             cth
         1         2         3     1      120.971558      821.356242
         1         6         5     1      125.882187      669.346853
         1         6        19     1      116.729599      637.422275
         2         1         6     1      117.699364      924.749677
         2         3         4     1      119.737305      761.611983
         2         3        10     1      114.754562      526.464715
         3         4         5     1      119.100563      765.590792
         3         4        16     1      124.886864      441.224047
         3        10         9     1      120.699623      481.566295
         3        10        11     1      120.891884      467.329197
         4         3        10     1      125.166702      446.087749
         4         5         6     1      116.549789      994.194718
         4        16        15     1      120.429420      503.178191
         4        16        17     1      120.429420      503.178191
         5         4        16     1      116.013489      482.313320
         5         6        19     1      116.922890      592.907965
         6        19        32     1      115.911415      477.678845
         6        19        33     1      115.911415      477.678845
         7         8         9     1      124.422935      693.871544
         7         8        21     1      116.737869      466.087902
         7        12        11     1      124.189232      682.704868
         7        12        20     1      115.340073      388.742127
         8         7        12     1      117.260033      562.494608
         8         9        10     1      117.838257      720.708684
         8         9        26     1      120.656166      407.723956
         9         8        21     1      118.586624      336.231861
         9        10        11     1      118.209373      774.868296
        10         9        26     1      121.543556      385.246895
        10        11        12     1      117.979820      750.193958
        10        11        27     1      121.023743      393.561490
        11        12        20     1      120.278931      472.428192
        12        11        27     1      120.751709      401.072912
        12        20        23     1      111.297409      588.335928
        12        20        24     1      111.297409      588.335928
        12        20        25     1      111.297409      588.335928
        13        14        15     1      118.543686      711.344354
        13        14        28     1      119.838074      447.128322
        13        18        17     1      118.543686      711.344226
        13        18        31     1      119.838074      447.128322
        14        13        18     1      122.178696      558.602689
        14        13        22     1      118.911842      581.302370
        14        15        16     1      120.924416      692.327187
        14        15        29     1      119.432289      407.244178
        15        14        28     1      121.619766      420.756501
        15        16        17     1      118.904099      714.505145
        16        15        29     1      119.588463      383.769126
        16        17        18     1      120.924416      692.327187
        16        17        30     1      119.588463      383.769126
        17        18        31     1      121.619766      420.756501
        18        13        22     1      118.911842      581.302370
        18        17        30     1      119.432289      407.244178
        23        20        24     1      107.288170      700.592273
        23        20        25     1      107.288170      700.592209
        24        20        25     1      107.288170      700.592209
        32        19        33     1      117.818871      318.801187

[ dihedrals ] ; propers for gromacs 4.5 or higher, use funct 9
;       ai        aj        ak        al funct           phase               k        pn
         1         2         3         4     9        0.000000        0.721150         1
         1         2         3         4     9      180.000000       22.865852         2
         1         2         3         4     9        0.000000        1.205739         3
         1         2         3         4     9      180.000000       -0.870741         4
         1         2         3        10     9        0.000000        0.759192         1
         1         2         3        10     9      180.000000       26.306457         2
         1         2         3        10     9        0.000000        2.364051         3
         1         2         3        10     9      180.000000       -1.459880         4
         1         6         5         4     9        0.000000        0.617944         1
         1         6         5         4     9      180.000000        9.528009         2
         1         6         5         4     9        0.000000        0.428162         3
         1         6         5         4     9      180.000000       -0.490773         4
         1         6        19        32     9        0.000000        2.084886         1
         1         6        19        32     9      180.000000        7.869700         2
         1         6        19        32     9        0.000000       -0.285384         3
         1         6        19        32     9      180.000000       -0.670789         4
         1         6        19        33     9        0.000000        2.084886         1
         1         6        19        33     9      180.000000        7.869700         2
         1         6        19        33     9        0.000000       -0.285384         3
         1         6        19        33     9      180.000000       -0.670789         4
         2         1         6         5     9        0.000000        0.996669         1
         2         1         6         5     9      180.000000        9.806670         2
         2         1         6         5     9        0.000000        1.154760         3
         2         1         6         5     9      180.000000       -0.713160         4
         2         1         6        19     9        0.000000        1.188860         1
         2         1         6        19     9      180.000000       18.423536         2
         2         1         6        19     9        0.000000        0.534243         3
         2         1         6        19     9      180.000000       -1.308435         4
         2         3         4         5     9        0.000000        1.794132         1
         2         3         4         5     9      180.000000        2.940766         2
         2         3         4         5     9        0.000000        0.491886         3
         2         3         4         5     9      180.000000       -0.419888         4
         2         3         4        16     9        0.000000       -2.820985         1
         2         3         4        16     9      180.000000        2.494621         2
         2         3         4        16     9        0.000000       -0.242686         3
         2         3         4        16     9      180.000000       -0.784585         4
         2         3        10         9     9        0.000000        0.078143         1
         2         3        10         9     9      180.000000        3.558922         2
         2         3        10         9     9        0.000000        0.115111         3
         2         3        10         9     9      180.000000       -0.088240         4
         2         3        10        11     9        0.000000        0.158691         1
         2         3        10        11     9      180.000000        3.602340         2
         2         3        10        11     9        0.000000        0.039212         3
         2         3        10        11     9      180.000000       -0.039172         4
         3         2         1         6     9        0.000000       -0.138515         1
         3         2         1         6     9      180.000000       22.017537         2
         3         2         1         6     9        0.000000        0.534570         3
         3         2         1         6     9      180.000000       -0.678706         4
         3         4         5         6     9        0.000000       -0.458739         1
         3         4         5         6     9      180.000000       18.540873         2
         3         4         5         6     9        0.000000       -0.934191         3
         3         4         5         6     9      180.000000       -0.274110         4
         3         4        16        15     9        0.000000        0.033883         1
         3         4        16        15     9      180.000000        3.361890         2
         3         4        16        15     9        0.000000        0.223528         3
         3         4        16        15     9      180.000000       -0.227738         4
         3         4        16        17     9        0.000000        0.033883         1
         3         4        16        17     9      180.000000        3.361890         2
         3         4        16        17     9        0.000000        0.223528         3
         3         4        16        17     9      180.000000       -0.227738         4
         3        10         9         8     9        0.000000        0.232612         1
         3        10         9         8     9      180.000000       16.275058         2
         3        10         9         8     9        0.000000       -0.124352         3
         3        10         9         8     9      180.000000       -0.523931         4
         3        10         9        26     9        0.000000       -0.106497         1
         3        10         9        26     9      180.000000       13.277951         2
         3        10         9        26     9        0.000000       -0.290915         3
         3        10         9        26     9      180.000000        0.119119         4
         3        10        11        12     9        0.000000        0.256252         1
         3        10        11        12     9      180.000000       15.873478         2
         3        10        11        12     9        0.000000       -0.139112         3
         3        10        11        12     9      180.000000       -0.492248         4
         3        10        11        27     9        0.000000       -0.201818         1
         3        10        11        27     9      180.000000       12.638769         2
         3        10        11        27     9        0.000000       -0.348602         3
         3        10        11        27     9      180.000000        0.123558         4
         4         3        10         9     9        0.000000        0.040616         1
         4         3        10         9     9      180.000000        2.322566         2
         4         3        10         9     9        0.000000        0.123229         3
         4         3        10         9     9      180.000000       -0.166578         4
         4         3        10        11     9        0.000000        0.047405         1
         4         3        10        11     9      180.000000        2.395598         2
         4         3        10        11     9        0.000000        0.131809         3
         4         3        10        11     9      180.000000       -0.148238         4
         4         5         6        19     9        0.000000        0.844283         1
         4         5         6        19     9      180.000000       18.398514         2
         4         5         6        19     9        0.000000        0.300675         3
         4         5         6        19     9      180.000000       -1.336364         4
         4        16        15        14     9        0.000000        0.024643         1
         4        16        15        14     9      180.000000       15.492380         2
         4        16        15        14     9        0.000000       -0.319526         3
         4        16        15        14     9      180.000000       -0.343056         4
         4        16        15        29     9        0.000000       -0.109041         1
         4        16        15        29     9      180.000000       12.747555         2
         4        16        15        29     9        0.000000       -0.282992         3
         4        16        15        29     9      180.000000        0.131536         4
         4        16        17        18     9        0.000000        0.024643         1
         4        16        17        18     9      180.000000       15.492380         2
         4        16        17        18     9        0.000000       -0.319527         3
         4        16        17        18     9      180.000000       -0.343056         4
         4        16        17        30     9        0.000000       -0.109041         1
         4        16        17        30     9      180.000000       12.747555         2
         4        16        17        30     9        0.000000       -0.282992         3
         4        16        17        30     9      180.000000        0.131536         4
         5         4         3        10     9        0.000000       -1.389612         1
         5         4         3        10     9      180.000000        5.513986         2
         5         4         3        10     9        0.000000       -0.212430         3
         5         4         3        10     9      180.000000       -0.766503         4
         5         4        16        15     9        0.000000       -0.089053         1
         5         4        16        15     9      180.000000        4.791460         2
         5         4        16        15     9        0.000000       -0.024060         3
         5         4        16        15     9      180.000000        0.205188         4
         5         4        16        17     9        0.000000       -0.089053         1
         5         4        16        17     9      180.000000        4.791460         2
         5         4        16        17     9        0.000000       -0.024060         3
         5         4        16        17     9      180.000000        0.205188         4
         5         6        19        32     9        0.000000        1.716704         1
         5         6        19        32     9      180.000000        8.533549         2
         5         6        19        32     9        0.000000       -0.306059         3
         5         6        19        32     9      180.000000       -0.822715         4
         5         6        19        33     9        0.000000        1.716704         1
         5         6        19        33     9      180.000000        8.533549         2
         5         6        19        33     9        0.000000       -0.306059         3
         5         6        19        33     9      180.000000       -0.822715         4
         6         5         4        16     9        0.000000        0.261148         1
         6         5         4        16     9      180.000000       20.337008         2
         6         5         4        16     9        0.000000        0.012323         3
         6         5         4        16     9      180.000000       -0.880111         4
         7         8         9        10     9        0.000000        0.116755         1
         7         8         9        10     9      180.000000       15.331052         2
         7         8         9        10     9        0.000000       -0.228323         3
         7         8         9        10     9      180.000000       -0.545518         4
         7         8         9        26     9        0.000000       -0.048645         1
         7         8         9        26     9      180.000000       12.272897         2
         7         8         9        26     9        0.000000       -0.230980         3
         7         8         9        26     9      180.000000       -0.172863         4
         7        12        11        10     9        0.000000        0.003904         1
         7        12        11        10     9      180.000000       17.686583         2
         7        12        11        10     9        0.000000       -0.885054         3
         7        12        11        10     9      180.000000       -0.663847         4
         7        12        11        27     9        0.000000        0.231899         1
         7        12        11        27     9      180.000000       12.817987         2
         7        12        11        27     9        0.000000       -0.207313         3
         7        12        11        27     9      180.000000       -0.135145         4
         7        12        20        23     9        0.000000       -0.048197         1
         7        12        20        23     9      180.000000        0.248112         2
         7        12        20        23     9        0.000000        0.569124         3
         7        12        20        23     9      180.000000       -0.067669         4
         7        12        20        24     9        0.000000       -0.048197         1
         7        12        20        24     9      180.000000        0.248112         2
         7        12        20        24     9        0.000000        0.569124         3
         7        12        20        24     9      180.000000       -0.067669         4
         7        12        20        25     9        0.000000       -0.048197         1
         7        12        20        25     9      180.000000        0.248112         2
         7        12        20        25     9        0.000000        0.569124         3
         7        12        20        25     9      180.000000       -0.067669         4
         8         7        12        11     9        0.000000       -0.074653         1
         8         7        12        11     9      180.000000       22.078345         2
         8         7        12        11     9        0.000000       -1.118473         3
         8         7        12        11     9      180.000000        0.085575         4
         8         7        12        20     9        0.000000        2.070730         1
         8         7        12        20     9      180.000000       20.993218         2
         8         7        12        20     9        0.000000        1.421320         3
         8         7        12        20     9      180.000000       -0.809865         4
         8         9        10        11     9        0.000000       -0.465723         1
         8         9        10        11     9      180.000000       18.940826         2
         8         9        10        11     9        0.000000       -1.657212         3
         8         9        10        11     9      180.000000       -0.469206         4
         9         8         7        12     9        0.000000        0.255217         1
         9         8         7        12     9      180.000000       21.828930         2
         9         8         7        12     9        0.000000       -0.048280         3
         9         8         7        12     9      180.000000       -0.253738         4
         9        10        11        12     9        0.000000       -0.108817         1
         9        10        11        12     9      180.000000       18.429234         2
         9        10        11        12     9        0.000000       -1.619762         3
         9        10        11        12     9      180.000000       -0.543621         4
         9        10        11        27     9        0.000000       -0.003830         1
         9        10        11        27     9      180.000000       14.065896         2
         9        10        11        27     9        0.000000       -0.534686         3
         9        10        11        27     9      180.000000       -0.004815         4
        10         3         4        16     9        0.000000        1.098779         1
        10         3         4        16     9      180.000000        6.540794         2
        10         3         4        16     9        0.000000        0.269285         3
        10         3         4        16     9      180.000000       -0.683486         4
        10         9         8        21     9        0.000000        0.319911         1
        10         9         8        21     9      180.000000       16.793055         2
        10         9         8        21     9        0.000000        0.326479         3
        10         9         8        21     9      180.000000       -0.597380         4
        10        11        12        20     9        0.000000        0.404385         1
        10        11        12        20     9      180.000000       14.519677         2
        10        11        12        20     9        0.000000        0.311127         3
        10        11        12        20     9      180.000000       -0.371479         4
        11        10         9        26     9        0.000000       -0.052552         1
        11        10         9        26     9      180.000000       14.693643         2
        11        10         9        26     9        0.000000       -0.551893         3
        11        10         9        26     9      180.000000        0.058803         4
        11        12        20        23     9        0.000000       -0.181098         1
        11        12        20        23     9      180.000000        0.102826         2
        11        12        20        23     9        0.000000       -0.188920         3
        11        12        20        23     9      180.000000        0.005133         4
        11        12        20        24     9        0.000000       -0.181098         1
        11        12        20        24     9      180.000000        0.102826         2
        11        12        20        24     9        0.000000       -0.188920         3
        11        12        20        24     9      180.000000        0.005133         4
        11        12        20        25     9        0.000000       -0.181098         1
        11        12        20        25     9      180.000000        0.102826         2
        11        12        20        25     9        0.000000       -0.188920         3
        11        12        20        25     9      180.000000        0.005133         4
        12         7         8        21     9        0.000000        0.406675         1
        12         7         8        21     9      180.000000       28.784684         2
        12         7         8        21     9        0.000000        0.691452         3
        12         7         8        21     9      180.000000       -1.138556         4
        13        14        15        16     9        0.000000       -0.072732         1
        13        14        15        16     9      180.000000       19.006552         2
        13        14        15        16     9        0.000000       -1.552796         3
        13        14        15        16     9      180.000000       -0.489000         4
        13        14        15        29     9        0.000000        0.193489         1
        13        14        15        29     9      180.000000       15.624196         2
        13        14        15        29     9        0.000000       -0.626033         3
        13        14        15        29     9      180.000000        0.006650         4
        13        18        17        16     9        0.000000       -0.072732         1
        13        18        17        16     9      180.000000       19.006552         2
        13        18        17        16     9        0.000000       -1.552796         3
        13        18        17        16     9      180.000000       -0.489001         4
        13        18        17        30     9        0.000000        0.193488         1
        13        18        17        30     9      180.000000       15.624197         2
        13        18        17        30     9        0.000000       -0.626033         3
        13        18        17        30     9      180.000000        0.006650         4
        14        13        18        17     9        0.000000       -0.088133         1
        14        13        18        17     9      180.000000       16.854223         2
        14        13        18        17     9        0.000000       -1.112964         3
        14        13        18        17     9      180.000000       -0.302065         4
        14        13        18        31     9        0.000000        0.120875         1
        14        13        18        31     9      180.000000       12.740692         2
        14        13        18        31     9        0.000000       -0.493004         3
        14        13        18        31     9      180.000000        0.142513         4
        14        15        16        17     9        0.000000       -0.063052         1
        14        15        16        17     9      180.000000       18.637705         2
        14        15        16        17     9        0.000000       -1.312291         3
        14        15        16        17     9      180.000000       -0.441376         4
        15        14        13        18     9        0.000000       -0.088133         1
        15        14        13        18     9      180.000000       16.854223         2
        15        14        13        18     9        0.000000       -1.112964         3
        15        14        13        18     9      180.000000       -0.302065         4
        15        14        13        22     9        0.000000        0.450681         1
        15        14        13        22     9      180.000000       22.344320         2
        15        14        13        22     9        0.000000        0.466479         3
        15        14        13        22     9      180.000000       -0.561975         4
        15        16        17        18     9        0.000000       -0.063052         1
        15        16        17        18     9      180.000000       18.637705         2
        15        16        17        18     9        0.000000       -1.312291         3
        15        16        17        18     9      180.000000       -0.441376         4
        15        16        17        30     9        0.000000        0.080620         1
        15        16        17        30     9      180.000000       14.075797         2
        15        16        17        30     9        0.000000       -0.553923         3
        15        16        17        30     9      180.000000        0.042638         4
        16        15        14        28     9        0.000000        0.049074         1
        16        15        14        28     9      180.000000       14.480409         2
        16        15        14        28     9        0.000000       -0.462804         3
        16        15        14        28     9      180.000000        0.045911         4
        16        17        18        31     9        0.000000        0.049073         1
        16        17        18        31     9      180.000000       14.480411         2
        16        17        18        31     9        0.000000       -0.462803         3
        16        17        18        31     9      180.000000        0.045911         4
        17        16        15        29     9        0.000000        0.080620         1
        17        16        15        29     9      180.000000       14.075797         2
        17        16        15        29     9        0.000000       -0.553923         3
        17        16        15        29     9      180.000000        0.042638         4
        17        18        13        22     9        0.000000        0.450681         1
        17        18        13        22     9      180.000000       22.344320         2
        17        18        13        22     9        0.000000        0.466479         3
        17        18        13        22     9      180.000000       -0.561976         4
        18        13        14        28     9        0.000000        0.120875         1
        18        13        14        28     9      180.000000       12.740693         2
        18        13        14        28     9        0.000000       -0.493004         3
        18        13        14        28     9      180.000000        0.142513         4
        20        12        11        27     9        0.000000        0.125939         1
        20        12        11        27     9      180.000000       11.994365         2
        20        12        11        27     9        0.000000       -0.198005         3
        20        12        11        27     9      180.000000        0.081445         4
        21         8         9        26     9        0.000000        0.111592         1
        21         8         9        26     9      180.000000       12.879879         2
        21         8         9        26     9        0.000000       -0.199120         3
        21         8         9        26     9      180.000000        0.118383         4
        22        13        14        28     9        0.000000        0.255173         1
        22        13        14        28     9      180.000000       15.641237         2
        22        13        14        28     9        0.000000        0.316514         3
        22        13        14        28     9      180.000000        0.163078         4
        22        13        18        31     9        0.000000        0.255173         1
        22        13        18        31     9      180.000000       15.641234         2
        22        13        18        31     9        0.000000        0.316514         3
        22        13        18        31     9      180.000000        0.163079         4
        28        14        15        29     9        0.000000       -0.157380         1
        28        14        15        29     9      180.000000       12.153444         2
        28        14        15        29     9        0.000000       -0.741825         3
        28        14        15        29     9      180.000000        0.224684         4
        30        17        18        31     9        0.000000       -0.157380         1
        30        17        18        31     9      180.000000       12.153443         2
        30        17        18        31     9        0.000000       -0.741826         3
        30        17        18        31     9      180.000000        0.224684         4

[ dihedrals ] ; impropers
;       ai        aj        ak        al funct           phase               k        pn
         4         3         5        16     4      180.000000       10.636678         2
         4         5        16         3     4      180.000000       10.636678         2
         4        16         3         5     4      180.000000       10.636678         2
         6         1         5        19     4      180.000000        5.578667         2
         6         5        19         1     4      180.000000        5.578667         2
         6        19         1         5     4      180.000000        5.578667         2
         8         7         9        21     4      180.000000       10.313142         2
         8         9        21         7     4      180.000000       10.313142         2
         8        21         7         9     4      180.000000       10.313142         2
         9         8        10        26     4      180.000000        0.422475         2
         9        10        26         8     4      180.000000        0.422475         2
         9        26         8        10     4      180.000000        0.422475         2
        13        14        18        22     4      180.000000        1.806017         2
        13        18        22        14     4      180.000000        1.806017         2
        13        22        14        18     4      180.000000        1.806017         2
        14        13        15        28     4      180.000000        4.174853         2
        14        15        28        13     4      180.000000        4.174853         2
        14        28        13        15     4      180.000000        4.174853         2
        15        14        16        29     4      180.000000        1.807382         2
        15        16        29        14     4      180.000000        1.807382         2
        15        29        14        16     4      180.000000        1.807382         2
        17        16        18        30     4      180.000000        1.807381         2
        17        18        30        16     4      180.000000        1.807381         2
        17        30        16        18     4      180.000000        1.807381         2
        18        13        17        31     4      180.000000        4.174853         2
        18        17        31        13     4      180.000000        4.174853         2
        18        31        13        17     4      180.000000        4.174853         2

[ pairs ]
;       ai        aj funct
         1         4     1
         1        10     1
         1        32     1
         1        33     1
         2         5     1
         2         9     1
         2        11     1
         2        16     1
         2        19     1
         3         6     1
         3         8     1
         3        12     1
         3        15     1
         3        17     1
         3        26     1
         3        27     1
         4         9     1
         4        11     1
         4        14     1
         4        18     1
         4        19     1
         4        29     1
         4        30     1
         5        10     1
         5        15     1
         5        17     1
         5        32     1
         5        33     1
         6        16     1
         7        10     1
         7        23     1
         7        24     1
         7        25     1
         7        26     1
         7        27     1
         8        11     1
         8        20     1
         9        12     1
         9        27     1
        10        16     1
        10        20     1
        10        21     1
        11        23     1
        11        24     1
        11        25     1
        11        26     1
        12        21     1
        13        16     1
        13        29     1
        13        30     1
        14        17     1
        14        31     1
        15        18     1
        15        22     1
        15        30     1
        16        28     1
        16        31     1
        17        22     1
        17        29     1
        18        28     1
        20        27     1
        21        26     1
        22        28     1
        22        31     1
        28        29     1
        30        31     1
