Generated by PDBParser
57
    1SOL     OW    1   3.045   0.789   0.067
    1SOL    HW1    2   3.038   0.722  -0.007
    1SOL    HW2    3   3.001   0.754   0.149
    2SOL     OW    4   2.938   0.685  -0.625
    2SOL    HW1    5   2.884   0.769  -0.627
    2SOL    HW2    6   2.897   0.617  -0.685
    3SOL     OW    7  -0.710  -0.562   0.653
    3SOL    HW1    8  -0.675  -0.633   0.593
    3SOL    HW2    9  -0.752  -0.604   0.734
    4SOL     OW   10   3.311   0.689  -0.244
    4SOL    HW1   11   3.262   0.771  -0.275
    4SOL    HW2   12   3.359   0.708  -0.159
    5SOL     OW   13   3.542   0.775  -0.432
    5SOL    HW1   14   3.522   0.819  -0.520
    5SOL    HW2   15   3.597   0.837  -0.376
    6SOL     OW   16   2.759   0.521  -0.955
    6SOL    HW1   17   2.814   0.503  -0.874
    6SOL    HW2   18   2.734   0.618  -0.956
    7SOL     OW   19   3.642   0.805  -0.170
    7SOL    HW1   20   3.730   0.758  -0.162
    7SOL    HW2   21   3.578   0.765  -0.105
    8SOL     OW   22  -1.125  -0.060   0.368
    8SOL    HW1   23  -1.072   0.014   0.408
    8SOL    HW2   24  -1.121  -0.055   0.268
    9SOL     OW   25   2.981   1.108  -0.740
    9SOL    HW1   26   2.911   1.047  -0.702
    9SOL    HW2   27   2.939   1.171  -0.805
   10SOL     OW   28   3.371   1.103  -0.119
   10SOL    HW1   29   3.311   1.053  -0.182
   10SOL    HW2   30   3.446   1.044  -0.090
   11SOL     OW   31   2.002  -0.713   0.057
   11SOL    HW1   32   1.939  -0.658   0.113
   11SOL    HW2   33   2.095  -0.701   0.091
   12SOL     OW   34   1.893   0.401   0.368
   12SOL    HW1   35   1.800   0.374   0.396
   12SOL    HW2   36   1.956   0.326   0.386
   13SOL     OW   37   0.866  -0.099   0.204
   13SOL    HW1   38   0.946  -0.058   0.249
   13SOL    HW2   39   0.866  -0.197   0.221
   14SOL     OW   40   1.771  -1.039   0.179
   14SOL    HW1   41   1.727  -1.120   0.219
   14SOL    HW2   42   1.768  -1.046   0.079
   15SOL     OW   43   1.289  -0.022  -0.513
   15SOL    HW1   44   1.359   0.027  -0.564
   15SOL    HW2   45   1.306  -0.012  -0.415
   16SOL     OW   46   1.485   0.114  -0.656
   16SOL    HW1   47   1.579   0.094  -0.686
   16SOL    HW2   48   1.428   0.132  -0.736
   17SOL     OW   49   1.851  -0.875  -0.124
   17SOL    HW1   50   1.904  -0.818  -0.060
   17SOL    HW2   51   1.885  -0.970  -0.119
   18SOL     OW   52   1.567   0.515   0.252
   18SOL    HW1   53   1.591   0.448   0.322
   18SOL    HW2   54   1.566   0.472   0.162
   19SOL     OW   55   0.855  -0.362   0.244
   19SOL    HW1   56   0.893  -0.384   0.334
   19SOL    HW2   57   0.909  -0.408   0.173
    4.7303    4.7303    4.7303
