; ITP file created by ByteFF-joint-25, 2025-07-14 11:32:22.508676

[ atomtypes ]
;name           bonded.type        at.num        mass        charge   ptype           sigma         epsilon
 c0bf                                   6      0.0000       0.00000       A     3.39760e-01     4.50990e-01    ;  uncertainty sigma = 0.000006, epsilon = 0.000612
 c1bf                                   6      0.0000       0.00000       A     3.31520e-01     4.13223e-01    ;  uncertainty sigma = 0.000006, epsilon = 0.000891
 n2bf                                   7      0.0000       0.00000       A     3.38399e-01     3.93152e-01    ;  uncertainty sigma = 0.000008, epsilon = 0.000718
 c3bf                                   6      0.0000       0.00000       A     3.31542e-01     4.12842e-01    ;  uncertainty sigma = 0.000021, epsilon = 0.000763
 c4bf                                   6      0.0000       0.00000       A     3.31499e-01     4.13193e-01    ;  uncertainty sigma = 0.000010, epsilon = 0.000828
 o5bf                                   8      0.0000       0.00000       A     3.15622e-01     3.04219e-01    ;  uncertainty sigma = 0.000020, epsilon = 0.000947
 c6bf                                   6      0.0000       0.00000       A     3.31543e-01     4.12794e-01    ;  uncertainty sigma = 0.000014, epsilon = 0.000754
 o7bf                                   8      0.0000       0.00000       A     3.04824e-01     6.12922e-01    ;  uncertainty sigma = 0.000013, epsilon = 0.000979
 n8bf                                   7      0.0000       0.00000       A     3.26982e-01     4.90784e-01    ;  uncertainty sigma = 0.000015, epsilon = 0.001344
 c9bf                                   6      0.0000       0.00000       A     3.31517e-01     4.13287e-01    ;  uncertainty sigma = 0.000009, epsilon = 0.000936
 c10bf                                  6      0.0000       0.00000       A     3.31527e-01     4.13349e-01    ;  uncertainty sigma = 0.000006, epsilon = 0.000432
 c11bf                                  6      0.0000       0.00000       A     3.31530e-01     4.13226e-01    ;  uncertainty sigma = 0.000003, epsilon = 0.000619
 c12bf                                  6      0.0000       0.00000       A     3.31546e-01     4.12950e-01    ;  uncertainty sigma = 0.000012, epsilon = 0.000221
 f13bf                                  9      0.0000       0.00000       A     3.03457e-01     3.47820e-01    ;  uncertainty sigma = 0.000024, epsilon = 0.001496
 c14bf                                  6      0.0000       0.00000       A     3.31476e-01     4.13991e-01    ;  uncertainty sigma = 0.000010, epsilon = 0.001399
 c15bf                                  6      0.0000       0.00000       A     3.31531e-01     4.13820e-01    ;  uncertainty sigma = 0.000013, epsilon = 0.001141
 c16bf                                  6      0.0000       0.00000       A     3.39814e-01     4.51098e-01    ;  uncertainty sigma = 0.000025, epsilon = 0.003336
 c17bf                                  6      0.0000       0.00000       A     3.39761e-01     4.50765e-01    ;  uncertainty sigma = 0.000009, epsilon = 0.001200
 c18bf                                  6      0.0000       0.00000       A     3.39741e-01     4.51120e-01    ;  uncertainty sigma = 0.000021, epsilon = 0.001041
 c19bf                                  6      0.0000       0.00000       A     3.31519e-01     4.13467e-01    ;  uncertainty sigma = 0.000015, epsilon = 0.001385
 o20bf                                  8      0.0000       0.00000       A     3.04866e-01     6.11575e-01    ;  uncertainty sigma = 0.000029, epsilon = 0.000747
 n21bf                                  7      0.0000       0.00000       A     3.18045e-01     6.86715e-01    ;  uncertainty sigma = 0.000056, epsilon = 0.002911
 c22bf                                  6      0.0000       0.00000       A     3.39779e-01     4.50875e-01    ;  uncertainty sigma = 0.000010, epsilon = 0.001294
 c23bf                                  6      0.0000       0.00000       A     3.31514e-01     4.11760e-01    ;  uncertainty sigma = 0.000063, epsilon = 0.001890
 n24bf                                  7      0.0000       0.00000       A     3.36760e-01     4.69957e-01    ;  uncertainty sigma = 0.000090, epsilon = 0.002477
 n25bf                                  7      0.0000       0.00000       A     3.27884e-01     6.44716e-01    ;  uncertainty sigma = 0.000149, epsilon = 0.009705
 h26bf                                  1      0.0000       0.00000       A     2.60034e-01     8.67441e-02    ;  uncertainty sigma = 0.000007, epsilon = 0.000401
 h27bf                                  1      0.0000       0.00000       A     2.60034e-01     8.67441e-02    ;  uncertainty sigma = 0.000007, epsilon = 0.000401
 h28bf                                  1      0.0000       0.00000       A     2.60034e-01     8.67441e-02    ;  uncertainty sigma = 0.000007, epsilon = 0.000401
 h29bf                                  1      0.0000       0.00000       A     2.53614e-01     6.73222e-02    ;  uncertainty sigma = 0.000044, epsilon = 0.000326
 h30bf                                  1      0.0000       0.00000       A     1.10669e-01     4.16244e-02    ;  uncertainty sigma = 0.000076, epsilon = 0.001044
 h31bf                                  1      0.0000       0.00000       A     2.62560e-01     6.69889e-02    ;  uncertainty sigma = 0.000013, epsilon = 0.000439
 h32bf                                  1      0.0000       0.00000       A     2.62565e-01     6.69913e-02    ;  uncertainty sigma = 0.000012, epsilon = 0.000401
 h33bf                                  1      0.0000       0.00000       A     2.62560e-01     6.69861e-02    ;  uncertainty sigma = 0.000013, epsilon = 0.000605
 h34bf                                  1      0.0000       0.00000       A     2.60004e-01     8.68723e-02    ;  uncertainty sigma = 0.000016, epsilon = 0.000482
 h35bf                                  1      0.0000       0.00000       A     2.60004e-01     8.68723e-02    ;  uncertainty sigma = 0.000016, epsilon = 0.000482
 h36bf                                  1      0.0000       0.00000       A     2.60004e-01     8.68723e-02    ;  uncertainty sigma = 0.000016, epsilon = 0.000482
 h37bf                                  1      0.0000       0.00000       A     2.59995e-01     8.70719e-02    ;  uncertainty sigma = 0.000025, epsilon = 0.001286
 h38bf                                  1      0.0000       0.00000       A     2.59995e-01     8.70719e-02    ;  uncertainty sigma = 0.000025, epsilon = 0.001286
 h39bf                                  1      0.0000       0.00000       A     2.42164e-01     8.70780e-02    ;  uncertainty sigma = 0.000026, epsilon = 0.000567
 h40bf                                  1      0.0000       0.00000       A     2.42164e-01     8.70780e-02    ;  uncertainty sigma = 0.000026, epsilon = 0.000567
 h41bf                                  1      0.0000       0.00000       A     2.42164e-01     8.70780e-02    ;  uncertainty sigma = 0.000026, epsilon = 0.000567
 h42bf                                  1      0.0000       0.00000       A     1.10673e-01     4.15035e-02    ;  uncertainty sigma = 0.000108, epsilon = 0.001195
 h43bf                                  1      0.0000       0.00000       A     1.10673e-01     4.15035e-02    ;  uncertainty sigma = 0.000108, epsilon = 0.001195
 h44bf                                  1      0.0000       0.00000       A     1.10625e-01     4.07568e-02    ;  uncertainty sigma = 0.000197, epsilon = 0.002094

[ moleculetype ]
;name             nrexcl
 MOL                   3

[ atoms ]
;       nr            type      resi   res      atom      cgnr      charge          mass ; qtot
         1            c0bf         1   UNL        c0         1    -0.11948       12.0110 ; qtot   -0.119
         2            c1bf         1   UNL        c1         2     0.49413       12.0110 ; qtot    0.375
         3            n2bf         1   UNL        n2         3    -0.65891       14.0070 ; qtot   -0.284
         4            c3bf         1   UNL        c3         4     0.17210       12.0110 ; qtot   -0.112
         5            c4bf         1   UNL        c4         5     0.21350       12.0110 ; qtot    0.101
         6            o5bf         1   UNL        o5         6    -0.36191       15.9990 ; qtot   -0.261
         7            c6bf         1   UNL        c6         7     0.61288       12.0110 ; qtot    0.352
         8            o7bf         1   UNL        o7         8    -0.57147       15.9990 ; qtot   -0.219
         9            n8bf         1   UNL        n8         9    -0.47075       14.0070 ; qtot   -0.690
        10            c9bf         1   UNL        c9        10     0.07680       12.0110 ; qtot   -0.613
        11           c10bf         1   UNL       c10        11    -0.12676       12.0110 ; qtot   -0.740
        12           c11bf         1   UNL       c11        12    -0.11332       12.0110 ; qtot   -0.853
        13           c12bf         1   UNL       c12        13     0.11635       12.0110 ; qtot   -0.737
        14           f13bf         1   UNL       f13        14    -0.14859       18.9980 ; qtot   -0.885
        15           c14bf         1   UNL       c14        15    -0.14552       12.0110 ; qtot   -1.031
        16           c15bf         1   UNL       c15        16    -0.11058       12.0110 ; qtot   -1.142
        17           c16bf         1   UNL       c16        17     0.15193       12.0110 ; qtot   -0.990
        18           c17bf         1   UNL       c17        18    -0.11350       12.0110 ; qtot   -1.103
        19           c18bf         1   UNL       c18        19    -0.17413       12.0110 ; qtot   -1.277
        20           c19bf         1   UNL       c19        20     0.71609       12.0110 ; qtot   -0.561
        21           o20bf         1   UNL       o20        21    -0.46646       15.9990 ; qtot   -1.028
        22           n21bf         1   UNL       n21        22    -0.43756       14.0070 ; qtot   -1.465
        23           c22bf         1   UNL       c22        23     0.04963       12.0110 ; qtot   -1.416
        24           c23bf         1   UNL       c23        24     0.48213       12.0110 ; qtot   -0.933
        25           n24bf         1   UNL       n24        25    -0.50478       14.0070 ; qtot   -1.438
        26           n25bf         1   UNL       n25        26    -0.38668       14.0070 ; qtot   -1.825
        27           h26bf         1   UNL       h26        27     0.06699        1.0080 ; qtot   -1.758
        28           h27bf         1   UNL       h27        28     0.06699        1.0080 ; qtot   -1.691
        29           h28bf         1   UNL       h28        29     0.06699        1.0080 ; qtot   -1.624
        30           h29bf         1   UNL       h29        30     0.07809        1.0080 ; qtot   -1.546
        31           h30bf         1   UNL       h30        31     0.33947        1.0080 ; qtot   -1.206
        32           h31bf         1   UNL       h31        32     0.15941        1.0080 ; qtot   -1.047
        33           h32bf         1   UNL       h32        33     0.16630        1.0080 ; qtot   -0.881
        34           h33bf         1   UNL       h33        34     0.16378        1.0080 ; qtot   -0.717
        35           h34bf         1   UNL       h34        35     0.07196        1.0080 ; qtot   -0.645
        36           h35bf         1   UNL       h35        36     0.07196        1.0080 ; qtot   -0.573
        37           h36bf         1   UNL       h36        37     0.07196        1.0080 ; qtot   -0.501
        38           h37bf         1   UNL       h37        38     0.11749        1.0080 ; qtot   -0.383
        39           h38bf         1   UNL       h38        39     0.11749        1.0080 ; qtot   -0.266
        40           h39bf         1   UNL       h39        40     0.08943        1.0080 ; qtot   -0.177
        41           h40bf         1   UNL       h40        41     0.08943        1.0080 ; qtot   -0.087
        42           h41bf         1   UNL       h41        42     0.08943        1.0080 ; qtot    0.002
        43           h42bf         1   UNL       h42        43     0.33098        1.0080 ; qtot    0.333
        44           h43bf         1   UNL       h43        44     0.33098        1.0080 ; qtot    0.664
        45           h44bf         1   UNL       h44        45     0.33573        1.0080 ; qtot    1.000

[ bonds ]
;       ai        aj funct               r               k
         1         2     1        0.148975   250218.803174    ;  uncertainty r = 0.000030, k = 6.085905
         1        27     1        0.109406   312697.358691    ;  uncertainty r = 0.000018, k = 1.370946
         1        28     1        0.109406   312697.358691    ;  uncertainty r = 0.000018, k = 1.370946
         1        29     1        0.109406   312697.358691    ;  uncertainty r = 0.000018, k = 1.370946
         2         3     1        0.130047   444077.767773    ;  uncertainty r = 0.000019, k = 8.542509
         2         6     1        0.137485   264697.705762    ;  uncertainty r = 0.000105, k = 18.917574
         3         4     1        0.139424   306133.810840    ;  uncertainty r = 0.000101, k = 10.889644
         4         5     1        0.136651   433151.255859    ;  uncertainty r = 0.000104, k = 7.057387
         4         7     1        0.148022   267200.240332    ;  uncertainty r = 0.000109, k = 9.363430
         5         6     1        0.136846   322949.690918    ;  uncertainty r = 0.000127, k = 13.178989
         5        30     1        0.108017   342507.464893    ;  uncertainty r = 0.000044, k = 2.041436
         7         8     1        0.123343   681575.030078    ;  uncertainty r = 0.000069, k = 5.512657
         7         9     1        0.137378   295167.231201    ;  uncertainty r = 0.000064, k = 6.105953
         9        10     1        0.140455   321653.708154    ;  uncertainty r = 0.000130, k = 10.034195
         9        31     1        0.101858   421684.685156    ;  uncertainty r = 0.000054, k = 3.365247
        10        11     1        0.140092   351806.650049    ;  uncertainty r = 0.000060, k = 3.782372
        10        16     1        0.140063   350608.908545    ;  uncertainty r = 0.000127, k = 6.076257
        11        12     1        0.138917   379002.496826    ;  uncertainty r = 0.000028, k = 4.480775
        11        32     1        0.108598   335925.326025    ;  uncertainty r = 0.000023, k = 2.803984
        12        13     1        0.138815   358758.923779    ;  uncertainty r = 0.000063, k = 5.580489
        12        33     1        0.108729   335202.676904    ;  uncertainty r = 0.000007, k = 1.041243
        13        14     1        0.136423   335134.135303    ;  uncertainty r = 0.000047, k = 5.847091
        13        15     1        0.139301   340628.725293    ;  uncertainty r = 0.000147, k = 7.009157
        15        16     1        0.139249   346702.573535    ;  uncertainty r = 0.000129, k = 5.081214
        15        17     1        0.151440   214005.266797    ;  uncertainty r = 0.000236, k = 16.363230
        16        34     1        0.108642   335237.790430    ;  uncertainty r = 0.000043, k = 2.891774
        17        18     1        0.153374   201429.734351    ;  uncertainty r = 0.000097, k = 8.556031
        17        19     1        0.153159   203928.157446    ;  uncertainty r = 0.000115, k = 13.365503
        17        26     1        0.149031   230523.818311    ;  uncertainty r = 0.000216, k = 24.317645
        18        35     1        0.109424   311928.487402    ;  uncertainty r = 0.000009, k = 2.894249
        18        36     1        0.109424   311928.487402    ;  uncertainty r = 0.000009, k = 2.894249
        18        37     1        0.109424   311928.487402    ;  uncertainty r = 0.000009, k = 2.894249
        19        20     1        0.151045   203840.067187    ;  uncertainty r = 0.000198, k = 13.413440
        19        38     1        0.109430   314471.421680    ;  uncertainty r = 0.000052, k = 2.778283
        19        39     1        0.109430   314471.421680    ;  uncertainty r = 0.000052, k = 2.778283
        20        21     1        0.120581   655340.349023    ;  uncertainty r = 0.000199, k = 21.290051
        20        22     1        0.143746   253678.775049    ;  uncertainty r = 0.000164, k = 80.639901
        22        23     1        0.147324   251134.231934    ;  uncertainty r = 0.000154, k = 24.190212
        22        24     1        0.136207   289370.511670    ;  uncertainty r = 0.000285, k = 39.958229
        23        40     1        0.109123   307429.053027    ;  uncertainty r = 0.000028, k = 2.127598
        23        41     1        0.109123   307429.053027    ;  uncertainty r = 0.000028, k = 2.127598
        23        42     1        0.109123   307429.053027    ;  uncertainty r = 0.000028, k = 2.127598
        24        25     1        0.134544   307986.936719    ;  uncertainty r = 0.000201, k = 58.704459
        24        26     1        0.133564   557221.463086    ;  uncertainty r = 0.000241, k = 55.754630
        25        43     1        0.101295   419556.933203    ;  uncertainty r = 0.000047, k = 11.267079
        25        44     1        0.101295   419556.933203    ;  uncertainty r = 0.000047, k = 11.267079
        26        45     1        0.101560   439225.512695    ;  uncertainty r = 0.000134, k = 8.127176

[ angles ]
;       ai        aj        ak funct           theta             cth
         1         2         3     1      130.197037      389.809163    ;  uncertainty theta = 0.001992, k = 0.097510
         1         2         6     1      117.254173      426.317525    ;  uncertainty theta = 0.001993, k = 0.149462
         2         1        27     1      108.620682      400.712647    ;  uncertainty theta = 0.000704, k = 0.089199
         2         1        28     1      108.620682      400.712647    ;  uncertainty theta = 0.000704, k = 0.089199
         2         1        29     1      108.620682      400.712647    ;  uncertainty theta = 0.000704, k = 0.089199
         2         3         4     1      105.825546      813.435460    ;  uncertainty theta = 0.004010, k = 0.139226
         2         6         5     1      107.088295     1032.357565    ;  uncertainty theta = 0.002544, k = 0.085196
         3         2         6     1      114.109497      825.532134    ;  uncertainty theta = 0.000837, k = 0.233798
         3         4         5     1      110.030746      797.213778    ;  uncertainty theta = 0.004899, k = 0.304097
         3         4         7     1      120.612427      359.110238    ;  uncertainty theta = 0.002086, k = 0.089962
         4         5         6     1      108.836449      733.116910    ;  uncertainty theta = 0.002955, k = 0.328117
         4         5        30     1      132.448395      199.168066    ;  uncertainty theta = 0.002959, k = 0.391347
         4         7         8     1      122.079697      500.450924    ;  uncertainty theta = 0.003135, k = 0.136169
         4         7         9     1      112.504868      462.419656    ;  uncertainty theta = 0.004018, k = 0.155612
         5         4         7     1      126.496117      301.739015    ;  uncertainty theta = 0.006189, k = 0.599060
         6         5        30     1      114.644020      283.342049    ;  uncertainty theta = 0.005048, k = 0.154921
         7         9        10     1      117.450211      444.497968    ;  uncertainty theta = 0.004253, k = 0.072537
         7         9        31     1      117.155945      345.634369    ;  uncertainty theta = 0.004674, k = 0.116537
         8         7         9     1      122.924522      767.116507    ;  uncertainty theta = 0.002810, k = 0.099200
         9        10        11     1      119.983292      516.711998    ;  uncertainty theta = 0.003752, k = 0.115406
         9        10        16     1      119.204773      516.872722    ;  uncertainty theta = 0.006171, k = 0.090653
        10         9        31     1      113.318642      317.021123    ;  uncertainty theta = 0.006134, k = 0.122142
        10        11        12     1      118.855431      498.931274    ;  uncertainty theta = 0.002554, k = 0.112300
        10        11        32     1      118.897217      265.687416    ;  uncertainty theta = 0.001182, k = 0.056500
        10        16        15     1      122.304504      499.147925    ;  uncertainty theta = 0.002619, k = 0.170472
        10        16        34     1      118.530212      276.850420    ;  uncertainty theta = 0.002782, k = 0.070991
        11        10        16     1      120.330521      380.550876    ;  uncertainty theta = 0.008548, k = 0.201206
        11        12        13     1      119.714134      459.450393    ;  uncertainty theta = 0.002714, k = 0.250303
        11        12        33     1      121.220848      273.929103    ;  uncertainty theta = 0.003030, k = 0.017188
        12        11        32     1      120.296532      314.843702    ;  uncertainty theta = 0.001531, k = 0.081321
        12        13        14     1      118.368248      531.214969    ;  uncertainty theta = 0.002418, k = 0.194815
        12        13        15     1      124.818649      370.348098    ;  uncertainty theta = 0.007322, k = 0.227765
        13        12        33     1      119.769325      274.086220    ;  uncertainty theta = 0.001156, k = 0.041158
        13        15        16     1      121.758141      422.178566    ;  uncertainty theta = 0.004498, k = 0.138213
        13        15        17     1      116.958557      381.231759    ;  uncertainty theta = 0.007269, k = 0.198930
        14        13        15     1      115.651962      479.259018    ;  uncertainty theta = 0.002998, k = 0.033205
        15        16        34     1      117.306992      276.206981    ;  uncertainty theta = 0.005101, k = 0.131673
        15        17        18     1      110.898338      572.819772    ;  uncertainty theta = 0.005752, k = 0.148113
        15        17        19     1      109.839493      570.393491    ;  uncertainty theta = 0.006137, k = 0.132525
        15        17        26     1      107.829872      642.630249    ;  uncertainty theta = 0.005954, k = 0.224167
        16        15        17     1      117.800316      375.523161    ;  uncertainty theta = 0.005733, k = 0.133895
        17        18        35     1      107.176834      394.723461    ;  uncertainty theta = 0.002402, k = 0.117049
        17        18        36     1      107.176834      394.723461    ;  uncertainty theta = 0.002402, k = 0.117049
        17        18        37     1      107.176834      394.723461    ;  uncertainty theta = 0.002402, k = 0.117049
        17        19        20     1      111.158714      546.746064    ;  uncertainty theta = 0.007730, k = 0.197732
        17        19        38     1      107.364235      377.266293    ;  uncertainty theta = 0.004341, k = 0.139640
        17        19        39     1      107.364235      377.266293    ;  uncertainty theta = 0.004341, k = 0.139640
        17        26        24     1      120.614380      418.497711    ;  uncertainty theta = 0.007151, k = 0.291428
        17        26        45     1      114.810410      313.074427    ;  uncertainty theta = 0.008656, k = 0.327146
        18        17        19     1      109.611717      570.605769    ;  uncertainty theta = 0.002294, k = 0.110172
        18        17        26     1      108.368942      690.586003    ;  uncertainty theta = 0.004528, k = 0.153753
        19        17        26     1      106.007401      694.398949    ;  uncertainty theta = 0.008322, k = 0.225726
        19        20        21     1      126.717201      500.341753    ;  uncertainty theta = 0.007714, k = 0.227670
        19        20        22     1      113.646469      401.102503    ;  uncertainty theta = 0.002688, k = 0.212313
        20        19        38     1      105.847939      380.285928    ;  uncertainty theta = 0.004326, k = 0.106629
        20        19        39     1      105.847939      380.285928    ;  uncertainty theta = 0.004326, k = 0.106629
        20        22        23     1      115.926285      431.056798    ;  uncertainty theta = 0.006662, k = 0.129526
        20        22        24     1      122.278809      503.814129    ;  uncertainty theta = 0.010251, k = 0.447990
        21        20        22     1      121.239647      682.067398    ;  uncertainty theta = 0.006510, k = 0.206541
        22        23        40     1      107.559181      473.057746    ;  uncertainty theta = 0.001681, k = 0.126528
        22        23        41     1      107.559181      473.057746    ;  uncertainty theta = 0.001681, k = 0.126528
        22        23        42     1      107.559181      473.057746    ;  uncertainty theta = 0.001681, k = 0.126528
        22        24        25     1      120.606606      593.468568    ;  uncertainty theta = 0.003176, k = 0.306591
        22        24        26     1      121.642921      613.806067    ;  uncertainty theta = 0.006967, k = 0.493883
        23        22        24     1      115.143982      405.306007    ;  uncertainty theta = 0.007152, k = 0.306076
        24        25        43     1      115.149925      373.809047    ;  uncertainty theta = 0.003984, k = 0.186891
        24        25        44     1      115.149925      373.809047    ;  uncertainty theta = 0.003984, k = 0.186891
        24        26        45     1      116.509384      399.040285    ;  uncertainty theta = 0.012250, k = 0.308852
        25        24        26     1      124.262207      720.976057    ;  uncertainty theta = 0.011250, k = 0.233585
        27         1        28     1      107.101013      312.728654    ;  uncertainty theta = 0.000914, k = 0.016029
        27         1        29     1      107.101013      312.728654    ;  uncertainty theta = 0.000914, k = 0.016029
        28         1        29     1      107.101013      312.728654    ;  uncertainty theta = 0.000914, k = 0.016029
        35        18        36     1      106.052170      314.205465    ;  uncertainty theta = 0.001375, k = 0.026814
        35        18        37     1      106.052170      314.205465    ;  uncertainty theta = 0.001375, k = 0.026814
        36        18        37     1      106.052170      314.205465    ;  uncertainty theta = 0.001375, k = 0.026814
        38        19        39     1      107.444252      302.402277    ;  uncertainty theta = 0.001395, k = 0.127039
        40        23        41     1      107.420509      324.177100    ;  uncertainty theta = 0.003506, k = 0.110513
        40        23        42     1      107.420509      324.177100    ;  uncertainty theta = 0.003506, k = 0.110513
        41        23        42     1      107.420509      324.177100    ;  uncertainty theta = 0.003506, k = 0.110513
        43        25        44     1      112.138939      273.835413    ;  uncertainty theta = 0.016285, k = 0.318904

[ dihedrals ] ; propers for gromacs 4.5 or higher, use funct 9
;       ai        aj        ak        al funct           phase               k        pn
         1         2         3         4     9        0.000000        0.196625         1    ;  uncertainty k = 0.369320
         1         2         3         4     9      180.000000       17.661495         2    ;  uncertainty k = 0.726827
         1         2         3         4     9        0.000000        2.054031         3    ;  uncertainty k = 0.491760
         1         2         3         4     9      180.000000        1.092518         4    ;  uncertainty k = 0.347949
         1         2         6         5     9        0.000000        0.989644         1    ;  uncertainty k = 1.052215
         1         2         6         5     9      180.000000        8.156127         2    ;  uncertainty k = 0.715481
         1         2         6         5     9        0.000000        1.254739         3    ;  uncertainty k = 0.453085
         1         2         6         5     9      180.000000        0.439087         4    ;  uncertainty k = 0.410256
         2         3         4         5     9        0.000000        0.076682         1    ;  uncertainty k = 0.729775
         2         3         4         5     9      180.000000       13.638647         2    ;  uncertainty k = 0.788360
         2         3         4         5     9        0.000000       -6.153025         3    ;  uncertainty k = 0.492174
         2         3         4         5     9      180.000000        2.171214         4    ;  uncertainty k = 0.387870
         2         3         4         7     9        0.000000        1.650886         1    ;  uncertainty k = 1.436872
         2         3         4         7     9      180.000000        8.208684         2    ;  uncertainty k = 0.984556
         2         3         4         7     9        0.000000        1.759269         3    ;  uncertainty k = 0.325089
         2         3         4         7     9      180.000000        1.020660         4    ;  uncertainty k = 0.427884
         2         6         5         4     9        0.000000       -0.339297         1    ;  uncertainty k = 0.799770
         2         6         5         4     9      180.000000       13.405323         2    ;  uncertainty k = 0.468192
         2         6         5         4     9        0.000000       -6.594871         3    ;  uncertainty k = 0.991025
         2         6         5         4     9      180.000000        1.458618         4    ;  uncertainty k = 0.189601
         2         6         5        30     9        0.000000        0.346036         1    ;  uncertainty k = 0.516426
         2         6         5        30     9      180.000000        7.790758         2    ;  uncertainty k = 1.132573
         2         6         5        30     9        0.000000        1.105511         3    ;  uncertainty k = 0.633122
         2         6         5        30     9      180.000000        0.491713         4    ;  uncertainty k = 0.245031
         3         2         1        27     9        0.000000        0.776691         1    ;  uncertainty k = 0.423168
         3         2         1        27     9      180.000000        2.070080         2    ;  uncertainty k = 0.062452
         3         2         1        27     9        0.000000        0.427026         3    ;  uncertainty k = 0.090560
         3         2         1        27     9      180.000000        0.109364         4    ;  uncertainty k = 0.057705
         3         2         1        28     9        0.000000        0.776691         1    ;  uncertainty k = 0.423168
         3         2         1        28     9      180.000000        2.070080         2    ;  uncertainty k = 0.062452
         3         2         1        28     9        0.000000        0.427026         3    ;  uncertainty k = 0.090560
         3         2         1        28     9      180.000000        0.109364         4    ;  uncertainty k = 0.057705
         3         2         1        29     9        0.000000        0.776691         1    ;  uncertainty k = 0.423168
         3         2         1        29     9      180.000000        2.070080         2    ;  uncertainty k = 0.062452
         3         2         1        29     9        0.000000        0.427026         3    ;  uncertainty k = 0.090560
         3         2         1        29     9      180.000000        0.109364         4    ;  uncertainty k = 0.057705
         3         2         6         5     9        0.000000       -0.074391         1    ;  uncertainty k = 0.716184
         3         2         6         5     9      180.000000       18.192479         2    ;  uncertainty k = 0.481164
         3         2         6         5     9        0.000000       -7.632945         3    ;  uncertainty k = 1.257182
         3         2         6         5     9      180.000000        1.302294         4    ;  uncertainty k = 0.505790
         3         4         5         6     9        0.000000       -0.616669         1    ;  uncertainty k = 0.401260
         3         4         5         6     9      180.000000       22.493044         2    ;  uncertainty k = 0.572087
         3         4         5         6     9        0.000000      -11.360867         3    ;  uncertainty k = 1.977852
         3         4         5         6     9      180.000000        1.735704         4    ;  uncertainty k = 0.713724
         3         4         5        30     9        0.000000        0.041518         1    ;  uncertainty k = 0.508536
         3         4         5        30     9      180.000000       13.187151         2    ;  uncertainty k = 0.366997
         3         4         5        30     9        0.000000        0.904749         3    ;  uncertainty k = 0.549358
         3         4         5        30     9      180.000000        0.811345         4    ;  uncertainty k = 0.164294
         3         4         7         8     9        0.000000       -2.733433         1    ;  uncertainty k = 0.846152
         3         4         7         8     9      180.000000        5.600341         2    ;  uncertainty k = 0.193326
         3         4         7         8     9        0.000000        1.030861         3    ;  uncertainty k = 0.216669
         3         4         7         8     9      180.000000        0.164395         4    ;  uncertainty k = 0.103625
         3         4         7         9     9        0.000000        3.716237         1    ;  uncertainty k = 1.022816
         3         4         7         9     9      180.000000        4.097328         2    ;  uncertainty k = 0.432780
         3         4         7         9     9        0.000000        0.671039         3    ;  uncertainty k = 0.304202
         3         4         7         9     9      180.000000       -0.221475         4    ;  uncertainty k = 0.208278
         4         3         2         6     9        0.000000       -0.003362         1    ;  uncertainty k = 0.459402
         4         3         2         6     9      180.000000       23.594444         2    ;  uncertainty k = 0.443319
         4         3         2         6     9        0.000000       -6.893937         3    ;  uncertainty k = 1.489222
         4         3         2         6     9      180.000000        2.365317         4    ;  uncertainty k = 0.421269
         4         7         9        10     9        0.000000        6.497589         1    ;  uncertainty k = 1.199924
         4         7         9        10     9      180.000000       11.628695         2    ;  uncertainty k = 0.286471
         4         7         9        10     9        0.000000        1.394965         3    ;  uncertainty k = 0.343290
         4         7         9        10     9      180.000000       -1.553967         4    ;  uncertainty k = 0.404308
         4         7         9        31     9        0.000000       -0.294442         1    ;  uncertainty k = 0.744741
         4         7         9        31     9      180.000000        5.053406         2    ;  uncertainty k = 1.039865
         4         7         9        31     9        0.000000        3.163772         3    ;  uncertainty k = 0.624141
         4         7         9        31     9      180.000000       -0.005837         4    ;  uncertainty k = 0.275380
         5         4         7         8     9        0.000000        1.041994         1    ;  uncertainty k = 0.788800
         5         4         7         8     9      180.000000        2.937862         2    ;  uncertainty k = 0.335789
         5         4         7         8     9        0.000000        0.126436         3    ;  uncertainty k = 0.271413
         5         4         7         8     9      180.000000        0.319099         4    ;  uncertainty k = 0.068050
         5         4         7         9     9        0.000000       -0.732990         1    ;  uncertainty k = 1.083409
         5         4         7         9     9      180.000000        2.443611         2    ;  uncertainty k = 0.625846
         5         4         7         9     9        0.000000        0.028643         3    ;  uncertainty k = 0.403347
         5         4         7         9     9      180.000000       -0.391827         4    ;  uncertainty k = 0.116382
         6         2         1        27     9        0.000000        0.029511         1    ;  uncertainty k = 0.339833
         6         2         1        27     9      180.000000        1.117413         2    ;  uncertainty k = 0.294488
         6         2         1        27     9        0.000000        0.601600         3    ;  uncertainty k = 0.076155
         6         2         1        27     9      180.000000        0.136453         4    ;  uncertainty k = 0.065550
         6         2         1        28     9        0.000000        0.029511         1    ;  uncertainty k = 0.339833
         6         2         1        28     9      180.000000        1.117413         2    ;  uncertainty k = 0.294488
         6         2         1        28     9        0.000000        0.601600         3    ;  uncertainty k = 0.076155
         6         2         1        28     9      180.000000        0.136453         4    ;  uncertainty k = 0.065550
         6         2         1        29     9        0.000000        0.029511         1    ;  uncertainty k = 0.339833
         6         2         1        29     9      180.000000        1.117413         2    ;  uncertainty k = 0.294488
         6         2         1        29     9        0.000000        0.601600         3    ;  uncertainty k = 0.076155
         6         2         1        29     9      180.000000        0.136453         4    ;  uncertainty k = 0.065550
         6         5         4         7     9        0.000000        0.517712         1    ;  uncertainty k = 0.675512
         6         5         4         7     9      180.000000       14.545125         2    ;  uncertainty k = 0.385563
         6         5         4         7     9        0.000000        1.335585         3    ;  uncertainty k = 0.417994
         6         5         4         7     9      180.000000        1.285337         4    ;  uncertainty k = 0.389951
         7         4         5        30     9        0.000000        0.012704         1    ;  uncertainty k = 0.907766
         7         4         5        30     9      180.000000        6.958131         2    ;  uncertainty k = 0.549103
         7         4         5        30     9        0.000000        1.435924         3    ;  uncertainty k = 0.327804
         7         4         5        30     9      180.000000        0.463894         4    ;  uncertainty k = 0.241968
         7         9        10        11     9        0.000000        1.096160         1    ;  uncertainty k = 0.444706
         7         9        10        11     9      180.000000        4.574370         2    ;  uncertainty k = 0.225080
         7         9        10        11     9        0.000000        0.985328         3    ;  uncertainty k = 0.162720
         7         9        10        11     9      180.000000        0.165713         4    ;  uncertainty k = 0.067957
         7         9        10        16     9        0.000000        1.021005         1    ;  uncertainty k = 0.755233
         7         9        10        16     9      180.000000        4.842812         2    ;  uncertainty k = 0.195858
         7         9        10        16     9        0.000000        0.845818         3    ;  uncertainty k = 0.165623
         7         9        10        16     9      180.000000        0.154341         4    ;  uncertainty k = 0.107554
         8         7         9        10     9        0.000000        2.427346         1    ;  uncertainty k = 1.099670
         8         7         9        10     9      180.000000       12.307552         2    ;  uncertainty k = 0.229344
         8         7         9        10     9        0.000000        1.052694         3    ;  uncertainty k = 0.159882
         8         7         9        10     9      180.000000       -0.490939         4    ;  uncertainty k = 0.320411
         8         7         9        31     9        0.000000        1.271269         1    ;  uncertainty k = 1.404173
         8         7         9        31     9      180.000000       10.752059         2    ;  uncertainty k = 0.431436
         8         7         9        31     9        0.000000        2.207414         3    ;  uncertainty k = 0.395986
         8         7         9        31     9      180.000000       -0.315529         4    ;  uncertainty k = 0.269691
         9        10        11        12     9        0.000000        0.071433         1    ;  uncertainty k = 0.187689
         9        10        11        12     9      180.000000       10.444739         2    ;  uncertainty k = 0.510743
         9        10        11        12     9        0.000000        1.063180         3    ;  uncertainty k = 0.497817
         9        10        11        12     9      180.000000        1.660262         4    ;  uncertainty k = 0.206429
         9        10        11        32     9        0.000000       -0.262378         1    ;  uncertainty k = 0.259839
         9        10        11        32     9      180.000000        8.433273         2    ;  uncertainty k = 0.508874
         9        10        11        32     9        0.000000        0.825631         3    ;  uncertainty k = 0.260429
         9        10        11        32     9      180.000000        1.173675         4    ;  uncertainty k = 0.183127
         9        10        16        15     9        0.000000        0.171878         1    ;  uncertainty k = 0.143265
         9        10        16        15     9      180.000000        9.127870         2    ;  uncertainty k = 0.531017
         9        10        16        15     9        0.000000        1.253532         3    ;  uncertainty k = 0.467879
         9        10        16        15     9      180.000000        1.659408         4    ;  uncertainty k = 0.311639
         9        10        16        34     9        0.000000       -0.023718         1    ;  uncertainty k = 0.273021
         9        10        16        34     9      180.000000        8.387501         2    ;  uncertainty k = 0.544780
         9        10        16        34     9        0.000000        0.814062         3    ;  uncertainty k = 0.181446
         9        10        16        34     9      180.000000        1.280339         4    ;  uncertainty k = 0.220773
        10        11        12        13     9        0.000000       -0.140978         1    ;  uncertainty k = 0.289263
        10        11        12        13     9      180.000000       14.206539         2    ;  uncertainty k = 0.330688
        10        11        12        13     9        0.000000       -0.761535         3    ;  uncertainty k = 0.522606
        10        11        12        13     9      180.000000        0.819727         4    ;  uncertainty k = 0.281632
        10        11        12        33     9        0.000000        0.077460         1    ;  uncertainty k = 0.373190
        10        11        12        33     9      180.000000        7.993313         2    ;  uncertainty k = 0.366288
        10        11        12        33     9        0.000000        1.311356         3    ;  uncertainty k = 0.323787
        10        11        12        33     9      180.000000        1.775560         4    ;  uncertainty k = 0.109756
        10        16        15        13     9        0.000000       -0.237642         1    ;  uncertainty k = 0.251618
        10        16        15        13     9      180.000000       11.376159         2    ;  uncertainty k = 0.349842
        10        16        15        13     9        0.000000        0.058899         3    ;  uncertainty k = 0.447318
        10        16        15        13     9      180.000000        1.059796         4    ;  uncertainty k = 0.384965
        10        16        15        17     9        0.000000        0.234834         1    ;  uncertainty k = 0.367064
        10        16        15        17     9      180.000000        7.914632         2    ;  uncertainty k = 0.389551
        10        16        15        17     9        0.000000        1.558936         3    ;  uncertainty k = 0.266322
        10        16        15        17     9      180.000000        1.995470         4    ;  uncertainty k = 0.236418
        11        10         9        31     9        0.000000        0.566213         1    ;  uncertainty k = 1.206746
        11        10         9        31     9      180.000000        3.691091         2    ;  uncertainty k = 0.059559
        11        10         9        31     9        0.000000        0.681425         3    ;  uncertainty k = 0.132546
        11        10         9        31     9      180.000000        0.572206         4    ;  uncertainty k = 0.113214
        11        10        16        15     9        0.000000       -0.064861         1    ;  uncertainty k = 0.214627
        11        10        16        15     9      180.000000        7.871719         2    ;  uncertainty k = 0.470953
        11        10        16        15     9        0.000000        0.224832         3    ;  uncertainty k = 0.314563
        11        10        16        15     9      180.000000        1.336577         4    ;  uncertainty k = 0.304389
        11        10        16        34     9        0.000000        0.116731         1    ;  uncertainty k = 0.231899
        11        10        16        34     9      180.000000        6.783451         2    ;  uncertainty k = 0.538187
        11        10        16        34     9        0.000000        1.333735         3    ;  uncertainty k = 0.244040
        11        10        16        34     9      180.000000        1.556769         4    ;  uncertainty k = 0.148802
        11        12        13        14     9        0.000000       -0.106124         1    ;  uncertainty k = 0.292141
        11        12        13        14     9      180.000000       12.706799         2    ;  uncertainty k = 0.527256
        11        12        13        14     9        0.000000        1.371489         3    ;  uncertainty k = 0.338272
        11        12        13        14     9      180.000000        1.583603         4    ;  uncertainty k = 0.270140
        11        12        13        15     9        0.000000        0.033183         1    ;  uncertainty k = 0.189563
        11        12        13        15     9      180.000000        7.845177         2    ;  uncertainty k = 0.447806
        11        12        13        15     9        0.000000        0.187090         3    ;  uncertainty k = 0.320419
        11        12        13        15     9      180.000000        1.349553         4    ;  uncertainty k = 0.202602
        12        11        10        16     9        0.000000       -0.201727         1    ;  uncertainty k = 0.173174
        12        11        10        16     9      180.000000        9.667884         2    ;  uncertainty k = 0.413013
        12        11        10        16     9        0.000000       -0.044828         3    ;  uncertainty k = 0.118752
        12        11        10        16     9      180.000000        1.231117         4    ;  uncertainty k = 0.245757
        12        13        15        16     9        0.000000       -0.474857         1    ;  uncertainty k = 0.323765
        12        13        15        16     9      180.000000        6.630584         2    ;  uncertainty k = 0.564327
        12        13        15        16     9        0.000000        0.239380         3    ;  uncertainty k = 0.274937
        12        13        15        16     9      180.000000        1.193733         4    ;  uncertainty k = 0.350633
        12        13        15        17     9        0.000000        0.600136         1    ;  uncertainty k = 0.641505
        12        13        15        17     9      180.000000        6.478020         2    ;  uncertainty k = 0.291955
        12        13        15        17     9        0.000000        1.179498         3    ;  uncertainty k = 0.186176
        12        13        15        17     9      180.000000        1.656044         4    ;  uncertainty k = 0.151451
        13        12        11        32     9        0.000000        0.025786         1    ;  uncertainty k = 0.320807
        13        12        11        32     9      180.000000        8.057679         2    ;  uncertainty k = 0.251501
        13        12        11        32     9        0.000000        1.352160         3    ;  uncertainty k = 0.326019
        13        12        11        32     9      180.000000        1.788571         4    ;  uncertainty k = 0.132645
        13        15        16        34     9        0.000000        0.117108         1    ;  uncertainty k = 0.171707
        13        15        16        34     9      180.000000        8.512320         2    ;  uncertainty k = 0.312676
        13        15        16        34     9        0.000000        1.495861         3    ;  uncertainty k = 0.324201
        13        15        16        34     9      180.000000        1.707889         4    ;  uncertainty k = 0.091520
        13        15        17        18     9        0.000000       -0.157360         1    ;  uncertainty k = 0.766395
        13        15        17        18     9      180.000000        2.874901         2    ;  uncertainty k = 0.241123
        13        15        17        18     9        0.000000        0.491546         3    ;  uncertainty k = 0.267477
        13        15        17        18     9      180.000000        0.163617         4    ;  uncertainty k = 0.097175
        13        15        17        19     9        0.000000       -1.196354         1    ;  uncertainty k = 0.579185
        13        15        17        19     9      180.000000        3.008170         2    ;  uncertainty k = 0.750652
        13        15        17        19     9        0.000000        0.453051         3    ;  uncertainty k = 0.196536
        13        15        17        19     9      180.000000        0.215695         4    ;  uncertainty k = 0.077129
        13        15        17        26     9        0.000000        0.194446         1    ;  uncertainty k = 0.940816
        13        15        17        26     9      180.000000        1.737966         2    ;  uncertainty k = 0.607922
        13        15        17        26     9        0.000000        0.666225         3    ;  uncertainty k = 0.424452
        13        15        17        26     9      180.000000        0.254871         4    ;  uncertainty k = 0.127038
        14        13        12        33     9        0.000000       -0.348881         1    ;  uncertainty k = 0.370578
        14        13        12        33     9      180.000000        9.399254         2    ;  uncertainty k = 0.292522
        14        13        12        33     9        0.000000        0.809684         3    ;  uncertainty k = 0.173261
        14        13        12        33     9      180.000000        1.066368         4    ;  uncertainty k = 0.100376
        14        13        15        16     9        0.000000        0.041754         1    ;  uncertainty k = 0.350728
        14        13        15        16     9      180.000000       11.200099         2    ;  uncertainty k = 0.462942
        14        13        15        16     9        0.000000        1.424911         3    ;  uncertainty k = 0.230493
        14        13        15        16     9      180.000000        1.428225         4    ;  uncertainty k = 0.257594
        14        13        15        17     9        0.000000        0.036660         1    ;  uncertainty k = 0.312226
        14        13        15        17     9      180.000000       10.105787         2    ;  uncertainty k = 0.343406
        14        13        15        17     9        0.000000        1.043740         3    ;  uncertainty k = 0.322974
        14        13        15        17     9      180.000000        1.317931         4    ;  uncertainty k = 0.145887
        15        13        12        33     9        0.000000        0.020024         1    ;  uncertainty k = 0.423103
        15        13        12        33     9      180.000000        5.455127         2    ;  uncertainty k = 0.725850
        15        13        12        33     9        0.000000        1.216278         3    ;  uncertainty k = 0.258669
        15        13        12        33     9      180.000000        1.446026         4    ;  uncertainty k = 0.151187
        15        17        18        35     9        0.000000        0.596239         1    ;  uncertainty k = 0.578789
        15        17        18        35     9      180.000000       -0.490772         2    ;  uncertainty k = 0.469331
        15        17        18        35     9        0.000000        0.828955         3    ;  uncertainty k = 0.074674
        15        17        18        35     9      180.000000       -0.063380         4    ;  uncertainty k = 0.126715
        15        17        18        36     9        0.000000        0.596239         1    ;  uncertainty k = 0.578789
        15        17        18        36     9      180.000000       -0.490772         2    ;  uncertainty k = 0.469331
        15        17        18        36     9        0.000000        0.828955         3    ;  uncertainty k = 0.074674
        15        17        18        36     9      180.000000       -0.063380         4    ;  uncertainty k = 0.126715
        15        17        18        37     9        0.000000        0.596239         1    ;  uncertainty k = 0.578789
        15        17        18        37     9      180.000000       -0.490772         2    ;  uncertainty k = 0.469331
        15        17        18        37     9        0.000000        0.828955         3    ;  uncertainty k = 0.074674
        15        17        18        37     9      180.000000       -0.063380         4    ;  uncertainty k = 0.126715
        15        17        19        20     9        0.000000       -1.567302         1    ;  uncertainty k = 0.769068
        15        17        19        20     9      180.000000       -0.011393         2    ;  uncertainty k = 0.389562
        15        17        19        20     9        0.000000        0.495788         3    ;  uncertainty k = 0.218666
        15        17        19        20     9      180.000000       -0.048990         4    ;  uncertainty k = 0.128791
        15        17        19        38     9        0.000000        0.501753         1    ;  uncertainty k = 0.345261
        15        17        19        38     9      180.000000       -0.380746         2    ;  uncertainty k = 0.437102
        15        17        19        38     9        0.000000        0.337648         3    ;  uncertainty k = 0.052205
        15        17        19        38     9      180.000000       -0.156279         4    ;  uncertainty k = 0.093222
        15        17        19        39     9        0.000000        0.501753         1    ;  uncertainty k = 0.345261
        15        17        19        39     9      180.000000       -0.380746         2    ;  uncertainty k = 0.437102
        15        17        19        39     9        0.000000        0.337648         3    ;  uncertainty k = 0.052205
        15        17        19        39     9      180.000000       -0.156279         4    ;  uncertainty k = 0.093222
        15        17        26        24     9        0.000000        0.044460         1    ;  uncertainty k = 0.809428
        15        17        26        24     9      180.000000       -0.364433         2    ;  uncertainty k = 0.606475
        15        17        26        24     9        0.000000        0.268223         3    ;  uncertainty k = 0.274635
        15        17        26        24     9      180.000000        0.315667         4    ;  uncertainty k = 0.202180
        15        17        26        45     9        0.000000        3.263214         1    ;  uncertainty k = 2.082234
        15        17        26        45     9      180.000000       -1.349963         2    ;  uncertainty k = 0.494458
        15        17        26        45     9        0.000000       -0.032904         3    ;  uncertainty k = 0.170988
        15        17        26        45     9      180.000000        0.027806         4    ;  uncertainty k = 0.103782
        16        10         9        31     9        0.000000        1.077715         1    ;  uncertainty k = 1.382345
        16        10         9        31     9      180.000000        3.784064         2    ;  uncertainty k = 0.163377
        16        10         9        31     9        0.000000        0.637047         3    ;  uncertainty k = 0.127747
        16        10         9        31     9      180.000000        0.501598         4    ;  uncertainty k = 0.084183
        16        10        11        32     9        0.000000        0.166747         1    ;  uncertainty k = 0.348438
        16        10        11        32     9      180.000000        6.952088         2    ;  uncertainty k = 0.418618
        16        10        11        32     9        0.000000        1.205371         3    ;  uncertainty k = 0.362733
        16        10        11        32     9      180.000000        1.519082         4    ;  uncertainty k = 0.135523
        16        15        17        18     9        0.000000       -0.256246         1    ;  uncertainty k = 0.659919
        16        15        17        18     9      180.000000        2.904383         2    ;  uncertainty k = 0.262290
        16        15        17        18     9        0.000000       -0.048705         3    ;  uncertainty k = 0.262787
        16        15        17        18     9      180.000000        0.166252         4    ;  uncertainty k = 0.159239
        16        15        17        19     9        0.000000       -0.879355         1    ;  uncertainty k = 0.706097
        16        15        17        19     9      180.000000        2.686269         2    ;  uncertainty k = 0.438568
        16        15        17        19     9        0.000000       -0.120536         3    ;  uncertainty k = 0.212194
        16        15        17        19     9      180.000000        0.191738         4    ;  uncertainty k = 0.048271
        16        15        17        26     9        0.000000       -0.431650         1    ;  uncertainty k = 1.470173
        16        15        17        26     9      180.000000        2.517589         2    ;  uncertainty k = 0.187929
        16        15        17        26     9        0.000000        0.078469         3    ;  uncertainty k = 0.186839
        16        15        17        26     9      180.000000        0.337412         4    ;  uncertainty k = 0.119686
        17        15        16        34     9        0.000000       -0.028942         1    ;  uncertainty k = 0.440016
        17        15        16        34     9      180.000000        7.545736         2    ;  uncertainty k = 0.246981
        17        15        16        34     9        0.000000        0.672942         3    ;  uncertainty k = 0.375128
        17        15        16        34     9      180.000000        1.143831         4    ;  uncertainty k = 0.103846
        17        19        20        21     9        0.000000        1.156343         1    ;  uncertainty k = 2.645254
        17        19        20        21     9      180.000000        3.658801         2    ;  uncertainty k = 1.929695
        17        19        20        21     9        0.000000        1.422030         3    ;  uncertainty k = 0.548757
        17        19        20        21     9      180.000000        1.026155         4    ;  uncertainty k = 0.385755
        17        19        20        22     9        0.000000       -2.858017         1    ;  uncertainty k = 2.356048
        17        19        20        22     9      180.000000        1.794352         2    ;  uncertainty k = 0.838094
        17        19        20        22     9        0.000000       -0.107582         3    ;  uncertainty k = 0.335617
        17        19        20        22     9      180.000000        0.372941         4    ;  uncertainty k = 0.156153
        17        26        24        22     9        0.000000        8.793330         1    ;  uncertainty k = 0.999323
        17        26        24        22     9      180.000000        5.364072         2    ;  uncertainty k = 1.054425
        17        26        24        22     9        0.000000        0.391839         3    ;  uncertainty k = 0.649189
        17        26        24        22     9      180.000000        0.259147         4    ;  uncertainty k = 0.358687
        17        26        24        25     9        0.000000        5.253046         1    ;  uncertainty k = 1.645342
        17        26        24        25     9      180.000000        8.648883         2    ;  uncertainty k = 0.533459
        17        26        24        25     9        0.000000        0.467744         3    ;  uncertainty k = 0.716062
        17        26        24        25     9      180.000000       -0.188093         4    ;  uncertainty k = 0.337633
        18        17        19        20     9        0.000000       -3.445832         1    ;  uncertainty k = 0.577714
        18        17        19        20     9      180.000000        1.000569         2    ;  uncertainty k = 0.159576
        18        17        19        20     9        0.000000        0.416749         3    ;  uncertainty k = 0.465963
        18        17        19        20     9      180.000000       -0.108520         4    ;  uncertainty k = 0.136148
        18        17        19        38     9        0.000000       -0.802552         1    ;  uncertainty k = 0.394285
        18        17        19        38     9      180.000000        0.276115         2    ;  uncertainty k = 0.372721
        18        17        19        38     9        0.000000        0.095891         3    ;  uncertainty k = 0.163311
        18        17        19        38     9      180.000000       -0.108559         4    ;  uncertainty k = 0.108033
        18        17        19        39     9        0.000000       -0.802552         1    ;  uncertainty k = 0.394285
        18        17        19        39     9      180.000000        0.276115         2    ;  uncertainty k = 0.372721
        18        17        19        39     9        0.000000        0.095891         3    ;  uncertainty k = 0.163311
        18        17        19        39     9      180.000000       -0.108559         4    ;  uncertainty k = 0.108033
        18        17        26        24     9        0.000000       -1.559122         1    ;  uncertainty k = 0.996205
        18        17        26        24     9      180.000000        0.692977         2    ;  uncertainty k = 0.583570
        18        17        26        24     9        0.000000        0.376445         3    ;  uncertainty k = 0.154005
        18        17        26        24     9      180.000000        0.191360         4    ;  uncertainty k = 0.052946
        18        17        26        45     9        0.000000        0.422190         1    ;  uncertainty k = 0.912221
        18        17        26        45     9      180.000000       -0.016176         2    ;  uncertainty k = 0.498395
        18        17        26        45     9        0.000000        0.358450         3    ;  uncertainty k = 0.216653
        18        17        26        45     9      180.000000        0.156531         4    ;  uncertainty k = 0.074567
        19        17        18        35     9        0.000000       -1.059786         1    ;  uncertainty k = 0.306807
        19        17        18        35     9      180.000000       -0.532508         2    ;  uncertainty k = 0.154204
        19        17        18        35     9        0.000000        0.688928         3    ;  uncertainty k = 0.192978
        19        17        18        35     9      180.000000       -0.160378         4    ;  uncertainty k = 0.106176
        19        17        18        36     9        0.000000       -1.059786         1    ;  uncertainty k = 0.306807
        19        17        18        36     9      180.000000       -0.532508         2    ;  uncertainty k = 0.154204
        19        17        18        36     9        0.000000        0.688928         3    ;  uncertainty k = 0.192978
        19        17        18        36     9      180.000000       -0.160378         4    ;  uncertainty k = 0.106176
        19        17        18        37     9        0.000000       -1.059786         1    ;  uncertainty k = 0.306807
        19        17        18        37     9      180.000000       -0.532508         2    ;  uncertainty k = 0.154204
        19        17        18        37     9        0.000000        0.688928         3    ;  uncertainty k = 0.192978
        19        17        18        37     9      180.000000       -0.160378         4    ;  uncertainty k = 0.106176
        19        17        26        24     9        0.000000        0.400596         1    ;  uncertainty k = 1.962356
        19        17        26        24     9      180.000000        0.402340         2    ;  uncertainty k = 0.917559
        19        17        26        24     9        0.000000       -0.253473         3    ;  uncertainty k = 0.472714
        19        17        26        24     9      180.000000        0.288423         4    ;  uncertainty k = 0.198771
        19        17        26        45     9        0.000000       -1.544683         1    ;  uncertainty k = 2.130081
        19        17        26        45     9      180.000000       -1.837799         2    ;  uncertainty k = 1.054898
        19        17        26        45     9        0.000000       -0.066676         3    ;  uncertainty k = 0.271754
        19        17        26        45     9      180.000000        0.336614         4    ;  uncertainty k = 0.101855
        19        20        22        23     9        0.000000        1.865892         1    ;  uncertainty k = 3.131219
        19        20        22        23     9      180.000000        2.591969         2    ;  uncertainty k = 0.830753
        19        20        22        23     9        0.000000        0.584869         3    ;  uncertainty k = 0.493225
        19        20        22        23     9      180.000000        0.675021         4    ;  uncertainty k = 0.280546
        19        20        22        24     9        0.000000        4.337412         1    ;  uncertainty k = 2.338939
        19        20        22        24     9      180.000000       -1.983172         2    ;  uncertainty k = 1.671322
        19        20        22        24     9        0.000000       -0.125780         3    ;  uncertainty k = 0.934440
        19        20        22        24     9      180.000000        0.703975         4    ;  uncertainty k = 0.311858
        20        19        17        26     9        0.000000        7.955857         1    ;  uncertainty k = 1.904047
        20        19        17        26     9      180.000000       -5.285112         2    ;  uncertainty k = 1.122030
        20        19        17        26     9        0.000000       -0.845708         3    ;  uncertainty k = 0.659958
        20        19        17        26     9      180.000000       -0.037197         4    ;  uncertainty k = 0.387605
        20        22        23        40     9        0.000000       -0.208663         1    ;  uncertainty k = 0.355044
        20        22        23        40     9      180.000000        0.043077         2    ;  uncertainty k = 0.345003
        20        22        23        40     9        0.000000        0.551328         3    ;  uncertainty k = 0.158411
        20        22        23        40     9      180.000000        0.448174         4    ;  uncertainty k = 0.058761
        20        22        23        41     9        0.000000       -0.208663         1    ;  uncertainty k = 0.355044
        20        22        23        41     9      180.000000        0.043077         2    ;  uncertainty k = 0.345003
        20        22        23        41     9        0.000000        0.551328         3    ;  uncertainty k = 0.158411
        20        22        23        41     9      180.000000        0.448174         4    ;  uncertainty k = 0.058761
        20        22        23        42     9        0.000000       -0.208663         1    ;  uncertainty k = 0.355044
        20        22        23        42     9      180.000000        0.043077         2    ;  uncertainty k = 0.345003
        20        22        23        42     9        0.000000        0.551328         3    ;  uncertainty k = 0.158411
        20        22        23        42     9      180.000000        0.448174         4    ;  uncertainty k = 0.058761
        20        22        24        25     9        0.000000        3.395867         1    ;  uncertainty k = 2.091497
        20        22        24        25     9      180.000000        4.242345         2    ;  uncertainty k = 1.742337
        20        22        24        25     9        0.000000        0.124320         3    ;  uncertainty k = 0.689760
        20        22        24        25     9      180.000000       -0.115032         4    ;  uncertainty k = 0.313141
        20        22        24        26     9        0.000000        9.246064         1    ;  uncertainty k = 1.887873
        20        22        24        26     9      180.000000        2.270906         2    ;  uncertainty k = 2.248002
        20        22        24        26     9        0.000000       -0.387225         3    ;  uncertainty k = 0.756470
        20        22        24        26     9      180.000000        0.430324         4    ;  uncertainty k = 0.523291
        21        20        19        38     9        0.000000        1.264789         1    ;  uncertainty k = 1.159483
        21        20        19        38     9      180.000000        3.606363         2    ;  uncertainty k = 0.668966
        21        20        19        38     9        0.000000        0.294649         3    ;  uncertainty k = 0.220574
        21        20        19        38     9      180.000000        0.064559         4    ;  uncertainty k = 0.138808
        21        20        19        39     9        0.000000        1.264789         1    ;  uncertainty k = 1.159483
        21        20        19        39     9      180.000000        3.606363         2    ;  uncertainty k = 0.668966
        21        20        19        39     9        0.000000        0.294649         3    ;  uncertainty k = 0.220574
        21        20        19        39     9      180.000000        0.064559         4    ;  uncertainty k = 0.138808
        21        20        22        23     9        0.000000        1.160813         1    ;  uncertainty k = 2.333027
        21        20        22        23     9      180.000000       10.722771         2    ;  uncertainty k = 0.444464
        21        20        22        23     9        0.000000        0.710470         3    ;  uncertainty k = 0.202987
        21        20        22        23     9      180.000000        0.304673         4    ;  uncertainty k = 0.249076
        21        20        22        24     9        0.000000        3.410001         1    ;  uncertainty k = 2.543224
        21        20        22        24     9      180.000000        8.043546         2    ;  uncertainty k = 0.978968
        21        20        22        24     9        0.000000        0.982679         3    ;  uncertainty k = 0.410397
        21        20        22        24     9      180.000000       -0.009606         4    ;  uncertainty k = 0.325040
        22        20        19        38     9        0.000000       -3.653304         1    ;  uncertainty k = 2.960865
        22        20        19        38     9      180.000000        2.021620         2    ;  uncertainty k = 0.498589
        22        20        19        38     9        0.000000        0.295092         3    ;  uncertainty k = 0.233124
        22        20        19        38     9      180.000000       -0.022024         4    ;  uncertainty k = 0.102189
        22        20        19        39     9        0.000000       -3.653304         1    ;  uncertainty k = 2.960865
        22        20        19        39     9      180.000000        2.021620         2    ;  uncertainty k = 0.498589
        22        20        19        39     9        0.000000        0.295092         3    ;  uncertainty k = 0.233124
        22        20        19        39     9      180.000000       -0.022024         4    ;  uncertainty k = 0.102189
        22        24        25        43     9        0.000000        7.296407         1    ;  uncertainty k = 1.850814
        22        24        25        43     9      180.000000        9.175346         2    ;  uncertainty k = 0.502673
        22        24        25        43     9        0.000000        0.892497         3    ;  uncertainty k = 0.481850
        22        24        25        43     9      180.000000       -0.978078         4    ;  uncertainty k = 0.303837
        22        24        25        44     9        0.000000        7.296407         1    ;  uncertainty k = 1.850814
        22        24        25        44     9      180.000000        9.175346         2    ;  uncertainty k = 0.502673
        22        24        25        44     9        0.000000        0.892497         3    ;  uncertainty k = 0.481850
        22        24        25        44     9      180.000000       -0.978078         4    ;  uncertainty k = 0.303837
        22        24        26        45     9        0.000000        3.093859         1    ;  uncertainty k = 2.166990
        22        24        26        45     9      180.000000        9.132620         2    ;  uncertainty k = 0.524243
        22        24        26        45     9        0.000000        1.042978         3    ;  uncertainty k = 0.524479
        22        24        26        45     9      180.000000       -0.489808         4    ;  uncertainty k = 0.466883
        23        22        24        25     9        0.000000        0.044377         1    ;  uncertainty k = 0.759708
        23        22        24        25     9      180.000000       10.089248         2    ;  uncertainty k = 0.533145
        23        22        24        25     9        0.000000        0.494320         3    ;  uncertainty k = 0.633489
        23        22        24        25     9      180.000000       -0.311752         4    ;  uncertainty k = 0.301267
        23        22        24        26     9        0.000000        1.243306         1    ;  uncertainty k = 2.976050
        23        22        24        26     9      180.000000        9.822736         2    ;  uncertainty k = 0.515634
        23        22        24        26     9        0.000000       -0.001987         3    ;  uncertainty k = 0.581631
        23        22        24        26     9      180.000000       -0.155141         4    ;  uncertainty k = 0.421724
        24        22        23        40     9        0.000000       -0.538778         1    ;  uncertainty k = 0.755939
        24        22        23        40     9      180.000000       -1.113040         2    ;  uncertainty k = 0.481362
        24        22        23        40     9        0.000000        0.319969         3    ;  uncertainty k = 0.159961
        24        22        23        40     9      180.000000        0.224213         4    ;  uncertainty k = 0.109432
        24        22        23        41     9        0.000000       -0.538778         1    ;  uncertainty k = 0.755939
        24        22        23        41     9      180.000000       -1.113040         2    ;  uncertainty k = 0.481362
        24        22        23        41     9        0.000000        0.319969         3    ;  uncertainty k = 0.159961
        24        22        23        41     9      180.000000        0.224213         4    ;  uncertainty k = 0.109432
        24        22        23        42     9        0.000000       -0.538778         1    ;  uncertainty k = 0.755939
        24        22        23        42     9      180.000000       -1.113040         2    ;  uncertainty k = 0.481362
        24        22        23        42     9        0.000000        0.319969         3    ;  uncertainty k = 0.159961
        24        22        23        42     9      180.000000        0.224213         4    ;  uncertainty k = 0.109432
        25        24        26        45     9        0.000000        1.484346         1    ;  uncertainty k = 1.689491
        25        24        26        45     9      180.000000        9.553864         2    ;  uncertainty k = 0.691348
        25        24        26        45     9        0.000000        1.458048         3    ;  uncertainty k = 0.487985
        25        24        26        45     9      180.000000       -0.282586         4    ;  uncertainty k = 0.400572
        26        17        18        35     9        0.000000       -1.560152         1    ;  uncertainty k = 0.692104
        26        17        18        35     9      180.000000       -0.870774         2    ;  uncertainty k = 0.417542
        26        17        18        35     9        0.000000        0.945102         3    ;  uncertainty k = 0.108689
        26        17        18        35     9      180.000000       -0.248422         4    ;  uncertainty k = 0.157030
        26        17        18        36     9        0.000000       -1.560152         1    ;  uncertainty k = 0.692104
        26        17        18        36     9      180.000000       -0.870774         2    ;  uncertainty k = 0.417542
        26        17        18        36     9        0.000000        0.945102         3    ;  uncertainty k = 0.108689
        26        17        18        36     9      180.000000       -0.248422         4    ;  uncertainty k = 0.157030
        26        17        18        37     9        0.000000       -1.560152         1    ;  uncertainty k = 0.692104
        26        17        18        37     9      180.000000       -0.870774         2    ;  uncertainty k = 0.417542
        26        17        18        37     9        0.000000        0.945102         3    ;  uncertainty k = 0.108689
        26        17        18        37     9      180.000000       -0.248422         4    ;  uncertainty k = 0.157030
        26        17        19        38     9        0.000000       -1.070019         1    ;  uncertainty k = 0.758867
        26        17        19        38     9      180.000000       -0.931278         2    ;  uncertainty k = 0.529991
        26        17        19        38     9        0.000000        0.103678         3    ;  uncertainty k = 0.154030
        26        17        19        38     9      180.000000       -0.273167         4    ;  uncertainty k = 0.125269
        26        17        19        39     9        0.000000       -1.070019         1    ;  uncertainty k = 0.758867
        26        17        19        39     9      180.000000       -0.931278         2    ;  uncertainty k = 0.529991
        26        17        19        39     9        0.000000        0.103678         3    ;  uncertainty k = 0.154030
        26        17        19        39     9      180.000000       -0.273167         4    ;  uncertainty k = 0.125269
        26        24        25        43     9        0.000000        4.534155         1    ;  uncertainty k = 2.434020
        26        24        25        43     9      180.000000        9.295634         2    ;  uncertainty k = 0.513279
        26        24        25        43     9        0.000000        1.256279         3    ;  uncertainty k = 0.365820
        26        24        25        43     9      180.000000       -0.599313         4    ;  uncertainty k = 0.348224
        26        24        25        44     9        0.000000        4.534155         1    ;  uncertainty k = 2.434020
        26        24        25        44     9      180.000000        9.295634         2    ;  uncertainty k = 0.513279
        26        24        25        44     9        0.000000        1.256279         3    ;  uncertainty k = 0.365820
        26        24        25        44     9      180.000000       -0.599313         4    ;  uncertainty k = 0.348224
        32        11        12        33     9        0.000000       -0.155245         1    ;  uncertainty k = 0.346806
        32        11        12        33     9      180.000000        8.232445         2    ;  uncertainty k = 0.374810
        32        11        12        33     9        0.000000       -0.416493         3    ;  uncertainty k = 0.254198
        32        11        12        33     9      180.000000        0.142253         4    ;  uncertainty k = 0.233070

[ dihedrals ] ; impropers
;       ai        aj        ak        al funct           phase               k        pn
         2         1         3         6     4      180.000000       15.580080         2    ;  uncertainty k = 0.038717
         2         3         6         1     4      180.000000       15.580080         2    ;  uncertainty k = 0.038717
         2         6         1         3     4      180.000000       15.580080         2    ;  uncertainty k = 0.038717
         4         3         5         7     4      180.000000        2.005139         2    ;  uncertainty k = 1.084670
         4         5         7         3     4      180.000000        2.005139         2    ;  uncertainty k = 1.084670
         4         7         3         5     4      180.000000        2.005139         2    ;  uncertainty k = 1.084670
         5         4         6        30     4      180.000000        0.772069         2    ;  uncertainty k = 1.076686
         5         6        30         4     4      180.000000        0.772069         2    ;  uncertainty k = 1.076686
         5        30         4         6     4      180.000000        0.772069         2    ;  uncertainty k = 1.076686
         7         4         8         9     4      180.000000       51.599118         2    ;  uncertainty k = 0.039088
         7         8         9         4     4      180.000000       51.599118         2    ;  uncertainty k = 0.039088
         7         9         4         8     4      180.000000       51.599118         2    ;  uncertainty k = 0.039088
         9         7        10        31     4      180.000000        0.647538         2    ;  uncertainty k = 0.665269
         9        10        31         7     4      180.000000        0.647538         2    ;  uncertainty k = 0.665269
         9        31         7        10     4      180.000000        0.647538         2    ;  uncertainty k = 0.665269
        10         9        11        16     4      180.000000       16.933685         2    ;  uncertainty k = 0.124223
        10        11        16         9     4      180.000000       16.933685         2    ;  uncertainty k = 0.124223
        10        16         9        11     4      180.000000       16.933685         2    ;  uncertainty k = 0.124223
        11        10        12        32     4      180.000000        3.644777         2    ;  uncertainty k = 0.261902
        11        12        32        10     4      180.000000        3.644777         2    ;  uncertainty k = 0.261902
        11        32        10        12     4      180.000000        3.644777         2    ;  uncertainty k = 0.261902
        12        11        13        33     4      180.000000        1.722014         2    ;  uncertainty k = 0.349591
        12        13        33        11     4      180.000000        1.722014         2    ;  uncertainty k = 0.349591
        12        33        11        13     4      180.000000        1.722014         2    ;  uncertainty k = 0.349591
        13        12        14        15     4      180.000000       14.944537         2    ;  uncertainty k = 0.138122
        13        14        15        12     4      180.000000       14.944537         2    ;  uncertainty k = 0.138122
        13        15        12        14     4      180.000000       14.944537         2    ;  uncertainty k = 0.138122
        15        13        16        17     4      180.000000       10.168683         2    ;  uncertainty k = 0.269567
        15        16        17        13     4      180.000000       10.168683         2    ;  uncertainty k = 0.269567
        15        17        13        16     4      180.000000       10.168683         2    ;  uncertainty k = 0.269567
        16        10        15        34     4      180.000000        3.837276         2    ;  uncertainty k = 0.391589
        16        15        34        10     4      180.000000        3.837276         2    ;  uncertainty k = 0.391589
        16        34        10        15     4      180.000000        3.837276         2    ;  uncertainty k = 0.391589
        20        19        21        22     4      180.000000       53.494700         2    ;  uncertainty k = 0.038139
        20        21        22        19     4      180.000000       53.494700         2    ;  uncertainty k = 0.038139
        20        22        19        21     4      180.000000       53.494700         2    ;  uncertainty k = 0.038139
        22        20        23        24     4      180.000000        3.488066         2    ;  uncertainty k = 0.874226
        22        23        24        20     4      180.000000        3.488066         2    ;  uncertainty k = 0.874226
        22        24        20        23     4      180.000000        3.488066         2    ;  uncertainty k = 0.874226
        24        22        25        26     4      180.000000       37.755696         2    ;  uncertainty k = 0.153939
        24        25        26        22     4      180.000000       37.755696         2    ;  uncertainty k = 0.153939
        24        26        22        25     4      180.000000       37.755696         2    ;  uncertainty k = 0.153939
        25        24        43        44     4      180.000000        0.189446         2    ;  uncertainty k = 0.423615
        25        43        44        24     4      180.000000        0.189446         2    ;  uncertainty k = 0.423615
        25        44        24        43     4      180.000000        0.189446         2    ;  uncertainty k = 0.423615
        26        17        24        45     4      180.000000        0.562967         2    ;  uncertainty k = 0.792038
        26        24        45        17     4      180.000000        0.562967         2    ;  uncertainty k = 0.792038
        26        45        17        24     4      180.000000        0.562967         2    ;  uncertainty k = 0.792038

[ pairs ]
;       ai        aj funct
         1         4     1
         1         5     1
         2         7     1
         2        30     1
         3         8     1
         3         9     1
         3        27     1
         3        28     1
         3        29     1
         3        30     1
         4        10     1
         4        31     1
         5         8     1
         5         9     1
         6         7     1
         6        27     1
         6        28     1
         6        29     1
         7        11     1
         7        16     1
         7        30     1
         8        10     1
         8        31     1
         9        12     1
         9        15     1
         9        32     1
         9        34     1
        10        13     1
        10        17     1
        10        33     1
        11        14     1
        11        15     1
        11        31     1
        11        34     1
        12        16     1
        12        17     1
        13        18     1
        13        19     1
        13        26     1
        13        32     1
        13        34     1
        14        16     1
        14        17     1
        14        33     1
        15        20     1
        15        24     1
        15        33     1
        15        35     1
        15        36     1
        15        37     1
        15        38     1
        15        39     1
        15        45     1
        16        18     1
        16        19     1
        16        26     1
        16        31     1
        16        32     1
        17        21     1
        17        22     1
        17        25     1
        17        34     1
        18        20     1
        18        24     1
        18        38     1
        18        39     1
        18        45     1
        19        23     1
        19        24     1
        19        35     1
        19        36     1
        19        37     1
        19        45     1
        20        25     1
        20        26     1
        20        40     1
        20        41     1
        20        42     1
        21        23     1
        21        24     1
        21        38     1
        21        39     1
        22        38     1
        22        39     1
        22        43     1
        22        44     1
        22        45     1
        23        25     1
        23        26     1
        24        40     1
        24        41     1
        24        42     1
        25        45     1
        26        35     1
        26        36     1
        26        37     1
        26        38     1
        26        39     1
        26        43     1
        26        44     1
        32        33     1
