; ITP file created by ByteFF-joint-25, 2025-07-14 11:32:21.899130

[ atomtypes ]
;name           bonded.type        at.num        mass        charge   ptype           sigma         epsilon
 c0bf                                   6      0.0000       0.00000       A     3.39779e-01     4.50875e-01    ;  uncertainty sigma = 0.000010, epsilon = 0.001295
 n1bf                                   7      0.0000       0.00000       A     3.18045e-01     6.86715e-01    ;  uncertainty sigma = 0.000056, epsilon = 0.002911
 c2bf                                   6      0.0000       0.00000       A     3.31514e-01     4.11760e-01    ;  uncertainty sigma = 0.000063, epsilon = 0.001890
 n3bf                                   7      0.0000       0.00000       A     3.36760e-01     4.69957e-01    ;  uncertainty sigma = 0.000090, epsilon = 0.002477
 n4bf                                   7      0.0000       0.00000       A     3.27884e-01     6.44716e-01    ;  uncertainty sigma = 0.000149, epsilon = 0.009704
 c5bf                                   6      0.0000       0.00000       A     3.39814e-01     4.51098e-01    ;  uncertainty sigma = 0.000025, epsilon = 0.003336
 c6bf                                   6      0.0000       0.00000       A     3.39761e-01     4.50765e-01    ;  uncertainty sigma = 0.000009, epsilon = 0.001200
 c7bf                                   6      0.0000       0.00000       A     3.39741e-01     4.51121e-01    ;  uncertainty sigma = 0.000021, epsilon = 0.001042
 c8bf                                   6      0.0000       0.00000       A     3.31519e-01     4.13467e-01    ;  uncertainty sigma = 0.000015, epsilon = 0.001384
 o9bf                                   8      0.0000       0.00000       A     3.04866e-01     6.11575e-01    ;  uncertainty sigma = 0.000029, epsilon = 0.000747
 c10bf                                  6      0.0000       0.00000       A     3.31476e-01     4.13991e-01    ;  uncertainty sigma = 0.000010, epsilon = 0.001399
 c11bf                                  6      0.0000       0.00000       A     3.31531e-01     4.13829e-01    ;  uncertainty sigma = 0.000013, epsilon = 0.001150
 c12bf                                  6      0.0000       0.00000       A     3.31512e-01     4.13288e-01    ;  uncertainty sigma = 0.000007, epsilon = 0.001098
 c13bf                                  6      0.0000       0.00000       A     3.31527e-01     4.13337e-01    ;  uncertainty sigma = 0.000006, epsilon = 0.000429
 c14bf                                  6      0.0000       0.00000       A     3.31530e-01     4.13225e-01    ;  uncertainty sigma = 0.000003, epsilon = 0.000619
 c15bf                                  6      0.0000       0.00000       A     3.31546e-01     4.12950e-01    ;  uncertainty sigma = 0.000012, epsilon = 0.000221
 f16bf                                  9      0.0000       0.00000       A     3.03457e-01     3.47821e-01    ;  uncertainty sigma = 0.000024, epsilon = 0.001496
 n17bf                                  7      0.0000       0.00000       A     3.26994e-01     4.90813e-01    ;  uncertainty sigma = 0.000028, epsilon = 0.000958
 c18bf                                  6      0.0000       0.00000       A     3.31530e-01     4.12721e-01    ;  uncertainty sigma = 0.000022, epsilon = 0.000898
 o19bf                                  8      0.0000       0.00000       A     3.04834e-01     6.12910e-01    ;  uncertainty sigma = 0.000023, epsilon = 0.001454
 c20bf                                  6      0.0000       0.00000       A     3.31527e-01     4.13142e-01    ;  uncertainty sigma = 0.000011, epsilon = 0.000750
 c21bf                                  6      0.0000       0.00000       A     3.31541e-01     4.13392e-01    ;  uncertainty sigma = 0.000008, epsilon = 0.000789
 c22bf                                  6      0.0000       0.00000       A     3.31514e-01     4.13068e-01    ;  uncertainty sigma = 0.000010, epsilon = 0.000457
 c23bf                                  6      0.0000       0.00000       A     3.31526e-01     4.13654e-01    ;  uncertainty sigma = 0.000001, epsilon = 0.000612
 c24bf                                  6      0.0000       0.00000       A     3.47937e-01     6.68175e-01    ;  uncertainty sigma = 0.000028, epsilon = 0.001882
 n25bf                                  7      0.0000       0.00000       A     3.27336e-01     4.58760e-01    ;  uncertainty sigma = 0.000024, epsilon = 0.000711
 c26bf                                  6      0.0000       0.00000       A     3.31518e-01     4.13237e-01    ;  uncertainty sigma = 0.000011, epsilon = 0.000869
 n27bf                                  7      0.0000       0.00000       A     3.38406e-01     3.93383e-01    ;  uncertainty sigma = 0.000014, epsilon = 0.001237
 h28bf                                  1      0.0000       0.00000       A     2.42164e-01     8.70781e-02    ;  uncertainty sigma = 0.000026, epsilon = 0.000567
 h29bf                                  1      0.0000       0.00000       A     2.42164e-01     8.70781e-02    ;  uncertainty sigma = 0.000026, epsilon = 0.000567
 h30bf                                  1      0.0000       0.00000       A     2.42164e-01     8.70781e-02    ;  uncertainty sigma = 0.000026, epsilon = 0.000567
 h31bf                                  1      0.0000       0.00000       A     1.10673e-01     4.15035e-02    ;  uncertainty sigma = 0.000108, epsilon = 0.001195
 h32bf                                  1      0.0000       0.00000       A     1.10673e-01     4.15035e-02    ;  uncertainty sigma = 0.000108, epsilon = 0.001195
 h33bf                                  1      0.0000       0.00000       A     2.60004e-01     8.68723e-02    ;  uncertainty sigma = 0.000016, epsilon = 0.000482
 h34bf                                  1      0.0000       0.00000       A     2.60004e-01     8.68723e-02    ;  uncertainty sigma = 0.000016, epsilon = 0.000482
 h35bf                                  1      0.0000       0.00000       A     2.60004e-01     8.68723e-02    ;  uncertainty sigma = 0.000016, epsilon = 0.000482
 h36bf                                  1      0.0000       0.00000       A     2.59995e-01     8.70718e-02    ;  uncertainty sigma = 0.000025, epsilon = 0.001286
 h37bf                                  1      0.0000       0.00000       A     2.59995e-01     8.70718e-02    ;  uncertainty sigma = 0.000025, epsilon = 0.001286
 h38bf                                  1      0.0000       0.00000       A     2.62560e-01     6.69862e-02    ;  uncertainty sigma = 0.000013, epsilon = 0.000605
 h39bf                                  1      0.0000       0.00000       A     2.62560e-01     6.69889e-02    ;  uncertainty sigma = 0.000013, epsilon = 0.000439
 h40bf                                  1      0.0000       0.00000       A     2.62565e-01     6.69912e-02    ;  uncertainty sigma = 0.000012, epsilon = 0.000401
 h41bf                                  1      0.0000       0.00000       A     1.10674e-01     4.15810e-02    ;  uncertainty sigma = 0.000084, epsilon = 0.000795
 h42bf                                  1      0.0000       0.00000       A     2.62566e-01     6.71123e-02    ;  uncertainty sigma = 0.000016, epsilon = 0.000623
 h43bf                                  1      0.0000       0.00000       A     2.62538e-01     6.71585e-02    ;  uncertainty sigma = 0.000013, epsilon = 0.000724
 h44bf                                  1      0.0000       0.00000       A     2.53641e-01     6.71895e-02    ;  uncertainty sigma = 0.000016, epsilon = 0.000600
 h45bf                                  1      0.0000       0.00000       A     1.10625e-01     4.07568e-02    ;  uncertainty sigma = 0.000197, epsilon = 0.002094

[ moleculetype ]
;name             nrexcl
 MOL                   3

[ atoms ]
;       nr            type      resi   res      atom      cgnr      charge          mass ; qtot
         1            c0bf         1   UNL        c0         1     0.04963       12.0110 ; qtot    0.050
         2            n1bf         1   UNL        n1         2    -0.43756       14.0070 ; qtot   -0.388
         3            c2bf         1   UNL        c2         3     0.48213       12.0110 ; qtot    0.094
         4            n3bf         1   UNL        n3         4    -0.50478       14.0070 ; qtot   -0.411
         5            n4bf         1   UNL        n4         5    -0.38668       14.0070 ; qtot   -0.797
         6            c5bf         1   UNL        c5         6     0.15193       12.0110 ; qtot   -0.645
         7            c6bf         1   UNL        c6         7    -0.11350       12.0110 ; qtot   -0.759
         8            c7bf         1   UNL        c7         8    -0.17413       12.0110 ; qtot   -0.933
         9            c8bf         1   UNL        c8         9     0.71609       12.0110 ; qtot   -0.217
        10            o9bf         1   UNL        o9        10    -0.46646       15.9990 ; qtot   -0.683
        11           c10bf         1   UNL       c10        11    -0.14536       12.0110 ; qtot   -0.829
        12           c11bf         1   UNL       c11        12    -0.10984       12.0110 ; qtot   -0.939
        13           c12bf         1   UNL       c12        13     0.07802       12.0110 ; qtot   -0.861
        14           c13bf         1   UNL       c13        14    -0.12646       12.0110 ; qtot   -0.987
        15           c14bf         1   UNL       c14        15    -0.11323       12.0110 ; qtot   -1.100
        16           c15bf         1   UNL       c15        16     0.11635       12.0110 ; qtot   -0.984
        17           f16bf         1   UNL       f16        17    -0.14859       18.9980 ; qtot   -1.132
        18           n17bf         1   UNL       n17        18    -0.46396       14.0070 ; qtot   -1.596
        19           c18bf         1   UNL       c18        19     0.58128       12.0110 ; qtot   -1.015
        20           o19bf         1   UNL       o19        20    -0.58018       15.9990 ; qtot   -1.595
        21           c20bf         1   UNL       c20        21     0.36939       12.0110 ; qtot   -1.226
        22           c21bf         1   UNL       c21        22    -0.18487       12.0110 ; qtot   -1.411
        23           c22bf         1   UNL       c22        23    -0.06136       12.0110 ; qtot   -1.472
        24           c23bf         1   UNL       c23        24    -0.11268       12.0110 ; qtot   -1.585
        25           c24bf         1   UNL       c24        25     0.23485       12.0110 ; qtot   -1.350
        26           n25bf         1   UNL       n25        26    -0.34982       14.0070 ; qtot   -1.700
        27           c26bf         1   UNL       c26        27     0.43617       12.0110 ; qtot   -1.264
        28           n27bf         1   UNL       n27        28    -0.66550       14.0070 ; qtot   -1.929
        29           h28bf         1   UNL       h28        29     0.08943        1.0080 ; qtot   -1.840
        30           h29bf         1   UNL       h29        30     0.08943        1.0080 ; qtot   -1.750
        31           h30bf         1   UNL       h30        31     0.08943        1.0080 ; qtot   -1.661
        32           h31bf         1   UNL       h31        32     0.33098        1.0080 ; qtot   -1.330
        33           h32bf         1   UNL       h32        33     0.33098        1.0080 ; qtot   -0.999
        34           h33bf         1   UNL       h33        34     0.07196        1.0080 ; qtot   -0.927
        35           h34bf         1   UNL       h34        35     0.07196        1.0080 ; qtot   -0.855
        36           h35bf         1   UNL       h35        36     0.07196        1.0080 ; qtot   -0.783
        37           h36bf         1   UNL       h36        37     0.11749        1.0080 ; qtot   -0.666
        38           h37bf         1   UNL       h37        38     0.11749        1.0080 ; qtot   -0.548
        39           h38bf         1   UNL       h38        39     0.16387        1.0080 ; qtot   -0.384
        40           h39bf         1   UNL       h39        40     0.15954        1.0080 ; qtot   -0.225
        41           h40bf         1   UNL       h40        41     0.16630        1.0080 ; qtot   -0.058
        42           h41bf         1   UNL       h41        42     0.34895        1.0080 ; qtot    0.291
        43           h42bf         1   UNL       h42        43     0.17612        1.0080 ; qtot    0.467
        44           h43bf         1   UNL       h43        44     0.15694        1.0080 ; qtot    0.624
        45           h44bf         1   UNL       h44        45     0.04051        1.0080 ; qtot    0.664
        46           h45bf         1   UNL       h45        46     0.33578        1.0080 ; qtot    1.000

[ bonds ]
;       ai        aj funct               r               k
         1         2     1        0.147324   251134.180859    ;  uncertainty r = 0.000154, k = 24.190262
         1        29     1        0.109123   307429.053027    ;  uncertainty r = 0.000028, k = 2.127609
         1        30     1        0.109123   307429.053027    ;  uncertainty r = 0.000028, k = 2.127609
         1        31     1        0.109123   307429.053027    ;  uncertainty r = 0.000028, k = 2.127609
         2         3     1        0.136207   289370.435059    ;  uncertainty r = 0.000285, k = 39.958241
         2         9     1        0.143746   253678.749512    ;  uncertainty r = 0.000164, k = 80.639869
         3         4     1        0.134544   307986.936719    ;  uncertainty r = 0.000201, k = 58.704652
         3         5     1        0.133564   557221.463086    ;  uncertainty r = 0.000241, k = 55.754692
         4        32     1        0.101295   419556.984277    ;  uncertainty r = 0.000047, k = 11.267084
         4        33     1        0.101295   419556.984277    ;  uncertainty r = 0.000047, k = 11.267084
         5         6     1        0.149031   230523.843848    ;  uncertainty r = 0.000216, k = 24.317644
         5        46     1        0.101560   439225.512695    ;  uncertainty r = 0.000134, k = 8.127208
         6         7     1        0.153374   201429.734351    ;  uncertainty r = 0.000097, k = 8.556063
         6         8     1        0.153159   203928.144678    ;  uncertainty r = 0.000115, k = 13.365525
         6        11     1        0.151440   214005.305103    ;  uncertainty r = 0.000236, k = 16.363289
         7        34     1        0.109424   311928.487402    ;  uncertainty r = 0.000009, k = 2.894260
         7        35     1        0.109424   311928.487402    ;  uncertainty r = 0.000009, k = 2.894260
         7        36     1        0.109424   311928.487402    ;  uncertainty r = 0.000009, k = 2.894260
         8         9     1        0.151045   203840.092725    ;  uncertainty r = 0.000198, k = 13.413393
         8        37     1        0.109430   314471.447217    ;  uncertainty r = 0.000052, k = 2.778305
         8        38     1        0.109430   314471.447217    ;  uncertainty r = 0.000052, k = 2.778305
         9        10     1        0.120581   655340.349023    ;  uncertainty r = 0.000199, k = 21.290084
        11        12     1        0.139252   346690.979687    ;  uncertainty r = 0.000130, k = 5.041317
        11        16     1        0.139301   340628.750830    ;  uncertainty r = 0.000147, k = 7.009169
        12        13     1        0.140076   350643.715625    ;  uncertainty r = 0.000126, k = 5.776737
        12        39     1        0.108639   335283.323096    ;  uncertainty r = 0.000042, k = 2.896011
        13        14     1        0.140101   351857.085840    ;  uncertainty r = 0.000062, k = 3.465565
        13        18     1        0.140258   326630.609863    ;  uncertainty r = 0.000061, k = 13.122946
        14        15     1        0.138919   379009.034326    ;  uncertainty r = 0.000028, k = 4.451331
        14        40     1        0.108594   335979.822217    ;  uncertainty r = 0.000019, k = 2.815261
        15        16     1        0.138815   358758.872705    ;  uncertainty r = 0.000063, k = 5.580479
        15        41     1        0.108729   335202.702441    ;  uncertainty r = 0.000007, k = 1.041219
        16        17     1        0.136423   335134.084229    ;  uncertainty r = 0.000047, k = 5.847050
        18        19     1        0.136506   278321.396094    ;  uncertainty r = 0.000043, k = 18.114400
        18        42     1        0.101970   418252.497656    ;  uncertainty r = 0.000030, k = 6.466792
        19        20     1        0.123364   656555.506836    ;  uncertainty r = 0.000023, k = 4.121463
        19        21     1        0.149761   245436.672998    ;  uncertainty r = 0.000176, k = 11.679506
        21        22     1        0.139535   336112.947168    ;  uncertainty r = 0.000065, k = 8.006229
        21        28     1        0.133701   392998.262842    ;  uncertainty r = 0.000051, k = 16.741923
        22        23     1        0.138609   377296.030566    ;  uncertainty r = 0.000068, k = 6.128317
        22        43     1        0.108622   336669.273096    ;  uncertainty r = 0.000021, k = 1.964158
        23        24     1        0.140111   378146.314160    ;  uncertainty r = 0.000065, k = 4.503755
        23        44     1        0.108622   331908.594092    ;  uncertainty r = 0.000021, k = 1.207920
        24        25     1        0.143604   324344.757666    ;  uncertainty r = 0.000012, k = 4.416308
        24        27     1        0.140676   364469.583252    ;  uncertainty r = 0.000052, k = 9.268356
        25        26     1        0.116674  1126027.886914    ;  uncertainty r = 0.000026, k = 2.140194
        27        28     1        0.132818   389852.244189    ;  uncertainty r = 0.000110, k = 8.811052
        27        45     1        0.108935   335128.414990    ;  uncertainty r = 0.000025, k = 2.177972

[ angles ]
;       ai        aj        ak funct           theta             cth
         1         2         3     1      115.143982      405.306039    ;  uncertainty theta = 0.007152, k = 0.306076
         1         2         9     1      115.926292      431.056766    ;  uncertainty theta = 0.006662, k = 0.129527
         2         1        29     1      107.559181      473.057682    ;  uncertainty theta = 0.001681, k = 0.126528
         2         1        30     1      107.559181      473.057682    ;  uncertainty theta = 0.001681, k = 0.126528
         2         1        31     1      107.559181      473.057682    ;  uncertainty theta = 0.001681, k = 0.126528
         2         3         4     1      120.606590      593.468504    ;  uncertainty theta = 0.003176, k = 0.306591
         2         3         5     1      121.642906      613.806194    ;  uncertainty theta = 0.006967, k = 0.493884
         2         9         8     1      113.646469      401.102471    ;  uncertainty theta = 0.002688, k = 0.212313
         2         9        10     1      121.239647      682.067462    ;  uncertainty theta = 0.006510, k = 0.206541
         3         2         9     1      122.278809      503.814129    ;  uncertainty theta = 0.010251, k = 0.447990
         3         4        32     1      115.149925      373.809047    ;  uncertainty theta = 0.003984, k = 0.186892
         3         4        33     1      115.149925      373.809047    ;  uncertainty theta = 0.003984, k = 0.186892
         3         5         6     1      120.614380      418.497743    ;  uncertainty theta = 0.007151, k = 0.291427
         3         5        46     1      116.509377      399.040254    ;  uncertainty theta = 0.012250, k = 0.308852
         4         3         5     1      124.262207      720.976057    ;  uncertainty theta = 0.011250, k = 0.233585
         5         6         7     1      108.368942      690.585940    ;  uncertainty theta = 0.004528, k = 0.153752
         5         6         8     1      106.007408      694.398949    ;  uncertainty theta = 0.008322, k = 0.225726
         5         6        11     1      107.829872      642.630376    ;  uncertainty theta = 0.005954, k = 0.224167
         6         5        46     1      114.810410      313.074427    ;  uncertainty theta = 0.008656, k = 0.327146
         6         7        34     1      107.176834      394.723461    ;  uncertainty theta = 0.002402, k = 0.117049
         6         7        35     1      107.176834      394.723461    ;  uncertainty theta = 0.002402, k = 0.117049
         6         7        36     1      107.176834      394.723461    ;  uncertainty theta = 0.002402, k = 0.117049
         6         8         9     1      111.158714      546.746192    ;  uncertainty theta = 0.007730, k = 0.197731
         6         8        37     1      107.364235      377.266293    ;  uncertainty theta = 0.004341, k = 0.139640
         6         8        38     1      107.364235      377.266293    ;  uncertainty theta = 0.004341, k = 0.139640
         6        11        12     1      117.802956      375.456956    ;  uncertainty theta = 0.005787, k = 0.134581
         6        11        16     1      116.958557      381.231791    ;  uncertainty theta = 0.007269, k = 0.198931
         7         6         8     1      109.611717      570.605769    ;  uncertainty theta = 0.002294, k = 0.110172
         7         6        11     1      110.898338      572.819772    ;  uncertainty theta = 0.005752, k = 0.148112
         8         6        11     1      109.839493      570.393491    ;  uncertainty theta = 0.006137, k = 0.132525
         8         9        10     1      126.717201      500.341625    ;  uncertainty theta = 0.007714, k = 0.227670
         9         8        37     1      105.847939      380.285928    ;  uncertainty theta = 0.004326, k = 0.106628
         9         8        38     1      105.847939      380.285928    ;  uncertainty theta = 0.004326, k = 0.106628
        11        12        13     1      122.306190      498.529735    ;  uncertainty theta = 0.002973, k = 0.170384
        11        12        39     1      117.312637      276.346797    ;  uncertainty theta = 0.005095, k = 0.130875
        11        16        15     1      124.818649      370.348162    ;  uncertainty theta = 0.007322, k = 0.227765
        11        16        17     1      115.651962      479.259018    ;  uncertainty theta = 0.002998, k = 0.033205
        12        11        16     1      121.760132      422.327767    ;  uncertainty theta = 0.004456, k = 0.138448
        12        13        14     1      120.372131      380.353857    ;  uncertainty theta = 0.008541, k = 0.212367
        12        13        18     1      119.109032      510.453810    ;  uncertainty theta = 0.005853, k = 0.063097
        13        12        39     1      118.498497      277.252311    ;  uncertainty theta = 0.002818, k = 0.074007
        13        14        15     1      118.863724      498.637247    ;  uncertainty theta = 0.002640, k = 0.113246
        13        14        40     1      118.858414      266.117014    ;  uncertainty theta = 0.001105, k = 0.050326
        13        18        19     1      116.978920      455.442184    ;  uncertainty theta = 0.007471, k = 0.050292
        13        18        42     1      113.216721      315.806770    ;  uncertainty theta = 0.005776, k = 0.133148
        14        13        18     1      119.923904      512.611664    ;  uncertainty theta = 0.004014, k = 0.173830
        14        15        16     1      119.716713      459.315716    ;  uncertainty theta = 0.002703, k = 0.248433
        14        15        41     1      121.226318      273.827337    ;  uncertainty theta = 0.003027, k = 0.016592
        15        14        40     1      120.299927      315.004585    ;  uncertainty theta = 0.001541, k = 0.082725
        15        16        17     1      118.368248      531.214873    ;  uncertainty theta = 0.002418, k = 0.194814
        16        15        41     1      119.769325      274.086220    ;  uncertainty theta = 0.001156, k = 0.041158
        18        19        20     1      122.788315      764.955556    ;  uncertainty theta = 0.001756, k = 0.071159
        18        19        21     1      111.649742      458.479312    ;  uncertainty theta = 0.001548, k = 0.246109
        19        18        42     1      116.981491      346.904010    ;  uncertainty theta = 0.004445, k = 0.127573
        19        21        22     1      117.846695      352.841324    ;  uncertainty theta = 0.004232, k = 0.136468
        19        21        28     1      115.309326      385.736569    ;  uncertainty theta = 0.006039, k = 0.208442
        20        19        21     1      121.199974      503.586594    ;  uncertainty theta = 0.002905, k = 0.112358
        21        22        23     1      117.796341      479.202644    ;  uncertainty theta = 0.003553, k = 0.135050
        21        22        43     1      121.152832      262.305520    ;  uncertainty theta = 0.004873, k = 0.070969
        21        28        27     1      120.098877      418.099269    ;  uncertainty theta = 0.003409, k = 0.234059
        22        21        28     1      124.667175      613.016970    ;  uncertainty theta = 0.003155, k = 0.187015
        22        23        24     1      118.572617      539.806610    ;  uncertainty theta = 0.003172, k = 0.110171
        22        23        44     1      120.918839      269.171858    ;  uncertainty theta = 0.001998, k = 0.127067
        23        22        43     1      121.601845      277.425356    ;  uncertainty theta = 0.002320, k = 0.112827
        23        24        25     1      120.875465      381.677541    ;  uncertainty theta = 0.003130, k = 0.160604
        23        24        27     1      118.629784      404.999338    ;  uncertainty theta = 0.005125, k = 0.108159
        24        23        44     1      119.910950      278.994261    ;  uncertainty theta = 0.003209, k = 0.074463
        24        25        26     1      180.000000      232.628814    ;  uncertainty theta = 0.000000, k = 0.661818
        24        27        28     1      124.144119      683.103439    ;  uncertainty theta = 0.004119, k = 0.117531
        24        27        45     1      119.444847      275.004917    ;  uncertainty theta = 0.003889, k = 0.110259
        25        24        27     1      120.363876      380.992572    ;  uncertainty theta = 0.004094, k = 0.155664
        28        27        45     1      117.626259      325.407223    ;  uncertainty theta = 0.003335, k = 0.154821
        29         1        30     1      107.420509      324.177100    ;  uncertainty theta = 0.003506, k = 0.110514
        29         1        31     1      107.420509      324.177100    ;  uncertainty theta = 0.003506, k = 0.110514
        30         1        31     1      107.420509      324.177100    ;  uncertainty theta = 0.003506, k = 0.110514
        32         4        33     1      112.138939      273.835381    ;  uncertainty theta = 0.016285, k = 0.318904
        34         7        35     1      106.052170      314.205465    ;  uncertainty theta = 0.001376, k = 0.026814
        34         7        36     1      106.052170      314.205465    ;  uncertainty theta = 0.001376, k = 0.026814
        35         7        36     1      106.052170      314.205465    ;  uncertainty theta = 0.001376, k = 0.026814
        37         8        38     1      107.444252      302.402277    ;  uncertainty theta = 0.001395, k = 0.127039

[ dihedrals ] ; propers for gromacs 4.5 or higher, use funct 9
;       ai        aj        ak        al funct           phase               k        pn
         1         2         3         4     9        0.000000        0.044376         1    ;  uncertainty k = 0.759709
         1         2         3         4     9      180.000000       10.089248         2    ;  uncertainty k = 0.533143
         1         2         3         4     9        0.000000        0.494320         3    ;  uncertainty k = 0.633488
         1         2         3         4     9      180.000000       -0.311752         4    ;  uncertainty k = 0.301267
         1         2         3         5     9        0.000000        1.243307         1    ;  uncertainty k = 2.976055
         1         2         3         5     9      180.000000        9.822737         2    ;  uncertainty k = 0.515636
         1         2         3         5     9        0.000000       -0.001988         3    ;  uncertainty k = 0.581630
         1         2         3         5     9      180.000000       -0.155141         4    ;  uncertainty k = 0.421724
         1         2         9         8     9        0.000000        1.865892         1    ;  uncertainty k = 3.131220
         1         2         9         8     9      180.000000        2.591969         2    ;  uncertainty k = 0.830754
         1         2         9         8     9        0.000000        0.584870         3    ;  uncertainty k = 0.493225
         1         2         9         8     9      180.000000        0.675022         4    ;  uncertainty k = 0.280546
         1         2         9        10     9        0.000000        1.160814         1    ;  uncertainty k = 2.333024
         1         2         9        10     9      180.000000       10.722771         2    ;  uncertainty k = 0.444464
         1         2         9        10     9        0.000000        0.710470         3    ;  uncertainty k = 0.202987
         1         2         9        10     9      180.000000        0.304672         4    ;  uncertainty k = 0.249076
         2         3         4        32     9        0.000000        7.296406         1    ;  uncertainty k = 1.850818
         2         3         4        32     9      180.000000        9.175348         2    ;  uncertainty k = 0.502674
         2         3         4        32     9        0.000000        0.892497         3    ;  uncertainty k = 0.481851
         2         3         4        32     9      180.000000       -0.978078         4    ;  uncertainty k = 0.303837
         2         3         4        33     9        0.000000        7.296406         1    ;  uncertainty k = 1.850818
         2         3         4        33     9      180.000000        9.175348         2    ;  uncertainty k = 0.502674
         2         3         4        33     9        0.000000        0.892497         3    ;  uncertainty k = 0.481851
         2         3         4        33     9      180.000000       -0.978078         4    ;  uncertainty k = 0.303837
         2         3         5         6     9        0.000000        8.793325         1    ;  uncertainty k = 0.999323
         2         3         5         6     9      180.000000        5.364073         2    ;  uncertainty k = 1.054422
         2         3         5         6     9        0.000000        0.391839         3    ;  uncertainty k = 0.649188
         2         3         5         6     9      180.000000        0.259146         4    ;  uncertainty k = 0.358687
         2         3         5        46     9        0.000000        3.093855         1    ;  uncertainty k = 2.166989
         2         3         5        46     9      180.000000        9.132623         2    ;  uncertainty k = 0.524240
         2         3         5        46     9        0.000000        1.042979         3    ;  uncertainty k = 0.524480
         2         3         5        46     9      180.000000       -0.489808         4    ;  uncertainty k = 0.466883
         2         9         8         6     9        0.000000       -2.858018         1    ;  uncertainty k = 2.356048
         2         9         8         6     9      180.000000        1.794352         2    ;  uncertainty k = 0.838095
         2         9         8         6     9        0.000000       -0.107582         3    ;  uncertainty k = 0.335617
         2         9         8         6     9      180.000000        0.372941         4    ;  uncertainty k = 0.156153
         2         9         8        37     9        0.000000       -3.653306         1    ;  uncertainty k = 2.960866
         2         9         8        37     9      180.000000        2.021621         2    ;  uncertainty k = 0.498590
         2         9         8        37     9        0.000000        0.295092         3    ;  uncertainty k = 0.233125
         2         9         8        37     9      180.000000       -0.022023         4    ;  uncertainty k = 0.102189
         2         9         8        38     9        0.000000       -3.653306         1    ;  uncertainty k = 2.960866
         2         9         8        38     9      180.000000        2.021621         2    ;  uncertainty k = 0.498590
         2         9         8        38     9        0.000000        0.295092         3    ;  uncertainty k = 0.233125
         2         9         8        38     9      180.000000       -0.022023         4    ;  uncertainty k = 0.102189
         3         2         1        29     9        0.000000       -0.538778         1    ;  uncertainty k = 0.755938
         3         2         1        29     9      180.000000       -1.113041         2    ;  uncertainty k = 0.481363
         3         2         1        29     9        0.000000        0.319969         3    ;  uncertainty k = 0.159962
         3         2         1        29     9      180.000000        0.224213         4    ;  uncertainty k = 0.109432
         3         2         1        30     9        0.000000       -0.538778         1    ;  uncertainty k = 0.755938
         3         2         1        30     9      180.000000       -1.113041         2    ;  uncertainty k = 0.481363
         3         2         1        30     9        0.000000        0.319969         3    ;  uncertainty k = 0.159962
         3         2         1        30     9      180.000000        0.224213         4    ;  uncertainty k = 0.109432
         3         2         1        31     9        0.000000       -0.538778         1    ;  uncertainty k = 0.755938
         3         2         1        31     9      180.000000       -1.113041         2    ;  uncertainty k = 0.481363
         3         2         1        31     9        0.000000        0.319969         3    ;  uncertainty k = 0.159962
         3         2         1        31     9      180.000000        0.224213         4    ;  uncertainty k = 0.109432
         3         2         9         8     9        0.000000        4.337416         1    ;  uncertainty k = 2.338936
         3         2         9         8     9      180.000000       -1.983174         2    ;  uncertainty k = 1.671322
         3         2         9         8     9        0.000000       -0.125779         3    ;  uncertainty k = 0.934441
         3         2         9         8     9      180.000000        0.703976         4    ;  uncertainty k = 0.311856
         3         2         9        10     9        0.000000        3.410002         1    ;  uncertainty k = 2.543228
         3         2         9        10     9      180.000000        8.043546         2    ;  uncertainty k = 0.978969
         3         2         9        10     9        0.000000        0.982680         3    ;  uncertainty k = 0.410397
         3         2         9        10     9      180.000000       -0.009606         4    ;  uncertainty k = 0.325040
         3         5         6         7     9        0.000000       -1.559123         1    ;  uncertainty k = 0.996207
         3         5         6         7     9      180.000000        0.692977         2    ;  uncertainty k = 0.583570
         3         5         6         7     9        0.000000        0.376445         3    ;  uncertainty k = 0.154005
         3         5         6         7     9      180.000000        0.191360         4    ;  uncertainty k = 0.052946
         3         5         6         8     9        0.000000        0.400597         1    ;  uncertainty k = 1.962354
         3         5         6         8     9      180.000000        0.402338         2    ;  uncertainty k = 0.917561
         3         5         6         8     9        0.000000       -0.253473         3    ;  uncertainty k = 0.472714
         3         5         6         8     9      180.000000        0.288423         4    ;  uncertainty k = 0.198771
         3         5         6        11     9        0.000000        0.044462         1    ;  uncertainty k = 0.809430
         3         5         6        11     9      180.000000       -0.364436         2    ;  uncertainty k = 0.606476
         3         5         6        11     9        0.000000        0.268223         3    ;  uncertainty k = 0.274634
         3         5         6        11     9      180.000000        0.315667         4    ;  uncertainty k = 0.202180
         4         3         2         9     9        0.000000        3.395869         1    ;  uncertainty k = 2.091496
         4         3         2         9     9      180.000000        4.242347         2    ;  uncertainty k = 1.742336
         4         3         2         9     9        0.000000        0.124319         3    ;  uncertainty k = 0.689762
         4         3         2         9     9      180.000000       -0.115033         4    ;  uncertainty k = 0.313141
         4         3         5         6     9        0.000000        5.253049         1    ;  uncertainty k = 1.645342
         4         3         5         6     9      180.000000        8.648881         2    ;  uncertainty k = 0.533458
         4         3         5         6     9        0.000000        0.467744         3    ;  uncertainty k = 0.716062
         4         3         5         6     9      180.000000       -0.188093         4    ;  uncertainty k = 0.337633
         4         3         5        46     9        0.000000        1.484349         1    ;  uncertainty k = 1.689491
         4         3         5        46     9      180.000000        9.553867         2    ;  uncertainty k = 0.691350
         4         3         5        46     9        0.000000        1.458048         3    ;  uncertainty k = 0.487985
         4         3         5        46     9      180.000000       -0.282585         4    ;  uncertainty k = 0.400573
         5         3         2         9     9        0.000000        9.246067         1    ;  uncertainty k = 1.887875
         5         3         2         9     9      180.000000        2.270907         2    ;  uncertainty k = 2.248004
         5         3         2         9     9        0.000000       -0.387225         3    ;  uncertainty k = 0.756470
         5         3         2         9     9      180.000000        0.430324         4    ;  uncertainty k = 0.523290
         5         3         4        32     9        0.000000        4.534157         1    ;  uncertainty k = 2.434019
         5         3         4        32     9      180.000000        9.295633         2    ;  uncertainty k = 0.513279
         5         3         4        32     9        0.000000        1.256278         3    ;  uncertainty k = 0.365820
         5         3         4        32     9      180.000000       -0.599314         4    ;  uncertainty k = 0.348224
         5         3         4        33     9        0.000000        4.534157         1    ;  uncertainty k = 2.434019
         5         3         4        33     9      180.000000        9.295633         2    ;  uncertainty k = 0.513279
         5         3         4        33     9        0.000000        1.256278         3    ;  uncertainty k = 0.365820
         5         3         4        33     9      180.000000       -0.599314         4    ;  uncertainty k = 0.348224
         5         6         7        34     9        0.000000       -1.560152         1    ;  uncertainty k = 0.692106
         5         6         7        34     9      180.000000       -0.870775         2    ;  uncertainty k = 0.417543
         5         6         7        34     9        0.000000        0.945102         3    ;  uncertainty k = 0.108690
         5         6         7        34     9      180.000000       -0.248422         4    ;  uncertainty k = 0.157030
         5         6         7        35     9        0.000000       -1.560152         1    ;  uncertainty k = 0.692106
         5         6         7        35     9      180.000000       -0.870775         2    ;  uncertainty k = 0.417543
         5         6         7        35     9        0.000000        0.945102         3    ;  uncertainty k = 0.108690
         5         6         7        35     9      180.000000       -0.248422         4    ;  uncertainty k = 0.157030
         5         6         7        36     9        0.000000       -1.560152         1    ;  uncertainty k = 0.692106
         5         6         7        36     9      180.000000       -0.870775         2    ;  uncertainty k = 0.417543
         5         6         7        36     9        0.000000        0.945102         3    ;  uncertainty k = 0.108690
         5         6         7        36     9      180.000000       -0.248422         4    ;  uncertainty k = 0.157030
         5         6         8         9     9        0.000000        7.955862         1    ;  uncertainty k = 1.904049
         5         6         8         9     9      180.000000       -5.285114         2    ;  uncertainty k = 1.122030
         5         6         8         9     9        0.000000       -0.845708         3    ;  uncertainty k = 0.659958
         5         6         8         9     9      180.000000       -0.037197         4    ;  uncertainty k = 0.387605
         5         6         8        37     9        0.000000       -1.070018         1    ;  uncertainty k = 0.758866
         5         6         8        37     9      180.000000       -0.931278         2    ;  uncertainty k = 0.529993
         5         6         8        37     9        0.000000        0.103678         3    ;  uncertainty k = 0.154029
         5         6         8        37     9      180.000000       -0.273167         4    ;  uncertainty k = 0.125269
         5         6         8        38     9        0.000000       -1.070018         1    ;  uncertainty k = 0.758866
         5         6         8        38     9      180.000000       -0.931278         2    ;  uncertainty k = 0.529993
         5         6         8        38     9        0.000000        0.103678         3    ;  uncertainty k = 0.154029
         5         6         8        38     9      180.000000       -0.273167         4    ;  uncertainty k = 0.125269
         5         6        11        12     9        0.000000       -0.428645         1    ;  uncertainty k = 1.464380
         5         6        11        12     9      180.000000        2.517325         2    ;  uncertainty k = 0.186817
         5         6        11        12     9        0.000000        0.078448         3    ;  uncertainty k = 0.187189
         5         6        11        12     9      180.000000        0.337729         4    ;  uncertainty k = 0.119169
         5         6        11        16     9        0.000000        0.194446         1    ;  uncertainty k = 0.940812
         5         6        11        16     9      180.000000        1.737965         2    ;  uncertainty k = 0.607922
         5         6        11        16     9        0.000000        0.666225         3    ;  uncertainty k = 0.424452
         5         6        11        16     9      180.000000        0.254872         4    ;  uncertainty k = 0.127038
         6         8         9        10     9        0.000000        1.156339         1    ;  uncertainty k = 2.645252
         6         8         9        10     9      180.000000        3.658802         2    ;  uncertainty k = 1.929693
         6         8         9        10     9        0.000000        1.422030         3    ;  uncertainty k = 0.548756
         6         8         9        10     9      180.000000        1.026155         4    ;  uncertainty k = 0.385755
         6        11        12        13     9        0.000000        0.240765         1    ;  uncertainty k = 0.369457
         6        11        12        13     9      180.000000        7.926970         2    ;  uncertainty k = 0.395720
         6        11        12        13     9        0.000000        1.559671         3    ;  uncertainty k = 0.268165
         6        11        12        13     9      180.000000        1.996835         4    ;  uncertainty k = 0.235395
         6        11        12        39     9        0.000000       -0.030015         1    ;  uncertainty k = 0.440087
         6        11        12        39     9      180.000000        7.545355         2    ;  uncertainty k = 0.249174
         6        11        12        39     9        0.000000        0.671120         3    ;  uncertainty k = 0.376702
         6        11        12        39     9      180.000000        1.141634         4    ;  uncertainty k = 0.105209
         6        11        16        15     9        0.000000        0.600138         1    ;  uncertainty k = 0.641507
         6        11        16        15     9      180.000000        6.478021         2    ;  uncertainty k = 0.291953
         6        11        16        15     9        0.000000        1.179498         3    ;  uncertainty k = 0.186178
         6        11        16        15     9      180.000000        1.656044         4    ;  uncertainty k = 0.151451
         6        11        16        17     9        0.000000        0.036661         1    ;  uncertainty k = 0.312227
         6        11        16        17     9      180.000000       10.105788         2    ;  uncertainty k = 0.343406
         6        11        16        17     9        0.000000        1.043740         3    ;  uncertainty k = 0.322974
         6        11        16        17     9      180.000000        1.317931         4    ;  uncertainty k = 0.145887
         7         6         5        46     9        0.000000        0.422189         1    ;  uncertainty k = 0.912221
         7         6         5        46     9      180.000000       -0.016174         2    ;  uncertainty k = 0.498394
         7         6         5        46     9        0.000000        0.358451         3    ;  uncertainty k = 0.216654
         7         6         5        46     9      180.000000        0.156531         4    ;  uncertainty k = 0.074567
         7         6         8         9     9        0.000000       -3.445831         1    ;  uncertainty k = 0.577713
         7         6         8         9     9      180.000000        1.000571         2    ;  uncertainty k = 0.159578
         7         6         8         9     9        0.000000        0.416750         3    ;  uncertainty k = 0.465963
         7         6         8         9     9      180.000000       -0.108520         4    ;  uncertainty k = 0.136148
         7         6         8        37     9        0.000000       -0.802553         1    ;  uncertainty k = 0.394285
         7         6         8        37     9      180.000000        0.276116         2    ;  uncertainty k = 0.372721
         7         6         8        37     9        0.000000        0.095890         3    ;  uncertainty k = 0.163311
         7         6         8        37     9      180.000000       -0.108559         4    ;  uncertainty k = 0.108033
         7         6         8        38     9        0.000000       -0.802553         1    ;  uncertainty k = 0.394285
         7         6         8        38     9      180.000000        0.276116         2    ;  uncertainty k = 0.372721
         7         6         8        38     9        0.000000        0.095890         3    ;  uncertainty k = 0.163311
         7         6         8        38     9      180.000000       -0.108559         4    ;  uncertainty k = 0.108033
         7         6        11        12     9        0.000000       -0.256818         1    ;  uncertainty k = 0.663724
         7         6        11        12     9      180.000000        2.904400         2    ;  uncertainty k = 0.260430
         7         6        11        12     9        0.000000       -0.046780         3    ;  uncertainty k = 0.264105
         7         6        11        12     9      180.000000        0.165686         4    ;  uncertainty k = 0.159180
         7         6        11        16     9        0.000000       -0.157361         1    ;  uncertainty k = 0.766397
         7         6        11        16     9      180.000000        2.874901         2    ;  uncertainty k = 0.241123
         7         6        11        16     9        0.000000        0.491546         3    ;  uncertainty k = 0.267477
         7         6        11        16     9      180.000000        0.163617         4    ;  uncertainty k = 0.097175
         8         6         5        46     9        0.000000       -1.544683         1    ;  uncertainty k = 2.130082
         8         6         5        46     9      180.000000       -1.837800         2    ;  uncertainty k = 1.054897
         8         6         5        46     9        0.000000       -0.066675         3    ;  uncertainty k = 0.271754
         8         6         5        46     9      180.000000        0.336614         4    ;  uncertainty k = 0.101855
         8         6         7        34     9        0.000000       -1.059783         1    ;  uncertainty k = 0.306808
         8         6         7        34     9      180.000000       -0.532508         2    ;  uncertainty k = 0.154200
         8         6         7        34     9        0.000000        0.688929         3    ;  uncertainty k = 0.192978
         8         6         7        34     9      180.000000       -0.160378         4    ;  uncertainty k = 0.106176
         8         6         7        35     9        0.000000       -1.059783         1    ;  uncertainty k = 0.306808
         8         6         7        35     9      180.000000       -0.532508         2    ;  uncertainty k = 0.154200
         8         6         7        35     9        0.000000        0.688929         3    ;  uncertainty k = 0.192978
         8         6         7        35     9      180.000000       -0.160378         4    ;  uncertainty k = 0.106176
         8         6         7        36     9        0.000000       -1.059783         1    ;  uncertainty k = 0.306808
         8         6         7        36     9      180.000000       -0.532508         2    ;  uncertainty k = 0.154200
         8         6         7        36     9        0.000000        0.688929         3    ;  uncertainty k = 0.192978
         8         6         7        36     9      180.000000       -0.160378         4    ;  uncertainty k = 0.106176
         8         6        11        12     9        0.000000       -0.877005         1    ;  uncertainty k = 0.710040
         8         6        11        12     9      180.000000        2.687289         2    ;  uncertainty k = 0.441172
         8         6        11        12     9        0.000000       -0.118467         3    ;  uncertainty k = 0.211495
         8         6        11        12     9      180.000000        0.191203         4    ;  uncertainty k = 0.048452
         8         6        11        16     9        0.000000       -1.196350         1    ;  uncertainty k = 0.579184
         8         6        11        16     9      180.000000        3.008171         2    ;  uncertainty k = 0.750652
         8         6        11        16     9        0.000000        0.453050         3    ;  uncertainty k = 0.196537
         8         6        11        16     9      180.000000        0.215695         4    ;  uncertainty k = 0.077130
         9         2         1        29     9        0.000000       -0.208663         1    ;  uncertainty k = 0.355046
         9         2         1        29     9      180.000000        0.043076         2    ;  uncertainty k = 0.345004
         9         2         1        29     9        0.000000        0.551328         3    ;  uncertainty k = 0.158411
         9         2         1        29     9      180.000000        0.448174         4    ;  uncertainty k = 0.058761
         9         2         1        30     9        0.000000       -0.208663         1    ;  uncertainty k = 0.355046
         9         2         1        30     9      180.000000        0.043076         2    ;  uncertainty k = 0.345004
         9         2         1        30     9        0.000000        0.551328         3    ;  uncertainty k = 0.158411
         9         2         1        30     9      180.000000        0.448174         4    ;  uncertainty k = 0.058761
         9         2         1        31     9        0.000000       -0.208663         1    ;  uncertainty k = 0.355046
         9         2         1        31     9      180.000000        0.043076         2    ;  uncertainty k = 0.345004
         9         2         1        31     9        0.000000        0.551328         3    ;  uncertainty k = 0.158411
         9         2         1        31     9      180.000000        0.448174         4    ;  uncertainty k = 0.058761
         9         8         6        11     9        0.000000       -1.567303         1    ;  uncertainty k = 0.769068
         9         8         6        11     9      180.000000       -0.011395         2    ;  uncertainty k = 0.389562
         9         8         6        11     9        0.000000        0.495788         3    ;  uncertainty k = 0.218666
         9         8         6        11     9      180.000000       -0.048991         4    ;  uncertainty k = 0.128791
        10         9         8        37     9        0.000000        1.264791         1    ;  uncertainty k = 1.159487
        10         9         8        37     9      180.000000        3.606361         2    ;  uncertainty k = 0.668965
        10         9         8        37     9        0.000000        0.294648         3    ;  uncertainty k = 0.220575
        10         9         8        37     9      180.000000        0.064559         4    ;  uncertainty k = 0.138809
        10         9         8        38     9        0.000000        1.264791         1    ;  uncertainty k = 1.159487
        10         9         8        38     9      180.000000        3.606361         2    ;  uncertainty k = 0.668965
        10         9         8        38     9        0.000000        0.294648         3    ;  uncertainty k = 0.220575
        10         9         8        38     9      180.000000        0.064559         4    ;  uncertainty k = 0.138809
        11         6         5        46     9        0.000000        3.263211         1    ;  uncertainty k = 2.082235
        11         6         5        46     9      180.000000       -1.349964         2    ;  uncertainty k = 0.494458
        11         6         5        46     9        0.000000       -0.032905         3    ;  uncertainty k = 0.170988
        11         6         5        46     9      180.000000        0.027806         4    ;  uncertainty k = 0.103782
        11         6         7        34     9        0.000000        0.596240         1    ;  uncertainty k = 0.578788
        11         6         7        34     9      180.000000       -0.490774         2    ;  uncertainty k = 0.469333
        11         6         7        34     9        0.000000        0.828955         3    ;  uncertainty k = 0.074674
        11         6         7        34     9      180.000000       -0.063381         4    ;  uncertainty k = 0.126715
        11         6         7        35     9        0.000000        0.596240         1    ;  uncertainty k = 0.578788
        11         6         7        35     9      180.000000       -0.490774         2    ;  uncertainty k = 0.469333
        11         6         7        35     9        0.000000        0.828955         3    ;  uncertainty k = 0.074674
        11         6         7        35     9      180.000000       -0.063381         4    ;  uncertainty k = 0.126715
        11         6         7        36     9        0.000000        0.596240         1    ;  uncertainty k = 0.578788
        11         6         7        36     9      180.000000       -0.490774         2    ;  uncertainty k = 0.469333
        11         6         7        36     9        0.000000        0.828955         3    ;  uncertainty k = 0.074674
        11         6         7        36     9      180.000000       -0.063381         4    ;  uncertainty k = 0.126715
        11         6         8        37     9        0.000000        0.501753         1    ;  uncertainty k = 0.345261
        11         6         8        37     9      180.000000       -0.380746         2    ;  uncertainty k = 0.437103
        11         6         8        37     9        0.000000        0.337648         3    ;  uncertainty k = 0.052206
        11         6         8        37     9      180.000000       -0.156279         4    ;  uncertainty k = 0.093222
        11         6         8        38     9        0.000000        0.501753         1    ;  uncertainty k = 0.345261
        11         6         8        38     9      180.000000       -0.380746         2    ;  uncertainty k = 0.437103
        11         6         8        38     9        0.000000        0.337648         3    ;  uncertainty k = 0.052206
        11         6         8        38     9      180.000000       -0.156279         4    ;  uncertainty k = 0.093222
        11        12        13        14     9        0.000000       -0.049840         1    ;  uncertainty k = 0.223702
        11        12        13        14     9      180.000000        7.874627         2    ;  uncertainty k = 0.474312
        11        12        13        14     9        0.000000        0.233189         3    ;  uncertainty k = 0.313947
        11        12        13        14     9      180.000000        1.335086         4    ;  uncertainty k = 0.300915
        11        12        13        18     9        0.000000        0.224833         1    ;  uncertainty k = 0.195042
        11        12        13        18     9      180.000000        9.116176         2    ;  uncertainty k = 0.579023
        11        12        13        18     9        0.000000        1.231701         3    ;  uncertainty k = 0.424415
        11        12        13        18     9      180.000000        1.651409         4    ;  uncertainty k = 0.316946
        11        16        15        14     9        0.000000        0.032009         1    ;  uncertainty k = 0.190796
        11        16        15        14     9      180.000000        7.849069         2    ;  uncertainty k = 0.449976
        11        16        15        14     9        0.000000        0.186456         3    ;  uncertainty k = 0.320891
        11        16        15        14     9      180.000000        1.349437         4    ;  uncertainty k = 0.203613
        11        16        15        41     9        0.000000        0.020024         1    ;  uncertainty k = 0.423103
        11        16        15        41     9      180.000000        5.455127         2    ;  uncertainty k = 0.725851
        11        16        15        41     9        0.000000        1.216278         3    ;  uncertainty k = 0.258670
        11        16        15        41     9      180.000000        1.446026         4    ;  uncertainty k = 0.151188
        12        11        16        15     9        0.000000       -0.475229         1    ;  uncertainty k = 0.324453
        12        11        16        15     9      180.000000        6.635719         2    ;  uncertainty k = 0.564400
        12        11        16        15     9        0.000000        0.240631         3    ;  uncertainty k = 0.276074
        12        11        16        15     9      180.000000        1.194255         4    ;  uncertainty k = 0.350922
        12        11        16        17     9        0.000000        0.044543         1    ;  uncertainty k = 0.349731
        12        11        16        17     9      180.000000       11.207864         2    ;  uncertainty k = 0.465945
        12        11        16        17     9        0.000000        1.425604         3    ;  uncertainty k = 0.228282
        12        11        16        17     9      180.000000        1.427345         4    ;  uncertainty k = 0.258872
        12        13        14        15     9        0.000000       -0.181166         1    ;  uncertainty k = 0.163944
        12        13        14        15     9      180.000000        9.696728         2    ;  uncertainty k = 0.429052
        12        13        14        15     9        0.000000       -0.038940         3    ;  uncertainty k = 0.130655
        12        13        14        15     9      180.000000        1.228488         4    ;  uncertainty k = 0.250923
        12        13        14        40     9        0.000000        0.184450         1    ;  uncertainty k = 0.349319
        12        13        14        40     9      180.000000        6.983556         2    ;  uncertainty k = 0.426384
        12        13        14        40     9        0.000000        1.207675         3    ;  uncertainty k = 0.359682
        12        13        14        40     9      180.000000        1.521226         4    ;  uncertainty k = 0.130479
        12        13        18        19     9        0.000000        1.178127         1    ;  uncertainty k = 0.673170
        12        13        18        19     9      180.000000        4.985384         2    ;  uncertainty k = 0.188862
        12        13        18        19     9        0.000000        0.968904         3    ;  uncertainty k = 0.157553
        12        13        18        19     9      180.000000        0.074162         4    ;  uncertainty k = 0.101930
        12        13        18        42     9        0.000000        1.045028         1    ;  uncertainty k = 1.391437
        12        13        18        42     9      180.000000        3.732288         2    ;  uncertainty k = 0.094018
        12        13        18        42     9        0.000000        0.684162         3    ;  uncertainty k = 0.098494
        12        13        18        42     9      180.000000        0.554276         4    ;  uncertainty k = 0.096898
        13        12        11        16     9        0.000000       -0.237331         1    ;  uncertainty k = 0.248404
        13        12        11        16     9      180.000000       11.350029         2    ;  uncertainty k = 0.337081
        13        12        11        16     9        0.000000        0.070935         3    ;  uncertainty k = 0.438088
        13        12        11        16     9      180.000000        1.060439         4    ;  uncertainty k = 0.371990
        13        14        15        16     9        0.000000       -0.140347         1    ;  uncertainty k = 0.299400
        13        14        15        16     9      180.000000       14.187283         2    ;  uncertainty k = 0.334432
        13        14        15        16     9        0.000000       -0.749631         3    ;  uncertainty k = 0.516125
        13        14        15        16     9      180.000000        0.824434         4    ;  uncertainty k = 0.277210
        13        14        15        41     9        0.000000        0.080532         1    ;  uncertainty k = 0.379377
        13        14        15        41     9      180.000000        8.010291         2    ;  uncertainty k = 0.359513
        13        14        15        41     9        0.000000        1.309768         3    ;  uncertainty k = 0.318083
        13        14        15        41     9      180.000000        1.772140         4    ;  uncertainty k = 0.113952
        13        18        19        20     9        0.000000        3.176694         1    ;  uncertainty k = 0.686058
        13        18        19        20     9      180.000000       14.165979         2    ;  uncertainty k = 0.246530
        13        18        19        20     9        0.000000        0.788760         3    ;  uncertainty k = 0.146397
        13        18        19        20     9      180.000000       -0.667347         4    ;  uncertainty k = 0.341998
        13        18        19        21     9        0.000000        4.292957         1    ;  uncertainty k = 1.204721
        13        18        19        21     9      180.000000       11.779405         2    ;  uncertainty k = 0.140096
        13        18        19        21     9        0.000000        2.218526         3    ;  uncertainty k = 0.283157
        13        18        19        21     9      180.000000       -1.449888         4    ;  uncertainty k = 0.264890
        14        13        12        39     9        0.000000        0.129786         1    ;  uncertainty k = 0.231518
        14        13        12        39     9      180.000000        6.807331         2    ;  uncertainty k = 0.544253
        14        13        12        39     9        0.000000        1.331042         3    ;  uncertainty k = 0.247809
        14        13        12        39     9      180.000000        1.555309         4    ;  uncertainty k = 0.149295
        14        13        18        19     9        0.000000        1.223137         1    ;  uncertainty k = 0.288895
        14        13        18        19     9      180.000000        4.736718         2    ;  uncertainty k = 0.098701
        14        13        18        19     9        0.000000        1.115654         3    ;  uncertainty k = 0.162831
        14        13        18        19     9      180.000000        0.087979         4    ;  uncertainty k = 0.062423
        14        13        18        42     9        0.000000        0.559873         1    ;  uncertainty k = 1.291674
        14        13        18        42     9      180.000000        3.618114         2    ;  uncertainty k = 0.079003
        14        13        18        42     9        0.000000        0.730095         3    ;  uncertainty k = 0.136531
        14        13        18        42     9      180.000000        0.618814         4    ;  uncertainty k = 0.147424
        14        15        16        17     9        0.000000       -0.105233         1    ;  uncertainty k = 0.297377
        14        15        16        17     9      180.000000       12.713459         2    ;  uncertainty k = 0.526663
        14        15        16        17     9        0.000000        1.372097         3    ;  uncertainty k = 0.337537
        14        15        16        17     9      180.000000        1.583061         4    ;  uncertainty k = 0.269395
        15        14        13        18     9        0.000000        0.091469         1    ;  uncertainty k = 0.141558
        15        14        13        18     9      180.000000       10.377818         2    ;  uncertainty k = 0.518475
        15        14        13        18     9        0.000000        1.057742         3    ;  uncertainty k = 0.488059
        15        14        13        18     9      180.000000        1.654922         4    ;  uncertainty k = 0.181974
        16        11        12        39     9        0.000000        0.117490         1    ;  uncertainty k = 0.173802
        16        11        12        39     9      180.000000        8.505464         2    ;  uncertainty k = 0.311877
        16        11        12        39     9        0.000000        1.496653         3    ;  uncertainty k = 0.322798
        16        11        12        39     9      180.000000        1.708394         4    ;  uncertainty k = 0.091049
        16        15        14        40     9        0.000000        0.025895         1    ;  uncertainty k = 0.320376
        16        15        14        40     9      180.000000        8.051534         2    ;  uncertainty k = 0.249673
        16        15        14        40     9        0.000000        1.354302         3    ;  uncertainty k = 0.326666
        16        15        14        40     9      180.000000        1.789734         4    ;  uncertainty k = 0.131148
        17        16        15        41     9        0.000000       -0.348882         1    ;  uncertainty k = 0.370578
        17        16        15        41     9      180.000000        9.399255         2    ;  uncertainty k = 0.292521
        17        16        15        41     9        0.000000        0.809685         3    ;  uncertainty k = 0.173261
        17        16        15        41     9      180.000000        1.066368         4    ;  uncertainty k = 0.100375
        18        13        12        39     9        0.000000       -0.008017         1    ;  uncertainty k = 0.274813
        18        13        12        39     9      180.000000        8.484590         2    ;  uncertainty k = 0.541230
        18        13        12        39     9        0.000000        0.827437         3    ;  uncertainty k = 0.154890
        18        13        12        39     9      180.000000        1.294443         4    ;  uncertainty k = 0.245453
        18        13        14        40     9        0.000000       -0.224827         1    ;  uncertainty k = 0.215527
        18        13        14        40     9      180.000000        8.504402         2    ;  uncertainty k = 0.490096
        18        13        14        40     9        0.000000        0.834880         3    ;  uncertainty k = 0.232136
        18        13        14        40     9      180.000000        1.185447         4    ;  uncertainty k = 0.204339
        18        19        21        22     9        0.000000       -0.575324         1    ;  uncertainty k = 0.793684
        18        19        21        22     9      180.000000        3.066006         2    ;  uncertainty k = 0.235825
        18        19        21        22     9        0.000000        0.194717         3    ;  uncertainty k = 0.169109
        18        19        21        22     9      180.000000        0.008275         4    ;  uncertainty k = 0.120938
        18        19        21        28     9        0.000000        2.380908         1    ;  uncertainty k = 1.513483
        18        19        21        28     9      180.000000        3.748366         2    ;  uncertainty k = 0.333428
        18        19        21        28     9        0.000000        0.208915         3    ;  uncertainty k = 0.417009
        18        19        21        28     9      180.000000        0.208494         4    ;  uncertainty k = 0.095457
        19        21        22        23     9        0.000000        0.007343         1    ;  uncertainty k = 0.411369
        19        21        22        23     9      180.000000        7.814028         2    ;  uncertainty k = 0.574511
        19        21        22        23     9        0.000000        1.202522         3    ;  uncertainty k = 0.263090
        19        21        22        23     9      180.000000        1.612403         4    ;  uncertainty k = 0.259655
        19        21        22        43     9        0.000000       -0.302389         1    ;  uncertainty k = 0.887283
        19        21        22        43     9      180.000000        6.847856         2    ;  uncertainty k = 0.586837
        19        21        22        43     9        0.000000        0.833352         3    ;  uncertainty k = 0.332479
        19        21        22        43     9      180.000000        0.935062         4    ;  uncertainty k = 0.302092
        19        21        28        27     9        0.000000        0.583607         1    ;  uncertainty k = 1.590902
        19        21        28        27     9      180.000000       13.112861         2    ;  uncertainty k = 0.466803
        19        21        28        27     9        0.000000        2.659121         3    ;  uncertainty k = 0.323322
        19        21        28        27     9      180.000000        1.649354         4    ;  uncertainty k = 0.468871
        20        19        18        42     9        0.000000        1.016594         1    ;  uncertainty k = 1.189432
        20        19        18        42     9      180.000000       12.886983         2    ;  uncertainty k = 0.597852
        20        19        18        42     9        0.000000        2.351686         3    ;  uncertainty k = 0.471966
        20        19        18        42     9      180.000000        0.107078         4    ;  uncertainty k = 0.239987
        20        19        21        22     9        0.000000       -1.076900         1    ;  uncertainty k = 0.441759
        20        19        21        22     9      180.000000        3.212519         2    ;  uncertainty k = 0.116135
        20        19        21        22     9        0.000000        0.431644         3    ;  uncertainty k = 0.336937
        20        19        21        22     9      180.000000       -0.007784         4    ;  uncertainty k = 0.063838
        20        19        21        28     9        0.000000       -2.875747         1    ;  uncertainty k = 1.849863
        20        19        21        28     9      180.000000        3.960683         2    ;  uncertainty k = 0.734801
        20        19        21        28     9        0.000000        0.599464         3    ;  uncertainty k = 0.254848
        20        19        21        28     9      180.000000        0.099120         4    ;  uncertainty k = 0.122641
        21        19        18        42     9        0.000000        1.250417         1    ;  uncertainty k = 1.341544
        21        19        18        42     9      180.000000        5.286516         2    ;  uncertainty k = 0.566009
        21        19        18        42     9        0.000000        1.889526         3    ;  uncertainty k = 0.457594
        21        19        18        42     9      180.000000        0.328888         4    ;  uncertainty k = 0.155149
        21        22        23        24     9        0.000000       -0.121097         1    ;  uncertainty k = 0.469058
        21        22        23        24     9      180.000000       13.550959         2    ;  uncertainty k = 0.235743
        21        22        23        24     9        0.000000       -0.756108         3    ;  uncertainty k = 0.335654
        21        22        23        24     9      180.000000        0.799918         4    ;  uncertainty k = 0.155475
        21        22        23        44     9        0.000000       -0.107032         1    ;  uncertainty k = 0.130573
        21        22        23        44     9      180.000000        8.171718         2    ;  uncertainty k = 0.450235
        21        22        23        44     9        0.000000        1.194439         3    ;  uncertainty k = 0.234666
        21        22        23        44     9      180.000000        1.510031         4    ;  uncertainty k = 0.137238
        21        28        27        24     9        0.000000       -0.431360         1    ;  uncertainty k = 0.569289
        21        28        27        24     9      180.000000       14.346598         2    ;  uncertainty k = 0.295972
        21        28        27        24     9        0.000000        1.263902         3    ;  uncertainty k = 0.598407
        21        28        27        24     9      180.000000        1.400695         4    ;  uncertainty k = 0.257775
        21        28        27        45     9        0.000000        0.295588         1    ;  uncertainty k = 0.583415
        21        28        27        45     9      180.000000       15.536544         2    ;  uncertainty k = 0.312629
        21        28        27        45     9        0.000000        2.183951         3    ;  uncertainty k = 0.594422
        21        28        27        45     9      180.000000        1.477465         4    ;  uncertainty k = 0.271622
        22        21        28        27     9        0.000000       -0.495826         1    ;  uncertainty k = 0.291262
        22        21        28        27     9      180.000000       12.278980         2    ;  uncertainty k = 0.339542
        22        21        28        27     9        0.000000        1.557759         3    ;  uncertainty k = 0.538309
        22        21        28        27     9      180.000000        1.284910         4    ;  uncertainty k = 0.261053
        22        23        24        25     9        0.000000        0.028066         1    ;  uncertainty k = 0.099121
        22        23        24        25     9      180.000000       10.305759         2    ;  uncertainty k = 0.240339
        22        23        24        25     9        0.000000        1.296065         3    ;  uncertainty k = 0.314772
        22        23        24        25     9      180.000000        1.442703         4    ;  uncertainty k = 0.095348
        22        23        24        27     9        0.000000       -0.099384         1    ;  uncertainty k = 0.187521
        22        23        24        27     9      180.000000       11.340527         2    ;  uncertainty k = 0.410633
        22        23        24        27     9        0.000000       -0.721004         3    ;  uncertainty k = 0.345912
        22        23        24        27     9      180.000000        0.839279         4    ;  uncertainty k = 0.357111
        23        22        21        28     9        0.000000       -0.211004         1    ;  uncertainty k = 0.204157
        23        22        21        28     9      180.000000       11.240587         2    ;  uncertainty k = 0.420100
        23        22        21        28     9        0.000000       -0.217589         3    ;  uncertainty k = 0.195307
        23        22        21        28     9      180.000000        1.162024         4    ;  uncertainty k = 0.190886
        23        24        25        26     9        0.000000        0.000000         1    ;  uncertainty k = 0.000000
        23        24        25        26     9      180.000000        0.000000         2    ;  uncertainty k = 0.000000
        23        24        25        26     9        0.000000        0.000000         3    ;  uncertainty k = 0.000000
        23        24        25        26     9      180.000000        0.000000         4    ;  uncertainty k = 0.000000
        23        24        27        28     9        0.000000       -0.395659         1    ;  uncertainty k = 0.272620
        23        24        27        28     9      180.000000       11.791068         2    ;  uncertainty k = 0.548692
        23        24        27        28     9        0.000000       -0.643212         3    ;  uncertainty k = 0.601270
        23        24        27        28     9      180.000000        1.094128         4    ;  uncertainty k = 0.164600
        23        24        27        45     9        0.000000       -0.261930         1    ;  uncertainty k = 0.302680
        23        24        27        45     9      180.000000        4.964235         2    ;  uncertainty k = 0.925782
        23        24        27        45     9        0.000000        0.984066         3    ;  uncertainty k = 0.066024
        23        24        27        45     9      180.000000        1.321595         4    ;  uncertainty k = 0.185914
        24        23        22        43     9        0.000000        0.154226         1    ;  uncertainty k = 0.281401
        24        23        22        43     9      180.000000        8.639007         2    ;  uncertainty k = 0.402183
        24        23        22        43     9        0.000000        1.255352         3    ;  uncertainty k = 0.449510
        24        23        22        43     9      180.000000        1.786934         4    ;  uncertainty k = 0.143907
        25        24        23        44     9        0.000000       -0.430703         1    ;  uncertainty k = 0.853819
        25        24        23        44     9      180.000000        7.185223         2    ;  uncertainty k = 0.288214
        25        24        23        44     9        0.000000        0.559582         3    ;  uncertainty k = 0.183885
        25        24        23        44     9      180.000000        0.937071         4    ;  uncertainty k = 0.184963
        25        24        27        28     9        0.000000        0.177358         1    ;  uncertainty k = 0.350658
        25        24        27        28     9      180.000000        9.841493         2    ;  uncertainty k = 0.330831
        25        24        27        28     9        0.000000        1.045470         3    ;  uncertainty k = 0.237527
        25        24        27        28     9      180.000000        1.498093         4    ;  uncertainty k = 0.187758
        25        24        27        45     9        0.000000       -0.240781         1    ;  uncertainty k = 0.594263
        25        24        27        45     9      180.000000        6.871727         2    ;  uncertainty k = 0.219624
        25        24        27        45     9        0.000000        0.601043         3    ;  uncertainty k = 0.272151
        25        24        27        45     9      180.000000        0.882497         4    ;  uncertainty k = 0.151905
        26        25        24        27     9        0.000000        0.000000         1    ;  uncertainty k = 0.000000
        26        25        24        27     9      180.000000        0.000000         2    ;  uncertainty k = 0.000000
        26        25        24        27     9        0.000000        0.000000         3    ;  uncertainty k = 0.000000
        26        25        24        27     9      180.000000        0.000000         4    ;  uncertainty k = 0.000000
        27        24        23        44     9        0.000000       -0.164144         1    ;  uncertainty k = 0.720129
        27        24        23        44     9      180.000000        6.254452         2    ;  uncertainty k = 0.577004
        27        24        23        44     9        0.000000        1.131316         3    ;  uncertainty k = 0.111182
        27        24        23        44     9      180.000000        1.444922         4    ;  uncertainty k = 0.155009
        28        21        22        43     9        0.000000       -0.041914         1    ;  uncertainty k = 0.434365
        28        21        22        43     9      180.000000        7.329732         2    ;  uncertainty k = 0.683751
        28        21        22        43     9        0.000000        0.945353         3    ;  uncertainty k = 0.114669
        28        21        22        43     9      180.000000        1.592211         4    ;  uncertainty k = 0.180739
        40        14        15        41     9        0.000000       -0.153106         1    ;  uncertainty k = 0.348612
        40        14        15        41     9      180.000000        8.236028         2    ;  uncertainty k = 0.380609
        40        14        15        41     9        0.000000       -0.419069         3    ;  uncertainty k = 0.255104
        40        14        15        41     9      180.000000        0.141943         4    ;  uncertainty k = 0.232374
        43        22        23        44     9        0.000000       -0.346628         1    ;  uncertainty k = 0.341371
        43        22        23        44     9      180.000000        8.493914         2    ;  uncertainty k = 0.524981
        43        22        23        44     9        0.000000       -0.336752         3    ;  uncertainty k = 0.267807
        43        22        23        44     9      180.000000        0.252052         4    ;  uncertainty k = 0.222344

[ dihedrals ] ; impropers
;       ai        aj        ak        al funct           phase               k        pn
         2         1         3         9     4      180.000000        3.488069         2    ;  uncertainty k = 0.874226
         2         3         9         1     4      180.000000        3.488069         2    ;  uncertainty k = 0.874226
         2         9         1         3     4      180.000000        3.488069         2    ;  uncertainty k = 0.874226
         3         2         4         5     4      180.000000       37.755696         2    ;  uncertainty k = 0.153939
         3         4         5         2     4      180.000000       37.755696         2    ;  uncertainty k = 0.153939
         3         5         2         4     4      180.000000       37.755696         2    ;  uncertainty k = 0.153939
         4         3        32        33     4      180.000000        0.189446         2    ;  uncertainty k = 0.423615
         4        32        33         3     4      180.000000        0.189446         2    ;  uncertainty k = 0.423615
         4        33         3        32     4      180.000000        0.189446         2    ;  uncertainty k = 0.423615
         5         3         6        46     4      180.000000        0.562955         2    ;  uncertainty k = 0.792027
         5         6        46         3     4      180.000000        0.562955         2    ;  uncertainty k = 0.792027
         5        46         3         6     4      180.000000        0.562955         2    ;  uncertainty k = 0.792027
         9         2         8        10     4      180.000000       53.494711         2    ;  uncertainty k = 0.038139
         9         8        10         2     4      180.000000       53.494711         2    ;  uncertainty k = 0.038139
         9        10         2         8     4      180.000000       53.494711         2    ;  uncertainty k = 0.038139
        11         6        12        16     4      180.000000       10.155582         2    ;  uncertainty k = 0.269535
        11        12        16         6     4      180.000000       10.155582         2    ;  uncertainty k = 0.269535
        11        16         6        12     4      180.000000       10.155582         2    ;  uncertainty k = 0.269535
        12        11        13        39     4      180.000000        3.829106         2    ;  uncertainty k = 0.385537
        12        13        39        11     4      180.000000        3.829106         2    ;  uncertainty k = 0.385537
        12        39        11        13     4      180.000000        3.829106         2    ;  uncertainty k = 0.385537
        13        12        14        18     4      180.000000       16.708732         2    ;  uncertainty k = 0.142820
        13        14        18        12     4      180.000000       16.708732         2    ;  uncertainty k = 0.142820
        13        18        12        14     4      180.000000       16.708732         2    ;  uncertainty k = 0.142820
        14        13        15        40     4      180.000000        3.616411         2    ;  uncertainty k = 0.252646
        14        15        40        13     4      180.000000        3.616411         2    ;  uncertainty k = 0.252646
        14        40        13        15     4      180.000000        3.616411         2    ;  uncertainty k = 0.252646
        15        14        16        41     4      180.000000        1.713696         2    ;  uncertainty k = 0.352462
        15        16        41        14     4      180.000000        1.713696         2    ;  uncertainty k = 0.352462
        15        41        14        16     4      180.000000        1.713696         2    ;  uncertainty k = 0.352462
        16        11        15        17     4      180.000000       14.944536         2    ;  uncertainty k = 0.138122
        16        15        17        11     4      180.000000       14.944536         2    ;  uncertainty k = 0.138122
        16        17        11        15     4      180.000000       14.944536         2    ;  uncertainty k = 0.138122
        18        13        19        42     4      180.000000        0.967094         2    ;  uncertainty k = 0.654939
        18        19        42        13     4      180.000000        0.967094         2    ;  uncertainty k = 0.654939
        18        42        13        19     4      180.000000        0.967094         2    ;  uncertainty k = 0.654939
        19        18        20        21     4      180.000000       48.912960         2    ;  uncertainty k = 0.023630
        19        20        21        18     4      180.000000       48.912960         2    ;  uncertainty k = 0.023630
        19        21        18        20     4      180.000000       48.912960         2    ;  uncertainty k = 0.023630
        21        19        22        28     4      180.000000       18.838186         2    ;  uncertainty k = 0.109233
        21        22        28        19     4      180.000000       18.838186         2    ;  uncertainty k = 0.109233
        21        28        19        22     4      180.000000       18.838186         2    ;  uncertainty k = 0.109233
        22        21        23        43     4      180.000000        4.232527         2    ;  uncertainty k = 0.159899
        22        23        43        21     4      180.000000        4.232527         2    ;  uncertainty k = 0.159899
        22        43        21        23     4      180.000000        4.232527         2    ;  uncertainty k = 0.159899
        23        22        24        44     4      180.000000        6.657182         2    ;  uncertainty k = 0.148063
        23        24        44        22     4      180.000000        6.657182         2    ;  uncertainty k = 0.148063
        23        44        22        24     4      180.000000        6.657182         2    ;  uncertainty k = 0.148063
        24        23        25        27     4      180.000000       10.064051         2    ;  uncertainty k = 0.216225
        24        25        27        23     4      180.000000       10.064051         2    ;  uncertainty k = 0.216225
        24        27        23        25     4      180.000000       10.064051         2    ;  uncertainty k = 0.216225
        27        24        28        45     4      180.000000       14.295601         2    ;  uncertainty k = 0.182127
        27        28        45        24     4      180.000000       14.295601         2    ;  uncertainty k = 0.182127
        27        45        24        28     4      180.000000       14.295601         2    ;  uncertainty k = 0.182127

[ pairs ]
;       ai        aj funct
         1         4     1
         1         5     1
         1         8     1
         1        10     1
         2         6     1
         2        32     1
         2        33     1
         2        37     1
         2        38     1
         2        46     1
         3         7     1
         3         8     1
         3        10     1
         3        11     1
         3        29     1
         3        30     1
         3        31     1
         4         6     1
         4         9     1
         4        46     1
         5         9     1
         5        12     1
         5        16     1
         5        32     1
         5        33     1
         5        34     1
         5        35     1
         5        36     1
         5        37     1
         5        38     1
         6        10     1
         6        13     1
         6        15     1
         6        17     1
         6        39     1
         7         9     1
         7        12     1
         7        16     1
         7        37     1
         7        38     1
         7        46     1
         8        12     1
         8        16     1
         8        34     1
         8        35     1
         8        36     1
         8        46     1
         9        11     1
         9        29     1
         9        30     1
         9        31     1
        10        37     1
        10        38     1
        11        14     1
        11        18     1
        11        34     1
        11        35     1
        11        36     1
        11        37     1
        11        38     1
        11        41     1
        11        46     1
        12        15     1
        12        17     1
        12        19     1
        12        40     1
        12        42     1
        13        16     1
        13        20     1
        13        21     1
        13        41     1
        14        17     1
        14        19     1
        14        39     1
        14        42     1
        15        18     1
        16        39     1
        16        40     1
        17        41     1
        18        22     1
        18        28     1
        18        39     1
        18        40     1
        19        23     1
        19        27     1
        19        43     1
        20        22     1
        20        28     1
        20        42     1
        21        24     1
        21        42     1
        21        44     1
        21        45     1
        22        25     1
        22        27     1
        23        26     1
        23        28     1
        23        45     1
        24        43     1
        25        28     1
        25        44     1
        25        45     1
        26        27     1
        27        44     1
        28        43     1
        40        41     1
        43        44     1
