; ITP file created by ByteFF-joint-25, 2025-07-14 11:32:20.677682

[ atomtypes ]
;name           bonded.type        at.num        mass        charge   ptype           sigma         epsilon
 c0bf                                   6      0.0000       0.00000       A     3.39775e-01     4.50862e-01    ;  uncertainty sigma = 0.000007, epsilon = 0.000770
 o1bf                                   8      0.0000       0.00000       A     3.15701e-01     3.04155e-01    ;  uncertainty sigma = 0.000016, epsilon = 0.001101
 c2bf                                   6      0.0000       0.00000       A     3.31546e-01     4.13288e-01    ;  uncertainty sigma = 0.000016, epsilon = 0.001729
 c3bf                                   6      0.0000       0.00000       A     3.31538e-01     4.13440e-01    ;  uncertainty sigma = 0.000008, epsilon = 0.001034
 n4bf                                   7      0.0000       0.00000       A     3.38390e-01     3.93325e-01    ;  uncertainty sigma = 0.000020, epsilon = 0.000402
 c5bf                                   6      0.0000       0.00000       A     3.31529e-01     4.12962e-01    ;  uncertainty sigma = 0.000009, epsilon = 0.000908
 c6bf                                   6      0.0000       0.00000       A     3.31550e-01     4.13644e-01    ;  uncertainty sigma = 0.000016, epsilon = 0.001518
 n7bf                                   7      0.0000       0.00000       A     3.38408e-01     3.93559e-01    ;  uncertainty sigma = 0.000020, epsilon = 0.000678
 c8bf                                   6      0.0000       0.00000       A     3.31512e-01     4.12533e-01    ;  uncertainty sigma = 0.000017, epsilon = 0.000770
 o9bf                                   8      0.0000       0.00000       A     3.04829e-01     6.12938e-01    ;  uncertainty sigma = 0.000026, epsilon = 0.001502
 n10bf                                  7      0.0000       0.00000       A     3.27000e-01     4.90789e-01    ;  uncertainty sigma = 0.000031, epsilon = 0.001094
 c11bf                                  6      0.0000       0.00000       A     3.31512e-01     4.13288e-01    ;  uncertainty sigma = 0.000007, epsilon = 0.001098
 c12bf                                  6      0.0000       0.00000       A     3.31527e-01     4.13336e-01    ;  uncertainty sigma = 0.000006, epsilon = 0.000429
 c13bf                                  6      0.0000       0.00000       A     3.31530e-01     4.13226e-01    ;  uncertainty sigma = 0.000003, epsilon = 0.000619
 c14bf                                  6      0.0000       0.00000       A     3.31546e-01     4.12950e-01    ;  uncertainty sigma = 0.000012, epsilon = 0.000221
 f15bf                                  9      0.0000       0.00000       A     3.03457e-01     3.47820e-01    ;  uncertainty sigma = 0.000024, epsilon = 0.001496
 c16bf                                  6      0.0000       0.00000       A     3.31476e-01     4.13991e-01    ;  uncertainty sigma = 0.000010, epsilon = 0.001399
 c17bf                                  6      0.0000       0.00000       A     3.31531e-01     4.13829e-01    ;  uncertainty sigma = 0.000013, epsilon = 0.001150
 c18bf                                  6      0.0000       0.00000       A     3.39814e-01     4.51098e-01    ;  uncertainty sigma = 0.000025, epsilon = 0.003336
 c19bf                                  6      0.0000       0.00000       A     3.39761e-01     4.50765e-01    ;  uncertainty sigma = 0.000009, epsilon = 0.001200
 c20bf                                  6      0.0000       0.00000       A     3.39741e-01     4.51120e-01    ;  uncertainty sigma = 0.000021, epsilon = 0.001041
 c21bf                                  6      0.0000       0.00000       A     3.31519e-01     4.13467e-01    ;  uncertainty sigma = 0.000015, epsilon = 0.001385
 o22bf                                  8      0.0000       0.00000       A     3.04866e-01     6.11575e-01    ;  uncertainty sigma = 0.000029, epsilon = 0.000747
 n23bf                                  7      0.0000       0.00000       A     3.18045e-01     6.86715e-01    ;  uncertainty sigma = 0.000056, epsilon = 0.002911
 c24bf                                  6      0.0000       0.00000       A     3.39779e-01     4.50875e-01    ;  uncertainty sigma = 0.000010, epsilon = 0.001294
 c25bf                                  6      0.0000       0.00000       A     3.31514e-01     4.11760e-01    ;  uncertainty sigma = 0.000063, epsilon = 0.001890
 n26bf                                  7      0.0000       0.00000       A     3.36760e-01     4.69957e-01    ;  uncertainty sigma = 0.000090, epsilon = 0.002477
 n27bf                                  7      0.0000       0.00000       A     3.27884e-01     6.44716e-01    ;  uncertainty sigma = 0.000149, epsilon = 0.009705
 h28bf                                  1      0.0000       0.00000       A     2.42204e-01     8.66227e-02    ;  uncertainty sigma = 0.000019, epsilon = 0.000473
 h29bf                                  1      0.0000       0.00000       A     2.42204e-01     8.66227e-02    ;  uncertainty sigma = 0.000019, epsilon = 0.000473
 h30bf                                  1      0.0000       0.00000       A     2.42204e-01     8.66227e-02    ;  uncertainty sigma = 0.000019, epsilon = 0.000473
 h31bf                                  1      0.0000       0.00000       A     2.53590e-01     6.71067e-02    ;  uncertainty sigma = 0.000043, epsilon = 0.000735
 h32bf                                  1      0.0000       0.00000       A     2.53700e-01     6.73606e-02    ;  uncertainty sigma = 0.000029, epsilon = 0.000744
 h33bf                                  1      0.0000       0.00000       A     1.10674e-01     4.15811e-02    ;  uncertainty sigma = 0.000084, epsilon = 0.000795
 h34bf                                  1      0.0000       0.00000       A     2.62560e-01     6.69889e-02    ;  uncertainty sigma = 0.000013, epsilon = 0.000439
 h35bf                                  1      0.0000       0.00000       A     2.62565e-01     6.69913e-02    ;  uncertainty sigma = 0.000012, epsilon = 0.000401
 h36bf                                  1      0.0000       0.00000       A     2.62560e-01     6.69861e-02    ;  uncertainty sigma = 0.000013, epsilon = 0.000605
 h37bf                                  1      0.0000       0.00000       A     2.60004e-01     8.68723e-02    ;  uncertainty sigma = 0.000016, epsilon = 0.000482
 h38bf                                  1      0.0000       0.00000       A     2.60004e-01     8.68723e-02    ;  uncertainty sigma = 0.000016, epsilon = 0.000482
 h39bf                                  1      0.0000       0.00000       A     2.60004e-01     8.68723e-02    ;  uncertainty sigma = 0.000016, epsilon = 0.000482
 h40bf                                  1      0.0000       0.00000       A     2.59995e-01     8.70719e-02    ;  uncertainty sigma = 0.000025, epsilon = 0.001286
 h41bf                                  1      0.0000       0.00000       A     2.59995e-01     8.70719e-02    ;  uncertainty sigma = 0.000025, epsilon = 0.001286
 h42bf                                  1      0.0000       0.00000       A     2.42164e-01     8.70780e-02    ;  uncertainty sigma = 0.000026, epsilon = 0.000567
 h43bf                                  1      0.0000       0.00000       A     2.42164e-01     8.70780e-02    ;  uncertainty sigma = 0.000026, epsilon = 0.000567
 h44bf                                  1      0.0000       0.00000       A     2.42164e-01     8.70780e-02    ;  uncertainty sigma = 0.000026, epsilon = 0.000567
 h45bf                                  1      0.0000       0.00000       A     1.10673e-01     4.15035e-02    ;  uncertainty sigma = 0.000108, epsilon = 0.001195
 h46bf                                  1      0.0000       0.00000       A     1.10673e-01     4.15035e-02    ;  uncertainty sigma = 0.000108, epsilon = 0.001195
 h47bf                                  1      0.0000       0.00000       A     1.10625e-01     4.07568e-02    ;  uncertainty sigma = 0.000197, epsilon = 0.002094

[ moleculetype ]
;name             nrexcl
 MOL                   3

[ atoms ]
;       nr            type      resi   res      atom      cgnr      charge          mass ; qtot
         1            c0bf         1   UNL        c0         1     0.13023       12.0110 ; qtot    0.130
         2            o1bf         1   UNL        o1         2    -0.43706       15.9990 ; qtot   -0.307
         3            c2bf         1   UNL        c2         3     0.54651       12.0110 ; qtot    0.240
         4            c3bf         1   UNL        c3         4     0.26238       12.0110 ; qtot    0.502
         5            n4bf         1   UNL        n4         5    -0.60306       14.0070 ; qtot   -0.101
         6            c5bf         1   UNL        c5         6     0.19946       12.0110 ; qtot    0.098
         7            c6bf         1   UNL        c6         7     0.38951       12.0110 ; qtot    0.488
         8            n7bf         1   UNL        n7         8    -0.71914       14.0070 ; qtot   -0.231
         9            c8bf         1   UNL        c8         9     0.59147       12.0110 ; qtot    0.360
        10            o9bf         1   UNL        o9        10    -0.57869       15.9990 ; qtot   -0.218
        11           n10bf         1   UNL       n10        11    -0.46218       14.0070 ; qtot   -0.681
        12           c11bf         1   UNL       c11        12     0.07687       12.0110 ; qtot   -0.604
        13           c12bf         1   UNL       c12        13    -0.12646       12.0110 ; qtot   -0.730
        14           c13bf         1   UNL       c13        14    -0.11323       12.0110 ; qtot   -0.843
        15           c14bf         1   UNL       c14        15     0.11635       12.0110 ; qtot   -0.727
        16           f15bf         1   UNL       f15        16    -0.14859       18.9980 ; qtot   -0.876
        17           c16bf         1   UNL       c16        17    -0.14536       12.0110 ; qtot   -1.021
        18           c17bf         1   UNL       c17        18    -0.10984       12.0110 ; qtot   -1.131
        19           c18bf         1   UNL       c18        19     0.15193       12.0110 ; qtot   -0.979
        20           c19bf         1   UNL       c19        20    -0.11350       12.0110 ; qtot   -1.092
        21           c20bf         1   UNL       c20        21    -0.17413       12.0110 ; qtot   -1.267
        22           c21bf         1   UNL       c21        22     0.71609       12.0110 ; qtot   -0.550
        23           o22bf         1   UNL       o22        23    -0.46646       15.9990 ; qtot   -1.017
        24           n23bf         1   UNL       n23        24    -0.43756       14.0070 ; qtot   -1.454
        25           c24bf         1   UNL       c24        25     0.04963       12.0110 ; qtot   -1.405
        26           c25bf         1   UNL       c25        26     0.48213       12.0110 ; qtot   -0.923
        27           n26bf         1   UNL       n26        27    -0.50478       14.0070 ; qtot   -1.427
        28           n27bf         1   UNL       n27        28    -0.38668       14.0070 ; qtot   -1.814
        29           h28bf         1   UNL       h28        29     0.05157        1.0080 ; qtot   -1.763
        30           h29bf         1   UNL       h29        30     0.05157        1.0080 ; qtot   -1.711
        31           h30bf         1   UNL       h30        31     0.05157        1.0080 ; qtot   -1.659
        32           h31bf         1   UNL       h31        32     0.04745        1.0080 ; qtot   -1.612
        33           h32bf         1   UNL       h32        33     0.05731        1.0080 ; qtot   -1.555
        34           h33bf         1   UNL       h33        34     0.34810        1.0080 ; qtot   -1.207
        35           h34bf         1   UNL       h34        35     0.15954        1.0080 ; qtot   -1.047
        36           h35bf         1   UNL       h35        36     0.16630        1.0080 ; qtot   -0.881
        37           h36bf         1   UNL       h36        37     0.16387        1.0080 ; qtot   -0.717
        38           h37bf         1   UNL       h37        38     0.07196        1.0080 ; qtot   -0.645
        39           h38bf         1   UNL       h38        39     0.07196        1.0080 ; qtot   -0.573
        40           h39bf         1   UNL       h39        40     0.07196        1.0080 ; qtot   -0.501
        41           h40bf         1   UNL       h40        41     0.11749        1.0080 ; qtot   -0.384
        42           h41bf         1   UNL       h41        42     0.11749        1.0080 ; qtot   -0.266
        43           h42bf         1   UNL       h42        43     0.08943        1.0080 ; qtot   -0.177
        44           h43bf         1   UNL       h43        44     0.08943        1.0080 ; qtot   -0.087
        45           h44bf         1   UNL       h44        45     0.08943        1.0080 ; qtot    0.002
        46           h45bf         1   UNL       h45        46     0.33098        1.0080 ; qtot    0.333
        47           h46bf         1   UNL       h46        47     0.33098        1.0080 ; qtot    0.664
        48           h47bf         1   UNL       h47        48     0.33577        1.0080 ; qtot    1.000

[ bonds ]
;       ai        aj funct               r               k
         1         2     1        0.142795   255880.048340    ;  uncertainty r = 0.000037, k = 4.748515
         1        29     1        0.109356   309005.560938    ;  uncertainty r = 0.000009, k = 1.137843
         1        30     1        0.109356   309005.560938    ;  uncertainty r = 0.000009, k = 1.137843
         1        31     1        0.109356   309005.560938    ;  uncertainty r = 0.000009, k = 1.137843
         2         3     1        0.134472   301313.630371    ;  uncertainty r = 0.000089, k = 7.872776
         3         4     1        0.140091   393913.334082    ;  uncertainty r = 0.000148, k = 5.892082
         3         8     1        0.131976   394101.823486    ;  uncertainty r = 0.000060, k = 6.425440
         4         5     1        0.131739   434619.639648    ;  uncertainty r = 0.000162, k = 14.171376
         4        32     1        0.109148   343886.519873    ;  uncertainty r = 0.000067, k = 2.866519
         5         6     1        0.133426   449310.679004    ;  uncertainty r = 0.000140, k = 18.294929
         6         7     1        0.138810   353774.080029    ;  uncertainty r = 0.000078, k = 20.234880
         6         9     1        0.149503   244951.212549    ;  uncertainty r = 0.000133, k = 20.899770
         7         8     1        0.132862   434797.173633    ;  uncertainty r = 0.000156, k = 15.000962
         7        33     1        0.108820   336159.067188    ;  uncertainty r = 0.000035, k = 1.832058
         9        10     1        0.123456   666741.749023    ;  uncertainty r = 0.000061, k = 4.842823
         9        11     1        0.136461   274597.574805    ;  uncertainty r = 0.000095, k = 19.259713
        11        12     1        0.140350   325475.208887    ;  uncertainty r = 0.000092, k = 12.223287
        11        34     1        0.101962   419189.249902    ;  uncertainty r = 0.000053, k = 6.194989
        12        13     1        0.140101   351857.111377    ;  uncertainty r = 0.000062, k = 3.465555
        12        18     1        0.140076   350643.715625    ;  uncertainty r = 0.000126, k = 5.776683
        13        14     1        0.138919   379009.059863    ;  uncertainty r = 0.000028, k = 4.451341
        13        35     1        0.108594   335979.822217    ;  uncertainty r = 0.000019, k = 2.815216
        14        15     1        0.138815   358758.923779    ;  uncertainty r = 0.000063, k = 5.580489
        14        36     1        0.108729   335202.676904    ;  uncertainty r = 0.000007, k = 1.041243
        15        16     1        0.136423   335134.135303    ;  uncertainty r = 0.000047, k = 5.847091
        15        17     1        0.139301   340628.725293    ;  uncertainty r = 0.000147, k = 7.009157
        17        18     1        0.139252   346690.979687    ;  uncertainty r = 0.000130, k = 5.041307
        17        19     1        0.151440   214005.266797    ;  uncertainty r = 0.000236, k = 16.363230
        18        37     1        0.108639   335283.323096    ;  uncertainty r = 0.000042, k = 2.896003
        19        20     1        0.153374   201429.734351    ;  uncertainty r = 0.000097, k = 8.556031
        19        21     1        0.153159   203928.157446    ;  uncertainty r = 0.000115, k = 13.365503
        19        28     1        0.149031   230523.818311    ;  uncertainty r = 0.000216, k = 24.317645
        20        38     1        0.109424   311928.512939    ;  uncertainty r = 0.000009, k = 2.894249
        20        39     1        0.109424   311928.512939    ;  uncertainty r = 0.000009, k = 2.894249
        20        40     1        0.109424   311928.512939    ;  uncertainty r = 0.000009, k = 2.894249
        21        22     1        0.151045   203840.067187    ;  uncertainty r = 0.000198, k = 13.413440
        21        41     1        0.109430   314471.421680    ;  uncertainty r = 0.000052, k = 2.778283
        21        42     1        0.109430   314471.421680    ;  uncertainty r = 0.000052, k = 2.778283
        22        23     1        0.120581   655340.349023    ;  uncertainty r = 0.000199, k = 21.290051
        22        24     1        0.143746   253678.775049    ;  uncertainty r = 0.000164, k = 80.639901
        24        25     1        0.147324   251134.231934    ;  uncertainty r = 0.000154, k = 24.190212
        24        26     1        0.136207   289370.511670    ;  uncertainty r = 0.000285, k = 39.958229
        25        43     1        0.109123   307429.053027    ;  uncertainty r = 0.000028, k = 2.127598
        25        44     1        0.109123   307429.053027    ;  uncertainty r = 0.000028, k = 2.127598
        25        45     1        0.109123   307429.053027    ;  uncertainty r = 0.000028, k = 2.127598
        26        27     1        0.134544   307986.936719    ;  uncertainty r = 0.000201, k = 58.704459
        26        28     1        0.133564   557221.463086    ;  uncertainty r = 0.000241, k = 55.754630
        27        46     1        0.101295   419556.933203    ;  uncertainty r = 0.000047, k = 11.267077
        27        47     1        0.101295   419556.933203    ;  uncertainty r = 0.000047, k = 11.267079
        28        48     1        0.101560   439225.512695    ;  uncertainty r = 0.000134, k = 8.127167

[ angles ]
;       ai        aj        ak funct           theta             cth
         1         2         3     1      109.386253      496.911991    ;  uncertainty theta = 0.002316, k = 0.103578
         2         1        29     1      108.285057      434.365737    ;  uncertainty theta = 0.001495, k = 0.035569
         2         1        30     1      108.285057      434.365737    ;  uncertainty theta = 0.001495, k = 0.035569
         2         1        31     1      108.285057      434.365737    ;  uncertainty theta = 0.001495, k = 0.035569
         2         3         4     1      119.508728      393.547732    ;  uncertainty theta = 0.008415, k = 0.362790
         2         3         8     1      118.894302      598.663901    ;  uncertainty theta = 0.005240, k = 0.112162
         3         4         5     1      119.797462      571.103742    ;  uncertainty theta = 0.003234, k = 0.097007
         3         4        32     1      123.316956      264.333007    ;  uncertainty theta = 0.005924, k = 0.066522
         3         8         7     1      115.076797      405.681179    ;  uncertainty theta = 0.009222, k = 0.215120
         4         3         8     1      120.379639      455.978974    ;  uncertainty theta = 0.005493, k = 0.221858
         4         5         6     1      120.784653      475.054588    ;  uncertainty theta = 0.005631, k = 0.196035
         5         4        32     1      118.479393      337.028587    ;  uncertainty theta = 0.004835, k = 0.225475
         5         6         7     1      121.923195      525.611936    ;  uncertainty theta = 0.004585, k = 0.116652
         5         6         9     1      116.233376      394.322145    ;  uncertainty theta = 0.005991, k = 0.221247
         6         7         8     1      121.959900      605.704099    ;  uncertainty theta = 0.003040, k = 0.195479
         6         7        33     1      120.281090      242.713530    ;  uncertainty theta = 0.006191, k = 0.102496
         6         9        10     1      121.462387      520.963862    ;  uncertainty theta = 0.002051, k = 0.123901
         6         9        11     1      111.543236      457.928636    ;  uncertainty theta = 0.003081, k = 0.108404
         7         6         9     1      121.976074      368.322622    ;  uncertainty theta = 0.006440, k = 0.125015
         8         7        33     1      119.370895      321.851595    ;  uncertainty theta = 0.004064, k = 0.182499
         9        11        12     1      116.806480      453.673292    ;  uncertainty theta = 0.005971, k = 0.054111
         9        11        34     1      116.940636      347.054871    ;  uncertainty theta = 0.004255, k = 0.138736
        10         9        11     1      122.929581      763.733606    ;  uncertainty theta = 0.001933, k = 0.062511
        11        12        13     1      119.894089      513.003818    ;  uncertainty theta = 0.004038, k = 0.167541
        11        12        18     1      119.106911      511.049048    ;  uncertainty theta = 0.006217, k = 0.057038
        12        11        34     1      113.265015      316.634811    ;  uncertainty theta = 0.005758, k = 0.113069
        12        13        14     1      118.863724      498.637247    ;  uncertainty theta = 0.002640, k = 0.113246
        12        13        35     1      118.858414      266.117014    ;  uncertainty theta = 0.001105, k = 0.050326
        12        18        17     1      122.306190      498.529735    ;  uncertainty theta = 0.002973, k = 0.170384
        12        18        37     1      118.498497      277.252279    ;  uncertainty theta = 0.002818, k = 0.074008
        13        12        18     1      120.372116      380.353857    ;  uncertainty theta = 0.008541, k = 0.212367
        13        14        15     1      119.716713      459.315716    ;  uncertainty theta = 0.002703, k = 0.248433
        13        14        36     1      121.226318      273.827337    ;  uncertainty theta = 0.003027, k = 0.016592
        14        13        35     1      120.299927      315.004585    ;  uncertainty theta = 0.001541, k = 0.082725
        14        15        16     1      118.368248      531.214969    ;  uncertainty theta = 0.002418, k = 0.194815
        14        15        17     1      124.818649      370.348098    ;  uncertainty theta = 0.007322, k = 0.227765
        15        14        36     1      119.769325      274.086220    ;  uncertainty theta = 0.001156, k = 0.041158
        15        17        18     1      121.760132      422.327799    ;  uncertainty theta = 0.004456, k = 0.138448
        15        17        19     1      116.958557      381.231759    ;  uncertainty theta = 0.007269, k = 0.198930
        16        15        17     1      115.651962      479.259018    ;  uncertainty theta = 0.002998, k = 0.033205
        17        18        37     1      117.312637      276.346828    ;  uncertainty theta = 0.005095, k = 0.130875
        17        19        20     1      110.898338      572.819772    ;  uncertainty theta = 0.005752, k = 0.148113
        17        19        21     1      109.839493      570.393491    ;  uncertainty theta = 0.006137, k = 0.132525
        17        19        28     1      107.829872      642.630249    ;  uncertainty theta = 0.005954, k = 0.224167
        18        17        19     1      117.802956      375.456956    ;  uncertainty theta = 0.005787, k = 0.134581
        19        20        38     1      107.176834      394.723461    ;  uncertainty theta = 0.002402, k = 0.117049
        19        20        39     1      107.176834      394.723461    ;  uncertainty theta = 0.002402, k = 0.117049
        19        20        40     1      107.176834      394.723461    ;  uncertainty theta = 0.002402, k = 0.117049
        19        21        22     1      111.158714      546.746064    ;  uncertainty theta = 0.007730, k = 0.197732
        19        21        41     1      107.364235      377.266293    ;  uncertainty theta = 0.004341, k = 0.139640
        19        21        42     1      107.364235      377.266293    ;  uncertainty theta = 0.004341, k = 0.139640
        19        28        26     1      120.614380      418.497711    ;  uncertainty theta = 0.007151, k = 0.291428
        19        28        48     1      114.810410      313.074427    ;  uncertainty theta = 0.008656, k = 0.327146
        20        19        21     1      109.611717      570.605769    ;  uncertainty theta = 0.002294, k = 0.110172
        20        19        28     1      108.368942      690.586003    ;  uncertainty theta = 0.004528, k = 0.153753
        21        19        28     1      106.007401      694.398949    ;  uncertainty theta = 0.008322, k = 0.225726
        21        22        23     1      126.717201      500.341753    ;  uncertainty theta = 0.007714, k = 0.227670
        21        22        24     1      113.646469      401.102503    ;  uncertainty theta = 0.002688, k = 0.212313
        22        21        41     1      105.847939      380.285928    ;  uncertainty theta = 0.004326, k = 0.106629
        22        21        42     1      105.847939      380.285928    ;  uncertainty theta = 0.004326, k = 0.106629
        22        24        25     1      115.926285      431.056798    ;  uncertainty theta = 0.006662, k = 0.129526
        22        24        26     1      122.278809      503.814129    ;  uncertainty theta = 0.010251, k = 0.447990
        23        22        24     1      121.239647      682.067398    ;  uncertainty theta = 0.006510, k = 0.206541
        24        25        43     1      107.559181      473.057746    ;  uncertainty theta = 0.001681, k = 0.126528
        24        25        44     1      107.559181      473.057746    ;  uncertainty theta = 0.001681, k = 0.126528
        24        25        45     1      107.559181      473.057746    ;  uncertainty theta = 0.001681, k = 0.126528
        24        26        27     1      120.606606      593.468568    ;  uncertainty theta = 0.003176, k = 0.306591
        24        26        28     1      121.642921      613.806067    ;  uncertainty theta = 0.006967, k = 0.493883
        25        24        26     1      115.143982      405.306007    ;  uncertainty theta = 0.007152, k = 0.306076
        26        27        46     1      115.149925      373.809047    ;  uncertainty theta = 0.003984, k = 0.186891
        26        27        47     1      115.149925      373.809047    ;  uncertainty theta = 0.003984, k = 0.186891
        26        28        48     1      116.509384      399.040285    ;  uncertainty theta = 0.012250, k = 0.308852
        27        26        28     1      124.262207      720.976057    ;  uncertainty theta = 0.011250, k = 0.233585
        29         1        30     1      109.278786      330.669080    ;  uncertainty theta = 0.002015, k = 0.025177
        29         1        31     1      109.278786      330.669080    ;  uncertainty theta = 0.002015, k = 0.025177
        30         1        31     1      109.278786      330.669080    ;  uncertainty theta = 0.002015, k = 0.025177
        38        20        39     1      106.052170      314.205465    ;  uncertainty theta = 0.001375, k = 0.026814
        38        20        40     1      106.052170      314.205465    ;  uncertainty theta = 0.001375, k = 0.026814
        39        20        40     1      106.052170      314.205465    ;  uncertainty theta = 0.001375, k = 0.026814
        41        21        42     1      107.444252      302.402277    ;  uncertainty theta = 0.001395, k = 0.127039
        43        25        44     1      107.420509      324.177100    ;  uncertainty theta = 0.003506, k = 0.110513
        43        25        45     1      107.420509      324.177100    ;  uncertainty theta = 0.003506, k = 0.110513
        44        25        45     1      107.420509      324.177100    ;  uncertainty theta = 0.003506, k = 0.110513
        46        27        47     1      112.138939      273.835413    ;  uncertainty theta = 0.016285, k = 0.318904

[ dihedrals ] ; propers for gromacs 4.5 or higher, use funct 9
;       ai        aj        ak        al funct           phase               k        pn
         1         2         3         4     9        0.000000        0.275109         1    ;  uncertainty k = 0.843775
         1         2         3         4     9      180.000000        8.567527         2    ;  uncertainty k = 0.404968
         1         2         3         4     9        0.000000        0.651292         3    ;  uncertainty k = 0.270918
         1         2         3         4     9      180.000000        0.278805         4    ;  uncertainty k = 0.159268
         1         2         3         8     9        0.000000        1.026822         1    ;  uncertainty k = 0.960205
         1         2         3         8     9      180.000000       10.169081         2    ;  uncertainty k = 0.243084
         1         2         3         8     9        0.000000        0.248884         3    ;  uncertainty k = 0.107773
         1         2         3         8     9      180.000000        0.426580         4    ;  uncertainty k = 0.163310
         2         3         4         5     9        0.000000        0.161656         1    ;  uncertainty k = 0.547654
         2         3         4         5     9      180.000000        5.979804         2    ;  uncertainty k = 0.929129
         2         3         4         5     9        0.000000        0.401462         3    ;  uncertainty k = 0.387255
         2         3         4         5     9      180.000000        1.088221         4    ;  uncertainty k = 0.428063
         2         3         4        32     9        0.000000       -0.285504         1    ;  uncertainty k = 0.817589
         2         3         4        32     9      180.000000        4.944944         2    ;  uncertainty k = 0.439480
         2         3         4        32     9        0.000000        0.551234         3    ;  uncertainty k = 0.296815
         2         3         4        32     9      180.000000        0.682876         4    ;  uncertainty k = 0.284084
         2         3         8         7     9        0.000000        1.095660         1    ;  uncertainty k = 1.438288
         2         3         8         7     9      180.000000       13.655385         2    ;  uncertainty k = 0.155872
         2         3         8         7     9        0.000000        2.467914         3    ;  uncertainty k = 0.275225
         2         3         8         7     9      180.000000        1.529399         4    ;  uncertainty k = 0.202379
         3         2         1        29     9        0.000000        1.381278         1    ;  uncertainty k = 0.206037
         3         2         1        29     9      180.000000       -0.323983         2    ;  uncertainty k = 0.111687
         3         2         1        29     9        0.000000        0.312198         3    ;  uncertainty k = 0.078013
         3         2         1        29     9      180.000000        0.413924         4    ;  uncertainty k = 0.049987
         3         2         1        30     9        0.000000        1.381278         1    ;  uncertainty k = 0.206037
         3         2         1        30     9      180.000000       -0.323983         2    ;  uncertainty k = 0.111687
         3         2         1        30     9        0.000000        0.312198         3    ;  uncertainty k = 0.078013
         3         2         1        30     9      180.000000        0.413924         4    ;  uncertainty k = 0.049987
         3         2         1        31     9        0.000000        1.381278         1    ;  uncertainty k = 0.206037
         3         2         1        31     9      180.000000       -0.323983         2    ;  uncertainty k = 0.111687
         3         2         1        31     9        0.000000        0.312198         3    ;  uncertainty k = 0.078013
         3         2         1        31     9      180.000000        0.413924         4    ;  uncertainty k = 0.049987
         3         4         5         6     9        0.000000        0.244075         1    ;  uncertainty k = 1.030615
         3         4         5         6     9      180.000000       15.172794         2    ;  uncertainty k = 0.364246
         3         4         5         6     9        0.000000        1.095348         3    ;  uncertainty k = 0.573190
         3         4         5         6     9      180.000000        1.585087         4    ;  uncertainty k = 0.296373
         3         8         7         6     9        0.000000       -0.078830         1    ;  uncertainty k = 1.175039
         3         8         7         6     9      180.000000       13.268419         2    ;  uncertainty k = 0.596463
         3         8         7         6     9        0.000000        0.967807         3    ;  uncertainty k = 0.583640
         3         8         7         6     9      180.000000        1.308372         4    ;  uncertainty k = 0.348667
         3         8         7        33     9        0.000000        0.560937         1    ;  uncertainty k = 0.559578
         3         8         7        33     9      180.000000       15.445073         2    ;  uncertainty k = 0.589105
         3         8         7        33     9        0.000000        2.103971         3    ;  uncertainty k = 0.871128
         3         8         7        33     9      180.000000        1.550223         4    ;  uncertainty k = 0.431779
         4         3         8         7     9        0.000000        0.013840         1    ;  uncertainty k = 0.808721
         4         3         8         7     9      180.000000        8.881691         2    ;  uncertainty k = 0.728547
         4         3         8         7     9        0.000000        1.669722         3    ;  uncertainty k = 0.475993
         4         3         8         7     9      180.000000        1.035665         4    ;  uncertainty k = 0.134088
         4         5         6         7     9        0.000000       -0.432302         1    ;  uncertainty k = 0.697067
         4         5         6         7     9      180.000000       11.179325         2    ;  uncertainty k = 0.368894
         4         5         6         7     9        0.000000        1.585695         3    ;  uncertainty k = 0.279010
         4         5         6         7     9      180.000000        1.144647         4    ;  uncertainty k = 0.264824
         4         5         6         9     9        0.000000        0.282493         1    ;  uncertainty k = 1.661029
         4         5         6         9     9      180.000000       13.516553         2    ;  uncertainty k = 0.686091
         4         5         6         9     9        0.000000        2.464690         3    ;  uncertainty k = 0.318011
         4         5         6         9     9      180.000000        1.447031         4    ;  uncertainty k = 0.443488
         5         4         3         8     9        0.000000       -0.737653         1    ;  uncertainty k = 0.253143
         5         4         3         8     9      180.000000        7.196018         2    ;  uncertainty k = 0.860500
         5         4         3         8     9        0.000000       -0.721575         3    ;  uncertainty k = 0.377360
         5         4         3         8     9      180.000000        1.019707         4    ;  uncertainty k = 0.583623
         5         6         7         8     9        0.000000       -0.402749         1    ;  uncertainty k = 0.236641
         5         6         7         8     9      180.000000       12.043383         2    ;  uncertainty k = 0.929581
         5         6         7         8     9        0.000000       -0.302456         3    ;  uncertainty k = 0.232107
         5         6         7         8     9      180.000000        1.246841         4    ;  uncertainty k = 0.487866
         5         6         7        33     9        0.000000       -0.211361         1    ;  uncertainty k = 0.461512
         5         6         7        33     9      180.000000        5.738048         2    ;  uncertainty k = 1.172620
         5         6         7        33     9        0.000000        0.881556         3    ;  uncertainty k = 0.236380
         5         6         7        33     9      180.000000        1.387547         4    ;  uncertainty k = 0.267866
         5         6         9        10     9        0.000000       -3.674156         1    ;  uncertainty k = 1.802642
         5         6         9        10     9      180.000000        4.850866         2    ;  uncertainty k = 0.864770
         5         6         9        10     9        0.000000        0.765586         3    ;  uncertainty k = 0.374761
         5         6         9        10     9      180.000000        0.008963         4    ;  uncertainty k = 0.103061
         5         6         9        11     9        0.000000        2.678358         1    ;  uncertainty k = 1.465066
         5         6         9        11     9      180.000000        4.207264         2    ;  uncertainty k = 0.314855
         5         6         9        11     9        0.000000        0.358689         3    ;  uncertainty k = 0.432617
         5         6         9        11     9      180.000000        0.120908         4    ;  uncertainty k = 0.101874
         6         5         4        32     9        0.000000        0.260774         1    ;  uncertainty k = 0.312008
         6         5         4        32     9      180.000000       16.616188         2    ;  uncertainty k = 0.365002
         6         5         4        32     9        0.000000        2.423025         3    ;  uncertainty k = 0.609442
         6         5         4        32     9      180.000000        1.585309         4    ;  uncertainty k = 0.237079
         6         9        11        12     9        0.000000        3.833801         1    ;  uncertainty k = 1.273750
         6         9        11        12     9      180.000000       12.070935         2    ;  uncertainty k = 0.212339
         6         9        11        12     9        0.000000        2.104018         3    ;  uncertainty k = 0.220826
         6         9        11        12     9      180.000000       -1.547502         4    ;  uncertainty k = 0.363797
         6         9        11        34     9        0.000000        0.759885         1    ;  uncertainty k = 1.330622
         6         9        11        34     9      180.000000        5.554004         2    ;  uncertainty k = 0.539017
         6         9        11        34     9        0.000000        2.122398         3    ;  uncertainty k = 0.383492
         6         9        11        34     9      180.000000        0.250906         4    ;  uncertainty k = 0.168194
         7         6         9        10     9        0.000000       -0.336719         1    ;  uncertainty k = 1.020029
         7         6         9        10     9      180.000000        3.844186         2    ;  uncertainty k = 0.830722
         7         6         9        10     9        0.000000        0.275673         3    ;  uncertainty k = 0.354119
         7         6         9        10     9      180.000000       -0.048057         4    ;  uncertainty k = 0.070291
         7         6         9        11     9        0.000000       -2.570712         1    ;  uncertainty k = 1.302411
         7         6         9        11     9      180.000000        3.064577         2    ;  uncertainty k = 0.444206
         7         6         9        11     9        0.000000       -0.057380         3    ;  uncertainty k = 0.620040
         7         6         9        11     9      180.000000       -0.029639         4    ;  uncertainty k = 0.366727
         8         3         4        32     9        0.000000       -0.312604         1    ;  uncertainty k = 0.921707
         8         3         4        32     9      180.000000        4.126589         2    ;  uncertainty k = 0.974182
         8         3         4        32     9        0.000000        0.688680         3    ;  uncertainty k = 0.353362
         8         3         4        32     9      180.000000        0.980083         4    ;  uncertainty k = 0.220265
         8         7         6         9     9        0.000000        0.441186         1    ;  uncertainty k = 0.619039
         8         7         6         9     9      180.000000        8.036127         2    ;  uncertainty k = 0.680293
         8         7         6         9     9        0.000000        0.915074         3    ;  uncertainty k = 0.277174
         8         7         6         9     9      180.000000        1.577696         4    ;  uncertainty k = 0.118797
         9         6         7        33     9        0.000000       -0.046601         1    ;  uncertainty k = 1.801172
         9         6         7        33     9      180.000000        6.073022         2    ;  uncertainty k = 0.532848
         9         6         7        33     9        0.000000        0.588814         3    ;  uncertainty k = 0.187458
         9         6         7        33     9      180.000000        0.695730         4    ;  uncertainty k = 0.393673
         9        11        12        13     9        0.000000        1.248276         1    ;  uncertainty k = 0.279174
         9        11        12        13     9      180.000000        4.673964         2    ;  uncertainty k = 0.109197
         9        11        12        13     9        0.000000        1.108720         3    ;  uncertainty k = 0.158487
         9        11        12        13     9      180.000000        0.094736         4    ;  uncertainty k = 0.055496
         9        11        12        18     9        0.000000        1.181736         1    ;  uncertainty k = 0.598529
         9        11        12        18     9      180.000000        4.910771         2    ;  uncertainty k = 0.153607
         9        11        12        18     9        0.000000        0.957488         3    ;  uncertainty k = 0.127507
         9        11        12        18     9      180.000000        0.082190         4    ;  uncertainty k = 0.092749
        10         9        11        12     9        0.000000        3.177635         1    ;  uncertainty k = 0.727186
        10         9        11        12     9      180.000000       14.149636         2    ;  uncertainty k = 0.173790
        10         9        11        12     9        0.000000        0.794919         3    ;  uncertainty k = 0.150671
        10         9        11        12     9      180.000000       -0.671251         4    ;  uncertainty k = 0.299412
        10         9        11        34     9        0.000000        1.051784         1    ;  uncertainty k = 1.224482
        10         9        11        34     9      180.000000       12.949142         2    ;  uncertainty k = 0.548437
        10         9        11        34     9        0.000000        2.400341         3    ;  uncertainty k = 0.460494
        10         9        11        34     9      180.000000        0.061721         4    ;  uncertainty k = 0.237015
        11        12        13        14     9        0.000000        0.106622         1    ;  uncertainty k = 0.162781
        11        12        13        14     9      180.000000       10.364186         2    ;  uncertainty k = 0.527934
        11        12        13        14     9        0.000000        1.065551         3    ;  uncertainty k = 0.488659
        11        12        13        14     9      180.000000        1.661694         4    ;  uncertainty k = 0.188102
        11        12        13        35     9        0.000000       -0.227737         1    ;  uncertainty k = 0.211618
        11        12        13        35     9      180.000000        8.485183         2    ;  uncertainty k = 0.490544
        11        12        13        35     9        0.000000        0.838680         3    ;  uncertainty k = 0.236671
        11        12        13        35     9      180.000000        1.186888         4    ;  uncertainty k = 0.206573
        11        12        18        17     9        0.000000        0.235265         1    ;  uncertainty k = 0.183657
        11        12        18        17     9      180.000000        9.102197         2    ;  uncertainty k = 0.572108
        11        12        18        17     9        0.000000        1.230568         3    ;  uncertainty k = 0.438652
        11        12        18        17     9      180.000000        1.655887         4    ;  uncertainty k = 0.319779
        11        12        18        37     9        0.000000       -0.001376         1    ;  uncertainty k = 0.275539
        11        12        18        37     9      180.000000        8.467357         2    ;  uncertainty k = 0.538590
        11        12        18        37     9        0.000000        0.828271         3    ;  uncertainty k = 0.159723
        11        12        18        37     9      180.000000        1.297697         4    ;  uncertainty k = 0.248141
        12        13        14        15     9        0.000000       -0.140347         1    ;  uncertainty k = 0.299399
        12        13        14        15     9      180.000000       14.187285         2    ;  uncertainty k = 0.334432
        12        13        14        15     9        0.000000       -0.749632         3    ;  uncertainty k = 0.516125
        12        13        14        15     9      180.000000        0.824434         4    ;  uncertainty k = 0.277210
        12        13        14        36     9        0.000000        0.080532         1    ;  uncertainty k = 0.379377
        12        13        14        36     9      180.000000        8.010292         2    ;  uncertainty k = 0.359513
        12        13        14        36     9        0.000000        1.309769         3    ;  uncertainty k = 0.318082
        12        13        14        36     9      180.000000        1.772140         4    ;  uncertainty k = 0.113952
        12        18        17        15     9        0.000000       -0.237333         1    ;  uncertainty k = 0.248404
        12        18        17        15     9      180.000000       11.350028         2    ;  uncertainty k = 0.337082
        12        18        17        15     9        0.000000        0.070934         3    ;  uncertainty k = 0.438089
        12        18        17        15     9      180.000000        1.060439         4    ;  uncertainty k = 0.371990
        12        18        17        19     9        0.000000        0.240765         1    ;  uncertainty k = 0.369454
        12        18        17        19     9      180.000000        7.926973         2    ;  uncertainty k = 0.395719
        12        18        17        19     9        0.000000        1.559670         3    ;  uncertainty k = 0.268165
        12        18        17        19     9      180.000000        1.996834         4    ;  uncertainty k = 0.235396
        13        12        11        34     9        0.000000        0.559996         1    ;  uncertainty k = 1.264898
        13        12        11        34     9      180.000000        3.575617         2    ;  uncertainty k = 0.081959
        13        12        11        34     9        0.000000        0.721606         3    ;  uncertainty k = 0.139042
        13        12        11        34     9      180.000000        0.635784         4    ;  uncertainty k = 0.154622
        13        12        18        17     9        0.000000       -0.049841         1    ;  uncertainty k = 0.223703
        13        12        18        17     9      180.000000        7.874626         2    ;  uncertainty k = 0.474312
        13        12        18        17     9        0.000000        0.233189         3    ;  uncertainty k = 0.313948
        13        12        18        17     9      180.000000        1.335086         4    ;  uncertainty k = 0.300915
        13        12        18        37     9        0.000000        0.129786         1    ;  uncertainty k = 0.231518
        13        12        18        37     9      180.000000        6.807331         2    ;  uncertainty k = 0.544252
        13        12        18        37     9        0.000000        1.331042         3    ;  uncertainty k = 0.247809
        13        12        18        37     9      180.000000        1.555309         4    ;  uncertainty k = 0.149295
        13        14        15        16     9        0.000000       -0.105232         1    ;  uncertainty k = 0.297377
        13        14        15        16     9      180.000000       12.713460         2    ;  uncertainty k = 0.526662
        13        14        15        16     9        0.000000        1.372097         3    ;  uncertainty k = 0.337537
        13        14        15        16     9      180.000000        1.583061         4    ;  uncertainty k = 0.269396
        13        14        15        17     9        0.000000        0.032011         1    ;  uncertainty k = 0.190797
        13        14        15        17     9      180.000000        7.849069         2    ;  uncertainty k = 0.449975
        13        14        15        17     9        0.000000        0.186456         3    ;  uncertainty k = 0.320890
        13        14        15        17     9      180.000000        1.349437         4    ;  uncertainty k = 0.203613
        14        13        12        18     9        0.000000       -0.181166         1    ;  uncertainty k = 0.163943
        14        13        12        18     9      180.000000        9.696729         2    ;  uncertainty k = 0.429051
        14        13        12        18     9        0.000000       -0.038939         3    ;  uncertainty k = 0.130655
        14        13        12        18     9      180.000000        1.228488         4    ;  uncertainty k = 0.250922
        14        15        17        18     9        0.000000       -0.475229         1    ;  uncertainty k = 0.324453
        14        15        17        18     9      180.000000        6.635719         2    ;  uncertainty k = 0.564400
        14        15        17        18     9        0.000000        0.240631         3    ;  uncertainty k = 0.276073
        14        15        17        18     9      180.000000        1.194255         4    ;  uncertainty k = 0.350922
        14        15        17        19     9        0.000000        0.600136         1    ;  uncertainty k = 0.641505
        14        15        17        19     9      180.000000        6.478020         2    ;  uncertainty k = 0.291955
        14        15        17        19     9        0.000000        1.179498         3    ;  uncertainty k = 0.186176
        14        15        17        19     9      180.000000        1.656044         4    ;  uncertainty k = 0.151451
        15        14        13        35     9        0.000000        0.025895         1    ;  uncertainty k = 0.320376
        15        14        13        35     9      180.000000        8.051535         2    ;  uncertainty k = 0.249673
        15        14        13        35     9        0.000000        1.354303         3    ;  uncertainty k = 0.326664
        15        14        13        35     9      180.000000        1.789734         4    ;  uncertainty k = 0.131148
        15        17        18        37     9        0.000000        0.117490         1    ;  uncertainty k = 0.173801
        15        17        18        37     9      180.000000        8.505466         2    ;  uncertainty k = 0.311875
        15        17        18        37     9        0.000000        1.496653         3    ;  uncertainty k = 0.322799
        15        17        18        37     9      180.000000        1.708394         4    ;  uncertainty k = 0.091050
        15        17        19        20     9        0.000000       -0.157360         1    ;  uncertainty k = 0.766395
        15        17        19        20     9      180.000000        2.874901         2    ;  uncertainty k = 0.241123
        15        17        19        20     9        0.000000        0.491546         3    ;  uncertainty k = 0.267477
        15        17        19        20     9      180.000000        0.163617         4    ;  uncertainty k = 0.097175
        15        17        19        21     9        0.000000       -1.196354         1    ;  uncertainty k = 0.579185
        15        17        19        21     9      180.000000        3.008170         2    ;  uncertainty k = 0.750652
        15        17        19        21     9        0.000000        0.453051         3    ;  uncertainty k = 0.196536
        15        17        19        21     9      180.000000        0.215695         4    ;  uncertainty k = 0.077129
        15        17        19        28     9        0.000000        0.194446         1    ;  uncertainty k = 0.940816
        15        17        19        28     9      180.000000        1.737966         2    ;  uncertainty k = 0.607922
        15        17        19        28     9        0.000000        0.666225         3    ;  uncertainty k = 0.424452
        15        17        19        28     9      180.000000        0.254871         4    ;  uncertainty k = 0.127038
        16        15        14        36     9        0.000000       -0.348881         1    ;  uncertainty k = 0.370578
        16        15        14        36     9      180.000000        9.399254         2    ;  uncertainty k = 0.292522
        16        15        14        36     9        0.000000        0.809684         3    ;  uncertainty k = 0.173261
        16        15        14        36     9      180.000000        1.066368         4    ;  uncertainty k = 0.100376
        16        15        17        18     9        0.000000        0.044544         1    ;  uncertainty k = 0.349730
        16        15        17        18     9      180.000000       11.207861         2    ;  uncertainty k = 0.465944
        16        15        17        18     9        0.000000        1.425603         3    ;  uncertainty k = 0.228282
        16        15        17        18     9      180.000000        1.427345         4    ;  uncertainty k = 0.258872
        16        15        17        19     9        0.000000        0.036660         1    ;  uncertainty k = 0.312226
        16        15        17        19     9      180.000000       10.105787         2    ;  uncertainty k = 0.343406
        16        15        17        19     9        0.000000        1.043740         3    ;  uncertainty k = 0.322974
        16        15        17        19     9      180.000000        1.317931         4    ;  uncertainty k = 0.145887
        17        15        14        36     9        0.000000        0.020024         1    ;  uncertainty k = 0.423103
        17        15        14        36     9      180.000000        5.455127         2    ;  uncertainty k = 0.725850
        17        15        14        36     9        0.000000        1.216278         3    ;  uncertainty k = 0.258669
        17        15        14        36     9      180.000000        1.446026         4    ;  uncertainty k = 0.151187
        17        19        20        38     9        0.000000        0.596239         1    ;  uncertainty k = 0.578789
        17        19        20        38     9      180.000000       -0.490772         2    ;  uncertainty k = 0.469331
        17        19        20        38     9        0.000000        0.828955         3    ;  uncertainty k = 0.074674
        17        19        20        38     9      180.000000       -0.063380         4    ;  uncertainty k = 0.126715
        17        19        20        39     9        0.000000        0.596239         1    ;  uncertainty k = 0.578789
        17        19        20        39     9      180.000000       -0.490772         2    ;  uncertainty k = 0.469331
        17        19        20        39     9        0.000000        0.828955         3    ;  uncertainty k = 0.074674
        17        19        20        39     9      180.000000       -0.063380         4    ;  uncertainty k = 0.126715
        17        19        20        40     9        0.000000        0.596239         1    ;  uncertainty k = 0.578789
        17        19        20        40     9      180.000000       -0.490772         2    ;  uncertainty k = 0.469331
        17        19        20        40     9        0.000000        0.828955         3    ;  uncertainty k = 0.074674
        17        19        20        40     9      180.000000       -0.063380         4    ;  uncertainty k = 0.126715
        17        19        21        22     9        0.000000       -1.567302         1    ;  uncertainty k = 0.769068
        17        19        21        22     9      180.000000       -0.011393         2    ;  uncertainty k = 0.389562
        17        19        21        22     9        0.000000        0.495788         3    ;  uncertainty k = 0.218666
        17        19        21        22     9      180.000000       -0.048990         4    ;  uncertainty k = 0.128791
        17        19        21        41     9        0.000000        0.501753         1    ;  uncertainty k = 0.345261
        17        19        21        41     9      180.000000       -0.380746         2    ;  uncertainty k = 0.437102
        17        19        21        41     9        0.000000        0.337648         3    ;  uncertainty k = 0.052205
        17        19        21        41     9      180.000000       -0.156279         4    ;  uncertainty k = 0.093222
        17        19        21        42     9        0.000000        0.501753         1    ;  uncertainty k = 0.345261
        17        19        21        42     9      180.000000       -0.380746         2    ;  uncertainty k = 0.437102
        17        19        21        42     9        0.000000        0.337648         3    ;  uncertainty k = 0.052205
        17        19        21        42     9      180.000000       -0.156279         4    ;  uncertainty k = 0.093222
        17        19        28        26     9        0.000000        0.044460         1    ;  uncertainty k = 0.809428
        17        19        28        26     9      180.000000       -0.364433         2    ;  uncertainty k = 0.606475
        17        19        28        26     9        0.000000        0.268223         3    ;  uncertainty k = 0.274635
        17        19        28        26     9      180.000000        0.315667         4    ;  uncertainty k = 0.202180
        17        19        28        48     9        0.000000        3.263214         1    ;  uncertainty k = 2.082234
        17        19        28        48     9      180.000000       -1.349963         2    ;  uncertainty k = 0.494458
        17        19        28        48     9        0.000000       -0.032904         3    ;  uncertainty k = 0.170988
        17        19        28        48     9      180.000000        0.027806         4    ;  uncertainty k = 0.103782
        18        12        11        34     9        0.000000        1.018614         1    ;  uncertainty k = 1.392618
        18        12        11        34     9      180.000000        3.692280         2    ;  uncertainty k = 0.102337
        18        12        11        34     9        0.000000        0.675019         3    ;  uncertainty k = 0.106311
        18        12        11        34     9      180.000000        0.571661         4    ;  uncertainty k = 0.102294
        18        12        13        35     9        0.000000        0.184450         1    ;  uncertainty k = 0.349318
        18        12        13        35     9      180.000000        6.983558         2    ;  uncertainty k = 0.426385
        18        12        13        35     9        0.000000        1.207675         3    ;  uncertainty k = 0.359683
        18        12        13        35     9      180.000000        1.521226         4    ;  uncertainty k = 0.130479
        18        17        19        20     9        0.000000       -0.256820         1    ;  uncertainty k = 0.663725
        18        17        19        20     9      180.000000        2.904401         2    ;  uncertainty k = 0.260431
        18        17        19        20     9        0.000000       -0.046780         3    ;  uncertainty k = 0.264104
        18        17        19        20     9      180.000000        0.165686         4    ;  uncertainty k = 0.159179
        18        17        19        21     9        0.000000       -0.877005         1    ;  uncertainty k = 0.710040
        18        17        19        21     9      180.000000        2.687287         2    ;  uncertainty k = 0.441172
        18        17        19        21     9        0.000000       -0.118467         3    ;  uncertainty k = 0.211495
        18        17        19        21     9      180.000000        0.191203         4    ;  uncertainty k = 0.048452
        18        17        19        28     9        0.000000       -0.428644         1    ;  uncertainty k = 1.464384
        18        17        19        28     9      180.000000        2.517325         2    ;  uncertainty k = 0.186817
        18        17        19        28     9        0.000000        0.078448         3    ;  uncertainty k = 0.187188
        18        17        19        28     9      180.000000        0.337729         4    ;  uncertainty k = 0.119169
        19        17        18        37     9        0.000000       -0.030014         1    ;  uncertainty k = 0.440087
        19        17        18        37     9      180.000000        7.545357         2    ;  uncertainty k = 0.249175
        19        17        18        37     9        0.000000        0.671120         3    ;  uncertainty k = 0.376702
        19        17        18        37     9      180.000000        1.141634         4    ;  uncertainty k = 0.105209
        19        21        22        23     9        0.000000        1.156343         1    ;  uncertainty k = 2.645254
        19        21        22        23     9      180.000000        3.658801         2    ;  uncertainty k = 1.929695
        19        21        22        23     9        0.000000        1.422030         3    ;  uncertainty k = 0.548757
        19        21        22        23     9      180.000000        1.026155         4    ;  uncertainty k = 0.385755
        19        21        22        24     9        0.000000       -2.858017         1    ;  uncertainty k = 2.356048
        19        21        22        24     9      180.000000        1.794352         2    ;  uncertainty k = 0.838094
        19        21        22        24     9        0.000000       -0.107582         3    ;  uncertainty k = 0.335617
        19        21        22        24     9      180.000000        0.372941         4    ;  uncertainty k = 0.156153
        19        28        26        24     9        0.000000        8.793330         1    ;  uncertainty k = 0.999323
        19        28        26        24     9      180.000000        5.364072         2    ;  uncertainty k = 1.054425
        19        28        26        24     9        0.000000        0.391839         3    ;  uncertainty k = 0.649189
        19        28        26        24     9      180.000000        0.259147         4    ;  uncertainty k = 0.358687
        19        28        26        27     9        0.000000        5.253046         1    ;  uncertainty k = 1.645342
        19        28        26        27     9      180.000000        8.648883         2    ;  uncertainty k = 0.533459
        19        28        26        27     9        0.000000        0.467744         3    ;  uncertainty k = 0.716062
        19        28        26        27     9      180.000000       -0.188093         4    ;  uncertainty k = 0.337633
        20        19        21        22     9        0.000000       -3.445832         1    ;  uncertainty k = 0.577714
        20        19        21        22     9      180.000000        1.000569         2    ;  uncertainty k = 0.159576
        20        19        21        22     9        0.000000        0.416749         3    ;  uncertainty k = 0.465963
        20        19        21        22     9      180.000000       -0.108520         4    ;  uncertainty k = 0.136148
        20        19        21        41     9        0.000000       -0.802552         1    ;  uncertainty k = 0.394285
        20        19        21        41     9      180.000000        0.276115         2    ;  uncertainty k = 0.372721
        20        19        21        41     9        0.000000        0.095891         3    ;  uncertainty k = 0.163311
        20        19        21        41     9      180.000000       -0.108559         4    ;  uncertainty k = 0.108033
        20        19        21        42     9        0.000000       -0.802552         1    ;  uncertainty k = 0.394285
        20        19        21        42     9      180.000000        0.276115         2    ;  uncertainty k = 0.372721
        20        19        21        42     9        0.000000        0.095891         3    ;  uncertainty k = 0.163311
        20        19        21        42     9      180.000000       -0.108559         4    ;  uncertainty k = 0.108033
        20        19        28        26     9        0.000000       -1.559122         1    ;  uncertainty k = 0.996205
        20        19        28        26     9      180.000000        0.692977         2    ;  uncertainty k = 0.583570
        20        19        28        26     9        0.000000        0.376445         3    ;  uncertainty k = 0.154005
        20        19        28        26     9      180.000000        0.191360         4    ;  uncertainty k = 0.052946
        20        19        28        48     9        0.000000        0.422190         1    ;  uncertainty k = 0.912221
        20        19        28        48     9      180.000000       -0.016176         2    ;  uncertainty k = 0.498395
        20        19        28        48     9        0.000000        0.358450         3    ;  uncertainty k = 0.216653
        20        19        28        48     9      180.000000        0.156531         4    ;  uncertainty k = 0.074567
        21        19        20        38     9        0.000000       -1.059786         1    ;  uncertainty k = 0.306807
        21        19        20        38     9      180.000000       -0.532508         2    ;  uncertainty k = 0.154204
        21        19        20        38     9        0.000000        0.688928         3    ;  uncertainty k = 0.192978
        21        19        20        38     9      180.000000       -0.160378         4    ;  uncertainty k = 0.106176
        21        19        20        39     9        0.000000       -1.059786         1    ;  uncertainty k = 0.306807
        21        19        20        39     9      180.000000       -0.532508         2    ;  uncertainty k = 0.154204
        21        19        20        39     9        0.000000        0.688928         3    ;  uncertainty k = 0.192978
        21        19        20        39     9      180.000000       -0.160378         4    ;  uncertainty k = 0.106176
        21        19        20        40     9        0.000000       -1.059786         1    ;  uncertainty k = 0.306807
        21        19        20        40     9      180.000000       -0.532508         2    ;  uncertainty k = 0.154204
        21        19        20        40     9        0.000000        0.688928         3    ;  uncertainty k = 0.192978
        21        19        20        40     9      180.000000       -0.160378         4    ;  uncertainty k = 0.106176
        21        19        28        26     9        0.000000        0.400596         1    ;  uncertainty k = 1.962356
        21        19        28        26     9      180.000000        0.402340         2    ;  uncertainty k = 0.917559
        21        19        28        26     9        0.000000       -0.253473         3    ;  uncertainty k = 0.472714
        21        19        28        26     9      180.000000        0.288423         4    ;  uncertainty k = 0.198771
        21        19        28        48     9        0.000000       -1.544683         1    ;  uncertainty k = 2.130081
        21        19        28        48     9      180.000000       -1.837799         2    ;  uncertainty k = 1.054898
        21        19        28        48     9        0.000000       -0.066676         3    ;  uncertainty k = 0.271754
        21        19        28        48     9      180.000000        0.336614         4    ;  uncertainty k = 0.101855
        21        22        24        25     9        0.000000        1.865892         1    ;  uncertainty k = 3.131219
        21        22        24        25     9      180.000000        2.591969         2    ;  uncertainty k = 0.830753
        21        22        24        25     9        0.000000        0.584869         3    ;  uncertainty k = 0.493225
        21        22        24        25     9      180.000000        0.675021         4    ;  uncertainty k = 0.280546
        21        22        24        26     9        0.000000        4.337412         1    ;  uncertainty k = 2.338939
        21        22        24        26     9      180.000000       -1.983172         2    ;  uncertainty k = 1.671322
        21        22        24        26     9        0.000000       -0.125780         3    ;  uncertainty k = 0.934440
        21        22        24        26     9      180.000000        0.703975         4    ;  uncertainty k = 0.311858
        22        21        19        28     9        0.000000        7.955857         1    ;  uncertainty k = 1.904047
        22        21        19        28     9      180.000000       -5.285112         2    ;  uncertainty k = 1.122030
        22        21        19        28     9        0.000000       -0.845708         3    ;  uncertainty k = 0.659958
        22        21        19        28     9      180.000000       -0.037197         4    ;  uncertainty k = 0.387605
        22        24        25        43     9        0.000000       -0.208663         1    ;  uncertainty k = 0.355044
        22        24        25        43     9      180.000000        0.043077         2    ;  uncertainty k = 0.345003
        22        24        25        43     9        0.000000        0.551328         3    ;  uncertainty k = 0.158411
        22        24        25        43     9      180.000000        0.448174         4    ;  uncertainty k = 0.058761
        22        24        25        44     9        0.000000       -0.208663         1    ;  uncertainty k = 0.355044
        22        24        25        44     9      180.000000        0.043077         2    ;  uncertainty k = 0.345003
        22        24        25        44     9        0.000000        0.551328         3    ;  uncertainty k = 0.158411
        22        24        25        44     9      180.000000        0.448174         4    ;  uncertainty k = 0.058761
        22        24        25        45     9        0.000000       -0.208663         1    ;  uncertainty k = 0.355044
        22        24        25        45     9      180.000000        0.043077         2    ;  uncertainty k = 0.345003
        22        24        25        45     9        0.000000        0.551328         3    ;  uncertainty k = 0.158411
        22        24        25        45     9      180.000000        0.448174         4    ;  uncertainty k = 0.058761
        22        24        26        27     9        0.000000        3.395867         1    ;  uncertainty k = 2.091497
        22        24        26        27     9      180.000000        4.242345         2    ;  uncertainty k = 1.742337
        22        24        26        27     9        0.000000        0.124320         3    ;  uncertainty k = 0.689760
        22        24        26        27     9      180.000000       -0.115032         4    ;  uncertainty k = 0.313141
        22        24        26        28     9        0.000000        9.246064         1    ;  uncertainty k = 1.887873
        22        24        26        28     9      180.000000        2.270906         2    ;  uncertainty k = 2.248002
        22        24        26        28     9        0.000000       -0.387225         3    ;  uncertainty k = 0.756470
        22        24        26        28     9      180.000000        0.430324         4    ;  uncertainty k = 0.523291
        23        22        21        41     9        0.000000        1.264789         1    ;  uncertainty k = 1.159483
        23        22        21        41     9      180.000000        3.606363         2    ;  uncertainty k = 0.668966
        23        22        21        41     9        0.000000        0.294649         3    ;  uncertainty k = 0.220574
        23        22        21        41     9      180.000000        0.064559         4    ;  uncertainty k = 0.138808
        23        22        21        42     9        0.000000        1.264789         1    ;  uncertainty k = 1.159483
        23        22        21        42     9      180.000000        3.606363         2    ;  uncertainty k = 0.668966
        23        22        21        42     9        0.000000        0.294649         3    ;  uncertainty k = 0.220574
        23        22        21        42     9      180.000000        0.064559         4    ;  uncertainty k = 0.138808
        23        22        24        25     9        0.000000        1.160813         1    ;  uncertainty k = 2.333027
        23        22        24        25     9      180.000000       10.722771         2    ;  uncertainty k = 0.444464
        23        22        24        25     9        0.000000        0.710470         3    ;  uncertainty k = 0.202987
        23        22        24        25     9      180.000000        0.304673         4    ;  uncertainty k = 0.249076
        23        22        24        26     9        0.000000        3.410001         1    ;  uncertainty k = 2.543224
        23        22        24        26     9      180.000000        8.043546         2    ;  uncertainty k = 0.978968
        23        22        24        26     9        0.000000        0.982679         3    ;  uncertainty k = 0.410397
        23        22        24        26     9      180.000000       -0.009606         4    ;  uncertainty k = 0.325040
        24        22        21        41     9        0.000000       -3.653304         1    ;  uncertainty k = 2.960865
        24        22        21        41     9      180.000000        2.021620         2    ;  uncertainty k = 0.498589
        24        22        21        41     9        0.000000        0.295092         3    ;  uncertainty k = 0.233124
        24        22        21        41     9      180.000000       -0.022024         4    ;  uncertainty k = 0.102189
        24        22        21        42     9        0.000000       -3.653304         1    ;  uncertainty k = 2.960865
        24        22        21        42     9      180.000000        2.021620         2    ;  uncertainty k = 0.498589
        24        22        21        42     9        0.000000        0.295092         3    ;  uncertainty k = 0.233124
        24        22        21        42     9      180.000000       -0.022024         4    ;  uncertainty k = 0.102189
        24        26        27        46     9        0.000000        7.296407         1    ;  uncertainty k = 1.850814
        24        26        27        46     9      180.000000        9.175346         2    ;  uncertainty k = 0.502673
        24        26        27        46     9        0.000000        0.892497         3    ;  uncertainty k = 0.481850
        24        26        27        46     9      180.000000       -0.978078         4    ;  uncertainty k = 0.303837
        24        26        27        47     9        0.000000        7.296407         1    ;  uncertainty k = 1.850814
        24        26        27        47     9      180.000000        9.175346         2    ;  uncertainty k = 0.502673
        24        26        27        47     9        0.000000        0.892497         3    ;  uncertainty k = 0.481850
        24        26        27        47     9      180.000000       -0.978078         4    ;  uncertainty k = 0.303837
        24        26        28        48     9        0.000000        3.093859         1    ;  uncertainty k = 2.166990
        24        26        28        48     9      180.000000        9.132620         2    ;  uncertainty k = 0.524243
        24        26        28        48     9        0.000000        1.042978         3    ;  uncertainty k = 0.524479
        24        26        28        48     9      180.000000       -0.489808         4    ;  uncertainty k = 0.466883
        25        24        26        27     9        0.000000        0.044377         1    ;  uncertainty k = 0.759708
        25        24        26        27     9      180.000000       10.089248         2    ;  uncertainty k = 0.533145
        25        24        26        27     9        0.000000        0.494320         3    ;  uncertainty k = 0.633489
        25        24        26        27     9      180.000000       -0.311752         4    ;  uncertainty k = 0.301267
        25        24        26        28     9        0.000000        1.243306         1    ;  uncertainty k = 2.976050
        25        24        26        28     9      180.000000        9.822736         2    ;  uncertainty k = 0.515634
        25        24        26        28     9        0.000000       -0.001987         3    ;  uncertainty k = 0.581631
        25        24        26        28     9      180.000000       -0.155141         4    ;  uncertainty k = 0.421724
        26        24        25        43     9        0.000000       -0.538778         1    ;  uncertainty k = 0.755939
        26        24        25        43     9      180.000000       -1.113040         2    ;  uncertainty k = 0.481362
        26        24        25        43     9        0.000000        0.319969         3    ;  uncertainty k = 0.159961
        26        24        25        43     9      180.000000        0.224213         4    ;  uncertainty k = 0.109432
        26        24        25        44     9        0.000000       -0.538778         1    ;  uncertainty k = 0.755939
        26        24        25        44     9      180.000000       -1.113040         2    ;  uncertainty k = 0.481362
        26        24        25        44     9        0.000000        0.319969         3    ;  uncertainty k = 0.159961
        26        24        25        44     9      180.000000        0.224213         4    ;  uncertainty k = 0.109432
        26        24        25        45     9        0.000000       -0.538778         1    ;  uncertainty k = 0.755939
        26        24        25        45     9      180.000000       -1.113040         2    ;  uncertainty k = 0.481362
        26        24        25        45     9        0.000000        0.319969         3    ;  uncertainty k = 0.159961
        26        24        25        45     9      180.000000        0.224213         4    ;  uncertainty k = 0.109432
        27        26        28        48     9        0.000000        1.484346         1    ;  uncertainty k = 1.689491
        27        26        28        48     9      180.000000        9.553864         2    ;  uncertainty k = 0.691348
        27        26        28        48     9        0.000000        1.458048         3    ;  uncertainty k = 0.487985
        27        26        28        48     9      180.000000       -0.282586         4    ;  uncertainty k = 0.400572
        28        19        20        38     9        0.000000       -1.560152         1    ;  uncertainty k = 0.692104
        28        19        20        38     9      180.000000       -0.870774         2    ;  uncertainty k = 0.417542
        28        19        20        38     9        0.000000        0.945102         3    ;  uncertainty k = 0.108689
        28        19        20        38     9      180.000000       -0.248422         4    ;  uncertainty k = 0.157030
        28        19        20        39     9        0.000000       -1.560152         1    ;  uncertainty k = 0.692104
        28        19        20        39     9      180.000000       -0.870774         2    ;  uncertainty k = 0.417542
        28        19        20        39     9        0.000000        0.945102         3    ;  uncertainty k = 0.108689
        28        19        20        39     9      180.000000       -0.248422         4    ;  uncertainty k = 0.157030
        28        19        20        40     9        0.000000       -1.560152         1    ;  uncertainty k = 0.692104
        28        19        20        40     9      180.000000       -0.870774         2    ;  uncertainty k = 0.417542
        28        19        20        40     9        0.000000        0.945102         3    ;  uncertainty k = 0.108689
        28        19        20        40     9      180.000000       -0.248422         4    ;  uncertainty k = 0.157030
        28        19        21        41     9        0.000000       -1.070019         1    ;  uncertainty k = 0.758867
        28        19        21        41     9      180.000000       -0.931278         2    ;  uncertainty k = 0.529991
        28        19        21        41     9        0.000000        0.103678         3    ;  uncertainty k = 0.154030
        28        19        21        41     9      180.000000       -0.273167         4    ;  uncertainty k = 0.125269
        28        19        21        42     9        0.000000       -1.070019         1    ;  uncertainty k = 0.758867
        28        19        21        42     9      180.000000       -0.931278         2    ;  uncertainty k = 0.529991
        28        19        21        42     9        0.000000        0.103678         3    ;  uncertainty k = 0.154030
        28        19        21        42     9      180.000000       -0.273167         4    ;  uncertainty k = 0.125269
        28        26        27        46     9        0.000000        4.534155         1    ;  uncertainty k = 2.434020
        28        26        27        46     9      180.000000        9.295634         2    ;  uncertainty k = 0.513279
        28        26        27        46     9        0.000000        1.256279         3    ;  uncertainty k = 0.365820
        28        26        27        46     9      180.000000       -0.599313         4    ;  uncertainty k = 0.348224
        28        26        27        47     9        0.000000        4.534155         1    ;  uncertainty k = 2.434020
        28        26        27        47     9      180.000000        9.295634         2    ;  uncertainty k = 0.513279
        28        26        27        47     9        0.000000        1.256279         3    ;  uncertainty k = 0.365820
        28        26        27        47     9      180.000000       -0.599313         4    ;  uncertainty k = 0.348224
        35        13        14        36     9        0.000000       -0.153107         1    ;  uncertainty k = 0.348610
        35        13        14        36     9      180.000000        8.236027         2    ;  uncertainty k = 0.380609
        35        13        14        36     9        0.000000       -0.419069         3    ;  uncertainty k = 0.255104
        35        13        14        36     9      180.000000        0.141943         4    ;  uncertainty k = 0.232374

[ dihedrals ] ; impropers
;       ai        aj        ak        al funct           phase               k        pn
         3         2         4         8     4      180.000000       30.812177         2    ;  uncertainty k = 0.075587
         3         4         8         2     4      180.000000       30.812177         2    ;  uncertainty k = 0.075587
         3         8         2         4     4      180.000000       30.812177         2    ;  uncertainty k = 0.075587
         4         3         5        32     4      180.000000        9.825555         2    ;  uncertainty k = 0.181858
         4         5        32         3     4      180.000000        9.825555         2    ;  uncertainty k = 0.181858
         4        32         3         5     4      180.000000        9.825555         2    ;  uncertainty k = 0.181858
         6         5         7         9     4      180.000000       12.529771         2    ;  uncertainty k = 0.275801
         6         7         9         5     4      180.000000       12.529771         2    ;  uncertainty k = 0.275801
         6         9         5         7     4      180.000000       12.529771         2    ;  uncertainty k = 0.275801
         7         6         8        33     4      180.000000       13.883756         2    ;  uncertainty k = 0.042303
         7         8        33         6     4      180.000000       13.883756         2    ;  uncertainty k = 0.042303
         7        33         6         8     4      180.000000       13.883756         2    ;  uncertainty k = 0.042303
         9         6        10        11     4      180.000000       49.287302         2    ;  uncertainty k = 0.035702
         9        10        11         6     4      180.000000       49.287302         2    ;  uncertainty k = 0.035702
         9        11         6        10     4      180.000000       49.287302         2    ;  uncertainty k = 0.035702
        11         9        12        34     4      180.000000        0.983701         2    ;  uncertainty k = 0.795606
        11        12        34         9     4      180.000000        0.983701         2    ;  uncertainty k = 0.795606
        11        34         9        12     4      180.000000        0.983701         2    ;  uncertainty k = 0.795606
        12        11        13        18     4      180.000000       16.792710         2    ;  uncertainty k = 0.141292
        12        13        18        11     4      180.000000       16.792710         2    ;  uncertainty k = 0.141292
        12        18        11        13     4      180.000000       16.792710         2    ;  uncertainty k = 0.141292
        13        12        14        35     4      180.000000        3.616409         2    ;  uncertainty k = 0.252646
        13        14        35        12     4      180.000000        3.616409         2    ;  uncertainty k = 0.252646
        13        35        12        14     4      180.000000        3.616409         2    ;  uncertainty k = 0.252646
        14        13        15        36     4      180.000000        1.713695         2    ;  uncertainty k = 0.352463
        14        15        36        13     4      180.000000        1.713695         2    ;  uncertainty k = 0.352463
        14        36        13        15     4      180.000000        1.713695         2    ;  uncertainty k = 0.352463
        15        14        16        17     4      180.000000       14.944537         2    ;  uncertainty k = 0.138122
        15        16        17        14     4      180.000000       14.944537         2    ;  uncertainty k = 0.138122
        15        17        14        16     4      180.000000       14.944537         2    ;  uncertainty k = 0.138122
        17        15        18        19     4      180.000000       10.155584         2    ;  uncertainty k = 0.269535
        17        18        19        15     4      180.000000       10.155584         2    ;  uncertainty k = 0.269535
        17        19        15        18     4      180.000000       10.155584         2    ;  uncertainty k = 0.269535
        18        12        17        37     4      180.000000        3.829107         2    ;  uncertainty k = 0.385536
        18        17        37        12     4      180.000000        3.829107         2    ;  uncertainty k = 0.385536
        18        37        12        17     4      180.000000        3.829107         2    ;  uncertainty k = 0.385536
        22        21        23        24     4      180.000000       53.494700         2    ;  uncertainty k = 0.038139
        22        23        24        21     4      180.000000       53.494700         2    ;  uncertainty k = 0.038139
        22        24        21        23     4      180.000000       53.494700         2    ;  uncertainty k = 0.038139
        24        22        25        26     4      180.000000        3.488066         2    ;  uncertainty k = 0.874226
        24        25        26        22     4      180.000000        3.488066         2    ;  uncertainty k = 0.874226
        24        26        22        25     4      180.000000        3.488066         2    ;  uncertainty k = 0.874226
        26        24        27        28     4      180.000000       37.755696         2    ;  uncertainty k = 0.153939
        26        27        28        24     4      180.000000       37.755696         2    ;  uncertainty k = 0.153939
        26        28        24        27     4      180.000000       37.755696         2    ;  uncertainty k = 0.153939
        27        26        46        47     4      180.000000        0.189446         2    ;  uncertainty k = 0.423615
        27        46        47        26     4      180.000000        0.189446         2    ;  uncertainty k = 0.423615
        27        47        26        46     4      180.000000        0.189446         2    ;  uncertainty k = 0.423615
        28        19        26        48     4      180.000000        0.562966         2    ;  uncertainty k = 0.792038
        28        26        48        19     4      180.000000        0.562966         2    ;  uncertainty k = 0.792038
        28        48        19        26     4      180.000000        0.562966         2    ;  uncertainty k = 0.792038

[ pairs ]
;       ai        aj funct
         1         4     1
         1         8     1
         2         5     1
         2         7     1
         2        32     1
         3         6     1
         3        29     1
         3        30     1
         3        31     1
         3        33     1
         4         7     1
         4         9     1
         5         8     1
         5        10     1
         5        11     1
         5        33     1
         6        12     1
         6        32     1
         6        34     1
         7        10     1
         7        11     1
         8         9     1
         8        32     1
         9        13     1
         9        18     1
         9        33     1
        10        12     1
        10        34     1
        11        14     1
        11        17     1
        11        35     1
        11        37     1
        12        15     1
        12        19     1
        12        36     1
        13        16     1
        13        17     1
        13        34     1
        13        37     1
        14        18     1
        14        19     1
        15        20     1
        15        21     1
        15        28     1
        15        35     1
        15        37     1
        16        18     1
        16        19     1
        16        36     1
        17        22     1
        17        26     1
        17        36     1
        17        38     1
        17        39     1
        17        40     1
        17        41     1
        17        42     1
        17        48     1
        18        20     1
        18        21     1
        18        28     1
        18        34     1
        18        35     1
        19        23     1
        19        24     1
        19        27     1
        19        37     1
        20        22     1
        20        26     1
        20        41     1
        20        42     1
        20        48     1
        21        25     1
        21        26     1
        21        38     1
        21        39     1
        21        40     1
        21        48     1
        22        27     1
        22        28     1
        22        43     1
        22        44     1
        22        45     1
        23        25     1
        23        26     1
        23        41     1
        23        42     1
        24        41     1
        24        42     1
        24        46     1
        24        47     1
        24        48     1
        25        27     1
        25        28     1
        26        43     1
        26        44     1
        26        45     1
        27        48     1
        28        38     1
        28        39     1
        28        40     1
        28        41     1
        28        42     1
        28        46     1
        28        47     1
        35        36     1
