; ITP file created by ByteFF-joint-25, 2025-07-14 11:32:18.698369

[ atomtypes ]
;name           bonded.type        at.num        mass        charge   ptype           sigma         epsilon
 c0bf                                   6      0.0000       0.00000       A     3.39779e-01     4.50875e-01    ;  uncertainty sigma = 0.000010, epsilon = 0.001295
 n1bf                                   7      0.0000       0.00000       A     3.18045e-01     6.86715e-01    ;  uncertainty sigma = 0.000056, epsilon = 0.002911
 c2bf                                   6      0.0000       0.00000       A     3.31514e-01     4.11760e-01    ;  uncertainty sigma = 0.000063, epsilon = 0.001890
 n3bf                                   7      0.0000       0.00000       A     3.36760e-01     4.69957e-01    ;  uncertainty sigma = 0.000090, epsilon = 0.002477
 n4bf                                   7      0.0000       0.00000       A     3.27884e-01     6.44716e-01    ;  uncertainty sigma = 0.000149, epsilon = 0.009704
 c5bf                                   6      0.0000       0.00000       A     3.39814e-01     4.51098e-01    ;  uncertainty sigma = 0.000025, epsilon = 0.003336
 c6bf                                   6      0.0000       0.00000       A     3.39761e-01     4.50765e-01    ;  uncertainty sigma = 0.000009, epsilon = 0.001200
 c7bf                                   6      0.0000       0.00000       A     3.39741e-01     4.51121e-01    ;  uncertainty sigma = 0.000021, epsilon = 0.001042
 c8bf                                   6      0.0000       0.00000       A     3.31519e-01     4.13467e-01    ;  uncertainty sigma = 0.000015, epsilon = 0.001384
 o9bf                                   8      0.0000       0.00000       A     3.04866e-01     6.11575e-01    ;  uncertainty sigma = 0.000029, epsilon = 0.000747
 c10bf                                  6      0.0000       0.00000       A     3.31476e-01     4.13991e-01    ;  uncertainty sigma = 0.000010, epsilon = 0.001399
 c11bf                                  6      0.0000       0.00000       A     3.31531e-01     4.13829e-01    ;  uncertainty sigma = 0.000013, epsilon = 0.001150
 c12bf                                  6      0.0000       0.00000       A     3.31512e-01     4.13288e-01    ;  uncertainty sigma = 0.000007, epsilon = 0.001098
 c13bf                                  6      0.0000       0.00000       A     3.31527e-01     4.13337e-01    ;  uncertainty sigma = 0.000006, epsilon = 0.000429
 c14bf                                  6      0.0000       0.00000       A     3.31530e-01     4.13225e-01    ;  uncertainty sigma = 0.000003, epsilon = 0.000619
 c15bf                                  6      0.0000       0.00000       A     3.31546e-01     4.12950e-01    ;  uncertainty sigma = 0.000012, epsilon = 0.000221
 f16bf                                  9      0.0000       0.00000       A     3.03457e-01     3.47821e-01    ;  uncertainty sigma = 0.000024, epsilon = 0.001496
 n17bf                                  7      0.0000       0.00000       A     3.27000e-01     4.90789e-01    ;  uncertainty sigma = 0.000031, epsilon = 0.001094
 c18bf                                  6      0.0000       0.00000       A     3.31512e-01     4.12533e-01    ;  uncertainty sigma = 0.000017, epsilon = 0.000770
 o19bf                                  8      0.0000       0.00000       A     3.04829e-01     6.12938e-01    ;  uncertainty sigma = 0.000026, epsilon = 0.001502
 c20bf                                  6      0.0000       0.00000       A     3.31529e-01     4.12962e-01    ;  uncertainty sigma = 0.000009, epsilon = 0.000908
 c21bf                                  6      0.0000       0.00000       A     3.31550e-01     4.13644e-01    ;  uncertainty sigma = 0.000016, epsilon = 0.001519
 n22bf                                  7      0.0000       0.00000       A     3.38407e-01     3.93616e-01    ;  uncertainty sigma = 0.000019, epsilon = 0.000775
 c23bf                                  6      0.0000       0.00000       A     3.31551e-01     4.13002e-01    ;  uncertainty sigma = 0.000008, epsilon = 0.002041
 c24bf                                  6      0.0000       0.00000       A     3.31535e-01     4.13520e-01    ;  uncertainty sigma = 0.000009, epsilon = 0.001032
 n25bf                                  7      0.0000       0.00000       A     3.38390e-01     3.93325e-01    ;  uncertainty sigma = 0.000020, epsilon = 0.000401
 o26bf                                  8      0.0000       0.00000       A     3.15652e-01     3.03838e-01    ;  uncertainty sigma = 0.000023, epsilon = 0.001259
 c27bf                                  6      0.0000       0.00000       A     3.39782e-01     4.51037e-01    ;  uncertainty sigma = 0.000009, epsilon = 0.000707
 c28bf                                  6      0.0000       0.00000       A     3.39756e-01     4.51387e-01    ;  uncertainty sigma = 0.000018, epsilon = 0.001124
 f29bf                                  9      0.0000       0.00000       A     3.03411e-01     3.48276e-01    ;  uncertainty sigma = 0.000012, epsilon = 0.000500
 f30bf                                  9      0.0000       0.00000       A     3.03411e-01     3.48276e-01    ;  uncertainty sigma = 0.000012, epsilon = 0.000500
 f31bf                                  9      0.0000       0.00000       A     3.03411e-01     3.48276e-01    ;  uncertainty sigma = 0.000012, epsilon = 0.000500
 h32bf                                  1      0.0000       0.00000       A     2.42164e-01     8.70781e-02    ;  uncertainty sigma = 0.000026, epsilon = 0.000567
 h33bf                                  1      0.0000       0.00000       A     2.42164e-01     8.70781e-02    ;  uncertainty sigma = 0.000026, epsilon = 0.000567
 h34bf                                  1      0.0000       0.00000       A     2.42164e-01     8.70781e-02    ;  uncertainty sigma = 0.000026, epsilon = 0.000567
 h35bf                                  1      0.0000       0.00000       A     1.10673e-01     4.15035e-02    ;  uncertainty sigma = 0.000108, epsilon = 0.001195
 h36bf                                  1      0.0000       0.00000       A     1.10673e-01     4.15035e-02    ;  uncertainty sigma = 0.000108, epsilon = 0.001195
 h37bf                                  1      0.0000       0.00000       A     2.60004e-01     8.68723e-02    ;  uncertainty sigma = 0.000016, epsilon = 0.000482
 h38bf                                  1      0.0000       0.00000       A     2.60004e-01     8.68723e-02    ;  uncertainty sigma = 0.000016, epsilon = 0.000482
 h39bf                                  1      0.0000       0.00000       A     2.60004e-01     8.68723e-02    ;  uncertainty sigma = 0.000016, epsilon = 0.000482
 h40bf                                  1      0.0000       0.00000       A     2.59995e-01     8.70718e-02    ;  uncertainty sigma = 0.000025, epsilon = 0.001286
 h41bf                                  1      0.0000       0.00000       A     2.59995e-01     8.70718e-02    ;  uncertainty sigma = 0.000025, epsilon = 0.001286
 h42bf                                  1      0.0000       0.00000       A     2.62560e-01     6.69862e-02    ;  uncertainty sigma = 0.000013, epsilon = 0.000605
 h43bf                                  1      0.0000       0.00000       A     2.62560e-01     6.69889e-02    ;  uncertainty sigma = 0.000013, epsilon = 0.000439
 h44bf                                  1      0.0000       0.00000       A     2.62565e-01     6.69912e-02    ;  uncertainty sigma = 0.000012, epsilon = 0.000401
 h45bf                                  1      0.0000       0.00000       A     1.10674e-01     4.15810e-02    ;  uncertainty sigma = 0.000084, epsilon = 0.000795
 h46bf                                  1      0.0000       0.00000       A     2.53700e-01     6.73606e-02    ;  uncertainty sigma = 0.000029, epsilon = 0.000744
 h47bf                                  1      0.0000       0.00000       A     2.53590e-01     6.71067e-02    ;  uncertainty sigma = 0.000043, epsilon = 0.000735
 h48bf                                  1      0.0000       0.00000       A     2.42152e-01     8.67813e-02    ;  uncertainty sigma = 0.000040, epsilon = 0.000729
 h49bf                                  1      0.0000       0.00000       A     2.42152e-01     8.67813e-02    ;  uncertainty sigma = 0.000040, epsilon = 0.000729
 h50bf                                  1      0.0000       0.00000       A     1.10625e-01     4.07568e-02    ;  uncertainty sigma = 0.000197, epsilon = 0.002094

[ moleculetype ]
;name             nrexcl
 MOL                   3

[ atoms ]
;       nr            type      resi   res      atom      cgnr      charge          mass ; qtot
         1            c0bf         1   UNL        c0         1     0.04963       12.0110 ; qtot    0.050
         2            n1bf         1   UNL        n1         2    -0.43756       14.0070 ; qtot   -0.388
         3            c2bf         1   UNL        c2         3     0.48213       12.0110 ; qtot    0.094
         4            n3bf         1   UNL        n3         4    -0.50478       14.0070 ; qtot   -0.411
         5            n4bf         1   UNL        n4         5    -0.38668       14.0070 ; qtot   -0.797
         6            c5bf         1   UNL        c5         6     0.15193       12.0110 ; qtot   -0.645
         7            c6bf         1   UNL        c6         7    -0.11350       12.0110 ; qtot   -0.759
         8            c7bf         1   UNL        c7         8    -0.17413       12.0110 ; qtot   -0.933
         9            c8bf         1   UNL        c8         9     0.71609       12.0110 ; qtot   -0.217
        10            o9bf         1   UNL        o9        10    -0.46646       15.9990 ; qtot   -0.683
        11           c10bf         1   UNL       c10        11    -0.14536       12.0110 ; qtot   -0.829
        12           c11bf         1   UNL       c11        12    -0.10984       12.0110 ; qtot   -0.939
        13           c12bf         1   UNL       c12        13     0.07687       12.0110 ; qtot   -0.862
        14           c13bf         1   UNL       c13        14    -0.12646       12.0110 ; qtot   -0.988
        15           c14bf         1   UNL       c14        15    -0.11323       12.0110 ; qtot   -1.101
        16           c15bf         1   UNL       c15        16     0.11635       12.0110 ; qtot   -0.985
        17           f16bf         1   UNL       f16        17    -0.14859       18.9980 ; qtot   -1.134
        18           n17bf         1   UNL       n17        18    -0.46218       14.0070 ; qtot   -1.596
        19           c18bf         1   UNL       c18        19     0.59147       12.0110 ; qtot   -1.004
        20           o19bf         1   UNL       o19        20    -0.57869       15.9990 ; qtot   -1.583
        21           c20bf         1   UNL       c20        21     0.19946       12.0110 ; qtot   -1.384
        22           c21bf         1   UNL       c21        22     0.39065       12.0110 ; qtot   -0.993
        23           n22bf         1   UNL       n22        23    -0.71368       14.0070 ; qtot   -1.707
        24           c23bf         1   UNL       c23        24     0.54824       12.0110 ; qtot   -1.158
        25           c24bf         1   UNL       c24        25     0.27468       12.0110 ; qtot   -0.884
        26           n25bf         1   UNL       n25        26    -0.60304       14.0070 ; qtot   -1.487
        27           o26bf         1   UNL       o26        27    -0.41486       15.9990 ; qtot   -1.902
        28           c27bf         1   UNL       c27        28     0.08190       12.0110 ; qtot   -1.820
        29           c28bf         1   UNL       c28        29     0.64267       12.0110 ; qtot   -1.177
        30           f29bf         1   UNL       f29        30    -0.22529       18.9980 ; qtot   -1.402
        31           f30bf         1   UNL       f30        31    -0.22529       18.9980 ; qtot   -1.628
        32           f31bf         1   UNL       f31        32    -0.22529       18.9980 ; qtot   -1.853
        33           h32bf         1   UNL       h32        33     0.08943        1.0080 ; qtot   -1.763
        34           h33bf         1   UNL       h33        34     0.08943        1.0080 ; qtot   -1.674
        35           h34bf         1   UNL       h34        35     0.08943        1.0080 ; qtot   -1.585
        36           h35bf         1   UNL       h35        36     0.33098        1.0080 ; qtot   -1.254
        37           h36bf         1   UNL       h36        37     0.33098        1.0080 ; qtot   -0.923
        38           h37bf         1   UNL       h37        38     0.07196        1.0080 ; qtot   -0.851
        39           h38bf         1   UNL       h38        39     0.07196        1.0080 ; qtot   -0.779
        40           h39bf         1   UNL       h39        40     0.07196        1.0080 ; qtot   -0.707
        41           h40bf         1   UNL       h40        41     0.11749        1.0080 ; qtot   -0.589
        42           h41bf         1   UNL       h41        42     0.11749        1.0080 ; qtot   -0.472
        43           h42bf         1   UNL       h42        43     0.16387        1.0080 ; qtot   -0.308
        44           h43bf         1   UNL       h43        44     0.15954        1.0080 ; qtot   -0.148
        45           h44bf         1   UNL       h44        45     0.16630        1.0080 ; qtot    0.018
        46           h45bf         1   UNL       h45        46     0.34810        1.0080 ; qtot    0.366
        47           h46bf         1   UNL       h46        47     0.05731        1.0080 ; qtot    0.423
        48           h47bf         1   UNL       h47        48     0.04926        1.0080 ; qtot    0.473
        49           h48bf         1   UNL       h48        49     0.09580        1.0080 ; qtot    0.568
        50           h49bf         1   UNL       h49        50     0.09580        1.0080 ; qtot    0.664
        51           h50bf         1   UNL       h50        51     0.33575        1.0080 ; qtot    1.000

[ bonds ]
;       ai        aj funct               r               k
         1         2     1        0.147324   251134.180859    ;  uncertainty r = 0.000154, k = 24.190262
         1        33     1        0.109123   307429.053027    ;  uncertainty r = 0.000028, k = 2.127609
         1        34     1        0.109123   307429.053027    ;  uncertainty r = 0.000028, k = 2.127609
         1        35     1        0.109123   307429.053027    ;  uncertainty r = 0.000028, k = 2.127609
         2         3     1        0.136207   289370.435059    ;  uncertainty r = 0.000285, k = 39.958241
         2         9     1        0.143746   253678.749512    ;  uncertainty r = 0.000164, k = 80.639869
         3         4     1        0.134544   307986.936719    ;  uncertainty r = 0.000201, k = 58.704652
         3         5     1        0.133564   557221.463086    ;  uncertainty r = 0.000241, k = 55.754692
         4        36     1        0.101295   419556.984277    ;  uncertainty r = 0.000047, k = 11.267084
         4        37     1        0.101295   419556.984277    ;  uncertainty r = 0.000047, k = 11.267084
         5         6     1        0.149031   230523.843848    ;  uncertainty r = 0.000216, k = 24.317644
         5        51     1        0.101560   439225.512695    ;  uncertainty r = 0.000134, k = 8.127208
         6         7     1        0.153374   201429.734351    ;  uncertainty r = 0.000097, k = 8.556063
         6         8     1        0.153159   203928.144678    ;  uncertainty r = 0.000115, k = 13.365525
         6        11     1        0.151440   214005.305103    ;  uncertainty r = 0.000236, k = 16.363289
         7        38     1        0.109424   311928.487402    ;  uncertainty r = 0.000009, k = 2.894260
         7        39     1        0.109424   311928.487402    ;  uncertainty r = 0.000009, k = 2.894260
         7        40     1        0.109424   311928.487402    ;  uncertainty r = 0.000009, k = 2.894260
         8         9     1        0.151045   203840.092725    ;  uncertainty r = 0.000198, k = 13.413393
         8        41     1        0.109430   314471.447217    ;  uncertainty r = 0.000052, k = 2.778305
         8        42     1        0.109430   314471.447217    ;  uncertainty r = 0.000052, k = 2.778305
         9        10     1        0.120581   655340.349023    ;  uncertainty r = 0.000199, k = 21.290084
        11        12     1        0.139252   346690.979687    ;  uncertainty r = 0.000130, k = 5.041317
        11        16     1        0.139301   340628.750830    ;  uncertainty r = 0.000147, k = 7.009169
        12        13     1        0.140076   350643.715625    ;  uncertainty r = 0.000126, k = 5.776737
        12        43     1        0.108639   335283.323096    ;  uncertainty r = 0.000042, k = 2.896011
        13        14     1        0.140101   351857.085840    ;  uncertainty r = 0.000062, k = 3.465565
        13        18     1        0.140350   325475.208887    ;  uncertainty r = 0.000092, k = 12.223305
        14        15     1        0.138919   379009.034326    ;  uncertainty r = 0.000028, k = 4.451331
        14        44     1        0.108594   335979.822217    ;  uncertainty r = 0.000019, k = 2.815261
        15        16     1        0.138815   358758.872705    ;  uncertainty r = 0.000063, k = 5.580479
        15        45     1        0.108729   335202.702441    ;  uncertainty r = 0.000007, k = 1.041219
        16        17     1        0.136423   335134.084229    ;  uncertainty r = 0.000047, k = 5.847050
        18        19     1        0.136461   274597.523730    ;  uncertainty r = 0.000095, k = 19.259661
        18        46     1        0.101962   419189.326514    ;  uncertainty r = 0.000053, k = 6.195011
        19        20     1        0.123456   666741.749023    ;  uncertainty r = 0.000061, k = 4.842820
        19        21     1        0.149503   244951.187012    ;  uncertainty r = 0.000133, k = 20.899772
        21        22     1        0.138810   353774.080029    ;  uncertainty r = 0.000078, k = 20.234856
        21        26     1        0.133426   449310.627930    ;  uncertainty r = 0.000140, k = 18.294940
        22        23     1        0.132809   433907.103223    ;  uncertainty r = 0.000157, k = 14.555683
        22        47     1        0.108820   336159.041650    ;  uncertainty r = 0.000035, k = 1.832041
        23        24     1        0.131717   397252.081299    ;  uncertainty r = 0.000099, k = 8.658433
        24        25     1        0.139447   396232.307910    ;  uncertainty r = 0.000242, k = 8.193121
        24        27     1        0.135474   299667.482764    ;  uncertainty r = 0.000070, k = 6.420436
        25        26     1        0.131738   433834.526758    ;  uncertainty r = 0.000165, k = 13.706079
        25        48     1        0.109143   343830.261621    ;  uncertainty r = 0.000068, k = 3.095741
        27        28     1        0.139992   260938.132520    ;  uncertainty r = 0.000073, k = 7.051748
        28        29     1        0.151846   206261.470361    ;  uncertainty r = 0.000128, k = 5.197010
        28        49     1        0.109429   313079.981201    ;  uncertainty r = 0.000042, k = 3.110651
        28        50     1        0.109429   313079.981201    ;  uncertainty r = 0.000042, k = 3.110651
        29        30     1        0.134832   295855.379688    ;  uncertainty r = 0.000102, k = 4.776596
        29        31     1        0.134832   295855.379688    ;  uncertainty r = 0.000102, k = 4.776596
        29        32     1        0.134832   295855.379688    ;  uncertainty r = 0.000102, k = 4.776596

[ angles ]
;       ai        aj        ak funct           theta             cth
         1         2         3     1      115.143982      405.306039    ;  uncertainty theta = 0.007152, k = 0.306076
         1         2         9     1      115.926292      431.056766    ;  uncertainty theta = 0.006662, k = 0.129527
         2         1        33     1      107.559181      473.057682    ;  uncertainty theta = 0.001681, k = 0.126528
         2         1        34     1      107.559181      473.057682    ;  uncertainty theta = 0.001681, k = 0.126528
         2         1        35     1      107.559181      473.057682    ;  uncertainty theta = 0.001681, k = 0.126528
         2         3         4     1      120.606590      593.468504    ;  uncertainty theta = 0.003176, k = 0.306591
         2         3         5     1      121.642906      613.806194    ;  uncertainty theta = 0.006967, k = 0.493884
         2         9         8     1      113.646469      401.102471    ;  uncertainty theta = 0.002688, k = 0.212313
         2         9        10     1      121.239647      682.067462    ;  uncertainty theta = 0.006510, k = 0.206541
         3         2         9     1      122.278809      503.814129    ;  uncertainty theta = 0.010251, k = 0.447990
         3         4        36     1      115.149925      373.809047    ;  uncertainty theta = 0.003984, k = 0.186892
         3         4        37     1      115.149925      373.809047    ;  uncertainty theta = 0.003984, k = 0.186892
         3         5         6     1      120.614380      418.497743    ;  uncertainty theta = 0.007151, k = 0.291427
         3         5        51     1      116.509377      399.040254    ;  uncertainty theta = 0.012250, k = 0.308852
         4         3         5     1      124.262207      720.976057    ;  uncertainty theta = 0.011250, k = 0.233585
         5         6         7     1      108.368942      690.585940    ;  uncertainty theta = 0.004528, k = 0.153752
         5         6         8     1      106.007408      694.398949    ;  uncertainty theta = 0.008322, k = 0.225726
         5         6        11     1      107.829872      642.630376    ;  uncertainty theta = 0.005954, k = 0.224167
         6         5        51     1      114.810410      313.074427    ;  uncertainty theta = 0.008656, k = 0.327146
         6         7        38     1      107.176834      394.723461    ;  uncertainty theta = 0.002402, k = 0.117049
         6         7        39     1      107.176834      394.723461    ;  uncertainty theta = 0.002402, k = 0.117049
         6         7        40     1      107.176834      394.723461    ;  uncertainty theta = 0.002402, k = 0.117049
         6         8         9     1      111.158714      546.746192    ;  uncertainty theta = 0.007730, k = 0.197731
         6         8        41     1      107.364235      377.266293    ;  uncertainty theta = 0.004341, k = 0.139640
         6         8        42     1      107.364235      377.266293    ;  uncertainty theta = 0.004341, k = 0.139640
         6        11        12     1      117.802956      375.456956    ;  uncertainty theta = 0.005787, k = 0.134581
         6        11        16     1      116.958557      381.231791    ;  uncertainty theta = 0.007269, k = 0.198931
         7         6         8     1      109.611717      570.605769    ;  uncertainty theta = 0.002294, k = 0.110172
         7         6        11     1      110.898338      572.819772    ;  uncertainty theta = 0.005752, k = 0.148112
         8         6        11     1      109.839493      570.393491    ;  uncertainty theta = 0.006137, k = 0.132525
         8         9        10     1      126.717201      500.341625    ;  uncertainty theta = 0.007714, k = 0.227670
         9         8        41     1      105.847939      380.285928    ;  uncertainty theta = 0.004326, k = 0.106628
         9         8        42     1      105.847939      380.285928    ;  uncertainty theta = 0.004326, k = 0.106628
        11        12        13     1      122.306190      498.529735    ;  uncertainty theta = 0.002973, k = 0.170384
        11        12        43     1      117.312637      276.346797    ;  uncertainty theta = 0.005095, k = 0.130875
        11        16        15     1      124.818649      370.348162    ;  uncertainty theta = 0.007322, k = 0.227765
        11        16        17     1      115.651962      479.259018    ;  uncertainty theta = 0.002998, k = 0.033205
        12        11        16     1      121.760132      422.327767    ;  uncertainty theta = 0.004456, k = 0.138448
        12        13        14     1      120.372131      380.353857    ;  uncertainty theta = 0.008541, k = 0.212367
        12        13        18     1      119.106911      511.049048    ;  uncertainty theta = 0.006217, k = 0.057038
        13        12        43     1      118.498497      277.252311    ;  uncertainty theta = 0.002818, k = 0.074007
        13        14        15     1      118.863724      498.637247    ;  uncertainty theta = 0.002640, k = 0.113246
        13        14        44     1      118.858414      266.117014    ;  uncertainty theta = 0.001105, k = 0.050326
        13        18        19     1      116.806480      453.673228    ;  uncertainty theta = 0.005971, k = 0.054110
        13        18        46     1      113.265015      316.634811    ;  uncertainty theta = 0.005758, k = 0.113070
        14        13        18     1      119.894089      513.003754    ;  uncertainty theta = 0.004038, k = 0.167541
        14        15        16     1      119.716713      459.315716    ;  uncertainty theta = 0.002703, k = 0.248433
        14        15        45     1      121.226318      273.827337    ;  uncertainty theta = 0.003027, k = 0.016592
        15        14        44     1      120.299927      315.004585    ;  uncertainty theta = 0.001541, k = 0.082725
        15        16        17     1      118.368248      531.214873    ;  uncertainty theta = 0.002418, k = 0.194814
        16        15        45     1      119.769325      274.086220    ;  uncertainty theta = 0.001156, k = 0.041158
        18        19        20     1      122.929581      763.733606    ;  uncertainty theta = 0.001933, k = 0.062511
        18        19        21     1      111.543236      457.928572    ;  uncertainty theta = 0.003081, k = 0.108405
        19        18        46     1      116.940636      347.054839    ;  uncertainty theta = 0.004255, k = 0.138736
        19        21        22     1      121.976074      368.322654    ;  uncertainty theta = 0.006440, k = 0.125014
        19        21        26     1      116.233383      394.322145    ;  uncertainty theta = 0.005991, k = 0.221246
        20        19        21     1      121.462402      520.963926    ;  uncertainty theta = 0.002051, k = 0.123901
        21        22        23     1      121.936569      606.516946    ;  uncertainty theta = 0.003428, k = 0.186871
        21        22        47     1      120.281090      242.713466    ;  uncertainty theta = 0.006191, k = 0.102496
        21        26        25     1      120.774231      476.888663    ;  uncertainty theta = 0.005204, k = 0.200613
        22        21        26     1      121.923195      525.611936    ;  uncertainty theta = 0.004585, k = 0.116652
        22        23        24     1      114.997879      403.947113    ;  uncertainty theta = 0.009495, k = 0.173648
        23        22        47     1      119.325340      321.627124    ;  uncertainty theta = 0.003766, k = 0.192304
        23        24        25     1      120.527809      454.805033    ;  uncertainty theta = 0.006400, k = 0.191737
        23        24        27     1      118.876419      582.522405    ;  uncertainty theta = 0.003166, k = 0.155666
        24        25        26     1      119.644936      565.351253    ;  uncertainty theta = 0.002785, k = 0.088577
        24        25        48     1      122.972656      264.069289    ;  uncertainty theta = 0.006591, k = 0.083364
        24        27        28     1      108.883362      492.001333    ;  uncertainty theta = 0.004482, k = 0.145839
        25        24        27     1      118.668625      403.281616    ;  uncertainty theta = 0.011208, k = 0.186133
        26        25        48     1      118.557938      337.041419    ;  uncertainty theta = 0.004957, k = 0.210468
        27        28        29     1      102.797157      468.691826    ;  uncertainty theta = 0.004217, k = 0.144067
        27        28        49     1      107.322937      403.068477    ;  uncertainty theta = 0.002306, k = 0.063659
        27        28        50     1      107.322937      403.068477    ;  uncertainty theta = 0.002306, k = 0.063659
        28        29        30     1      113.173233      595.834007    ;  uncertainty theta = 0.004108, k = 0.085474
        28        29        31     1      113.173233      595.834007    ;  uncertainty theta = 0.004108, k = 0.085474
        28        29        32     1      113.173233      595.834007    ;  uncertainty theta = 0.004108, k = 0.085474
        29        28        49     1      108.705444      414.357539    ;  uncertainty theta = 0.001480, k = 0.098024
        29        28        50     1      108.705444      414.357539    ;  uncertainty theta = 0.001480, k = 0.098024
        30        29        31     1      109.017128      786.943454    ;  uncertainty theta = 0.002615, k = 0.019884
        30        29        32     1      109.017128      786.943454    ;  uncertainty theta = 0.002615, k = 0.019884
        31        29        32     1      109.017128      786.943454    ;  uncertainty theta = 0.002615, k = 0.019884
        33         1        34     1      107.420509      324.177100    ;  uncertainty theta = 0.003506, k = 0.110514
        33         1        35     1      107.420509      324.177100    ;  uncertainty theta = 0.003506, k = 0.110514
        34         1        35     1      107.420509      324.177100    ;  uncertainty theta = 0.003506, k = 0.110514
        36         4        37     1      112.138939      273.835381    ;  uncertainty theta = 0.016285, k = 0.318904
        38         7        39     1      106.052170      314.205465    ;  uncertainty theta = 0.001376, k = 0.026814
        38         7        40     1      106.052170      314.205465    ;  uncertainty theta = 0.001376, k = 0.026814
        39         7        40     1      106.052170      314.205465    ;  uncertainty theta = 0.001376, k = 0.026814
        41         8        42     1      107.444252      302.402277    ;  uncertainty theta = 0.001395, k = 0.127039
        49        28        50     1      109.661987      325.289146    ;  uncertainty theta = 0.004618, k = 0.082724

[ dihedrals ] ; propers for gromacs 4.5 or higher, use funct 9
;       ai        aj        ak        al funct           phase               k        pn
         1         2         3         4     9        0.000000        0.044376         1    ;  uncertainty k = 0.759709
         1         2         3         4     9      180.000000       10.089248         2    ;  uncertainty k = 0.533143
         1         2         3         4     9        0.000000        0.494320         3    ;  uncertainty k = 0.633488
         1         2         3         4     9      180.000000       -0.311752         4    ;  uncertainty k = 0.301267
         1         2         3         5     9        0.000000        1.243307         1    ;  uncertainty k = 2.976055
         1         2         3         5     9      180.000000        9.822737         2    ;  uncertainty k = 0.515636
         1         2         3         5     9        0.000000       -0.001988         3    ;  uncertainty k = 0.581630
         1         2         3         5     9      180.000000       -0.155141         4    ;  uncertainty k = 0.421724
         1         2         9         8     9        0.000000        1.865892         1    ;  uncertainty k = 3.131220
         1         2         9         8     9      180.000000        2.591969         2    ;  uncertainty k = 0.830754
         1         2         9         8     9        0.000000        0.584870         3    ;  uncertainty k = 0.493225
         1         2         9         8     9      180.000000        0.675022         4    ;  uncertainty k = 0.280546
         1         2         9        10     9        0.000000        1.160814         1    ;  uncertainty k = 2.333024
         1         2         9        10     9      180.000000       10.722771         2    ;  uncertainty k = 0.444464
         1         2         9        10     9        0.000000        0.710470         3    ;  uncertainty k = 0.202987
         1         2         9        10     9      180.000000        0.304672         4    ;  uncertainty k = 0.249076
         2         3         4        36     9        0.000000        7.296406         1    ;  uncertainty k = 1.850818
         2         3         4        36     9      180.000000        9.175348         2    ;  uncertainty k = 0.502674
         2         3         4        36     9        0.000000        0.892497         3    ;  uncertainty k = 0.481851
         2         3         4        36     9      180.000000       -0.978078         4    ;  uncertainty k = 0.303837
         2         3         4        37     9        0.000000        7.296406         1    ;  uncertainty k = 1.850818
         2         3         4        37     9      180.000000        9.175348         2    ;  uncertainty k = 0.502674
         2         3         4        37     9        0.000000        0.892497         3    ;  uncertainty k = 0.481851
         2         3         4        37     9      180.000000       -0.978078         4    ;  uncertainty k = 0.303837
         2         3         5         6     9        0.000000        8.793325         1    ;  uncertainty k = 0.999323
         2         3         5         6     9      180.000000        5.364073         2    ;  uncertainty k = 1.054422
         2         3         5         6     9        0.000000        0.391839         3    ;  uncertainty k = 0.649188
         2         3         5         6     9      180.000000        0.259146         4    ;  uncertainty k = 0.358687
         2         3         5        51     9        0.000000        3.093855         1    ;  uncertainty k = 2.166989
         2         3         5        51     9      180.000000        9.132623         2    ;  uncertainty k = 0.524240
         2         3         5        51     9        0.000000        1.042979         3    ;  uncertainty k = 0.524480
         2         3         5        51     9      180.000000       -0.489808         4    ;  uncertainty k = 0.466883
         2         9         8         6     9        0.000000       -2.858018         1    ;  uncertainty k = 2.356048
         2         9         8         6     9      180.000000        1.794352         2    ;  uncertainty k = 0.838095
         2         9         8         6     9        0.000000       -0.107582         3    ;  uncertainty k = 0.335617
         2         9         8         6     9      180.000000        0.372941         4    ;  uncertainty k = 0.156153
         2         9         8        41     9        0.000000       -3.653306         1    ;  uncertainty k = 2.960866
         2         9         8        41     9      180.000000        2.021621         2    ;  uncertainty k = 0.498590
         2         9         8        41     9        0.000000        0.295092         3    ;  uncertainty k = 0.233125
         2         9         8        41     9      180.000000       -0.022023         4    ;  uncertainty k = 0.102189
         2         9         8        42     9        0.000000       -3.653306         1    ;  uncertainty k = 2.960866
         2         9         8        42     9      180.000000        2.021621         2    ;  uncertainty k = 0.498590
         2         9         8        42     9        0.000000        0.295092         3    ;  uncertainty k = 0.233125
         2         9         8        42     9      180.000000       -0.022023         4    ;  uncertainty k = 0.102189
         3         2         1        33     9        0.000000       -0.538778         1    ;  uncertainty k = 0.755938
         3         2         1        33     9      180.000000       -1.113041         2    ;  uncertainty k = 0.481363
         3         2         1        33     9        0.000000        0.319969         3    ;  uncertainty k = 0.159962
         3         2         1        33     9      180.000000        0.224213         4    ;  uncertainty k = 0.109432
         3         2         1        34     9        0.000000       -0.538778         1    ;  uncertainty k = 0.755938
         3         2         1        34     9      180.000000       -1.113041         2    ;  uncertainty k = 0.481363
         3         2         1        34     9        0.000000        0.319969         3    ;  uncertainty k = 0.159962
         3         2         1        34     9      180.000000        0.224213         4    ;  uncertainty k = 0.109432
         3         2         1        35     9        0.000000       -0.538778         1    ;  uncertainty k = 0.755938
         3         2         1        35     9      180.000000       -1.113041         2    ;  uncertainty k = 0.481363
         3         2         1        35     9        0.000000        0.319969         3    ;  uncertainty k = 0.159962
         3         2         1        35     9      180.000000        0.224213         4    ;  uncertainty k = 0.109432
         3         2         9         8     9        0.000000        4.337416         1    ;  uncertainty k = 2.338936
         3         2         9         8     9      180.000000       -1.983174         2    ;  uncertainty k = 1.671322
         3         2         9         8     9        0.000000       -0.125779         3    ;  uncertainty k = 0.934441
         3         2         9         8     9      180.000000        0.703976         4    ;  uncertainty k = 0.311856
         3         2         9        10     9        0.000000        3.410002         1    ;  uncertainty k = 2.543228
         3         2         9        10     9      180.000000        8.043546         2    ;  uncertainty k = 0.978969
         3         2         9        10     9        0.000000        0.982680         3    ;  uncertainty k = 0.410397
         3         2         9        10     9      180.000000       -0.009606         4    ;  uncertainty k = 0.325040
         3         5         6         7     9        0.000000       -1.559123         1    ;  uncertainty k = 0.996207
         3         5         6         7     9      180.000000        0.692977         2    ;  uncertainty k = 0.583570
         3         5         6         7     9        0.000000        0.376445         3    ;  uncertainty k = 0.154005
         3         5         6         7     9      180.000000        0.191360         4    ;  uncertainty k = 0.052946
         3         5         6         8     9        0.000000        0.400597         1    ;  uncertainty k = 1.962354
         3         5         6         8     9      180.000000        0.402338         2    ;  uncertainty k = 0.917561
         3         5         6         8     9        0.000000       -0.253473         3    ;  uncertainty k = 0.472714
         3         5         6         8     9      180.000000        0.288423         4    ;  uncertainty k = 0.198771
         3         5         6        11     9        0.000000        0.044462         1    ;  uncertainty k = 0.809430
         3         5         6        11     9      180.000000       -0.364436         2    ;  uncertainty k = 0.606476
         3         5         6        11     9        0.000000        0.268223         3    ;  uncertainty k = 0.274634
         3         5         6        11     9      180.000000        0.315667         4    ;  uncertainty k = 0.202180
         4         3         2         9     9        0.000000        3.395869         1    ;  uncertainty k = 2.091496
         4         3         2         9     9      180.000000        4.242347         2    ;  uncertainty k = 1.742336
         4         3         2         9     9        0.000000        0.124319         3    ;  uncertainty k = 0.689762
         4         3         2         9     9      180.000000       -0.115033         4    ;  uncertainty k = 0.313141
         4         3         5         6     9        0.000000        5.253049         1    ;  uncertainty k = 1.645342
         4         3         5         6     9      180.000000        8.648881         2    ;  uncertainty k = 0.533458
         4         3         5         6     9        0.000000        0.467744         3    ;  uncertainty k = 0.716062
         4         3         5         6     9      180.000000       -0.188093         4    ;  uncertainty k = 0.337633
         4         3         5        51     9        0.000000        1.484349         1    ;  uncertainty k = 1.689491
         4         3         5        51     9      180.000000        9.553867         2    ;  uncertainty k = 0.691350
         4         3         5        51     9        0.000000        1.458048         3    ;  uncertainty k = 0.487985
         4         3         5        51     9      180.000000       -0.282585         4    ;  uncertainty k = 0.400573
         5         3         2         9     9        0.000000        9.246067         1    ;  uncertainty k = 1.887875
         5         3         2         9     9      180.000000        2.270907         2    ;  uncertainty k = 2.248004
         5         3         2         9     9        0.000000       -0.387225         3    ;  uncertainty k = 0.756470
         5         3         2         9     9      180.000000        0.430324         4    ;  uncertainty k = 0.523290
         5         3         4        36     9        0.000000        4.534157         1    ;  uncertainty k = 2.434019
         5         3         4        36     9      180.000000        9.295633         2    ;  uncertainty k = 0.513279
         5         3         4        36     9        0.000000        1.256278         3    ;  uncertainty k = 0.365820
         5         3         4        36     9      180.000000       -0.599314         4    ;  uncertainty k = 0.348224
         5         3         4        37     9        0.000000        4.534157         1    ;  uncertainty k = 2.434019
         5         3         4        37     9      180.000000        9.295633         2    ;  uncertainty k = 0.513279
         5         3         4        37     9        0.000000        1.256278         3    ;  uncertainty k = 0.365820
         5         3         4        37     9      180.000000       -0.599314         4    ;  uncertainty k = 0.348224
         5         6         7        38     9        0.000000       -1.560152         1    ;  uncertainty k = 0.692106
         5         6         7        38     9      180.000000       -0.870775         2    ;  uncertainty k = 0.417543
         5         6         7        38     9        0.000000        0.945102         3    ;  uncertainty k = 0.108690
         5         6         7        38     9      180.000000       -0.248422         4    ;  uncertainty k = 0.157030
         5         6         7        39     9        0.000000       -1.560152         1    ;  uncertainty k = 0.692106
         5         6         7        39     9      180.000000       -0.870775         2    ;  uncertainty k = 0.417543
         5         6         7        39     9        0.000000        0.945102         3    ;  uncertainty k = 0.108690
         5         6         7        39     9      180.000000       -0.248422         4    ;  uncertainty k = 0.157030
         5         6         7        40     9        0.000000       -1.560152         1    ;  uncertainty k = 0.692106
         5         6         7        40     9      180.000000       -0.870775         2    ;  uncertainty k = 0.417543
         5         6         7        40     9        0.000000        0.945102         3    ;  uncertainty k = 0.108690
         5         6         7        40     9      180.000000       -0.248422         4    ;  uncertainty k = 0.157030
         5         6         8         9     9        0.000000        7.955862         1    ;  uncertainty k = 1.904049
         5         6         8         9     9      180.000000       -5.285114         2    ;  uncertainty k = 1.122030
         5         6         8         9     9        0.000000       -0.845708         3    ;  uncertainty k = 0.659958
         5         6         8         9     9      180.000000       -0.037197         4    ;  uncertainty k = 0.387605
         5         6         8        41     9        0.000000       -1.070018         1    ;  uncertainty k = 0.758866
         5         6         8        41     9      180.000000       -0.931278         2    ;  uncertainty k = 0.529993
         5         6         8        41     9        0.000000        0.103678         3    ;  uncertainty k = 0.154029
         5         6         8        41     9      180.000000       -0.273167         4    ;  uncertainty k = 0.125269
         5         6         8        42     9        0.000000       -1.070018         1    ;  uncertainty k = 0.758866
         5         6         8        42     9      180.000000       -0.931278         2    ;  uncertainty k = 0.529993
         5         6         8        42     9        0.000000        0.103678         3    ;  uncertainty k = 0.154029
         5         6         8        42     9      180.000000       -0.273167         4    ;  uncertainty k = 0.125269
         5         6        11        12     9        0.000000       -0.428645         1    ;  uncertainty k = 1.464380
         5         6        11        12     9      180.000000        2.517325         2    ;  uncertainty k = 0.186817
         5         6        11        12     9        0.000000        0.078448         3    ;  uncertainty k = 0.187189
         5         6        11        12     9      180.000000        0.337729         4    ;  uncertainty k = 0.119169
         5         6        11        16     9        0.000000        0.194446         1    ;  uncertainty k = 0.940812
         5         6        11        16     9      180.000000        1.737965         2    ;  uncertainty k = 0.607922
         5         6        11        16     9        0.000000        0.666225         3    ;  uncertainty k = 0.424452
         5         6        11        16     9      180.000000        0.254872         4    ;  uncertainty k = 0.127038
         6         8         9        10     9        0.000000        1.156339         1    ;  uncertainty k = 2.645252
         6         8         9        10     9      180.000000        3.658802         2    ;  uncertainty k = 1.929693
         6         8         9        10     9        0.000000        1.422030         3    ;  uncertainty k = 0.548756
         6         8         9        10     9      180.000000        1.026155         4    ;  uncertainty k = 0.385755
         6        11        12        13     9        0.000000        0.240765         1    ;  uncertainty k = 0.369457
         6        11        12        13     9      180.000000        7.926970         2    ;  uncertainty k = 0.395720
         6        11        12        13     9        0.000000        1.559671         3    ;  uncertainty k = 0.268165
         6        11        12        13     9      180.000000        1.996835         4    ;  uncertainty k = 0.235395
         6        11        12        43     9        0.000000       -0.030015         1    ;  uncertainty k = 0.440087
         6        11        12        43     9      180.000000        7.545355         2    ;  uncertainty k = 0.249174
         6        11        12        43     9        0.000000        0.671120         3    ;  uncertainty k = 0.376702
         6        11        12        43     9      180.000000        1.141634         4    ;  uncertainty k = 0.105209
         6        11        16        15     9        0.000000        0.600138         1    ;  uncertainty k = 0.641507
         6        11        16        15     9      180.000000        6.478021         2    ;  uncertainty k = 0.291953
         6        11        16        15     9        0.000000        1.179498         3    ;  uncertainty k = 0.186178
         6        11        16        15     9      180.000000        1.656044         4    ;  uncertainty k = 0.151451
         6        11        16        17     9        0.000000        0.036661         1    ;  uncertainty k = 0.312227
         6        11        16        17     9      180.000000       10.105788         2    ;  uncertainty k = 0.343406
         6        11        16        17     9        0.000000        1.043740         3    ;  uncertainty k = 0.322974
         6        11        16        17     9      180.000000        1.317931         4    ;  uncertainty k = 0.145887
         7         6         5        51     9        0.000000        0.422189         1    ;  uncertainty k = 0.912221
         7         6         5        51     9      180.000000       -0.016174         2    ;  uncertainty k = 0.498394
         7         6         5        51     9        0.000000        0.358451         3    ;  uncertainty k = 0.216654
         7         6         5        51     9      180.000000        0.156531         4    ;  uncertainty k = 0.074567
         7         6         8         9     9        0.000000       -3.445831         1    ;  uncertainty k = 0.577713
         7         6         8         9     9      180.000000        1.000571         2    ;  uncertainty k = 0.159578
         7         6         8         9     9        0.000000        0.416750         3    ;  uncertainty k = 0.465963
         7         6         8         9     9      180.000000       -0.108520         4    ;  uncertainty k = 0.136148
         7         6         8        41     9        0.000000       -0.802553         1    ;  uncertainty k = 0.394285
         7         6         8        41     9      180.000000        0.276116         2    ;  uncertainty k = 0.372721
         7         6         8        41     9        0.000000        0.095890         3    ;  uncertainty k = 0.163311
         7         6         8        41     9      180.000000       -0.108559         4    ;  uncertainty k = 0.108033
         7         6         8        42     9        0.000000       -0.802553         1    ;  uncertainty k = 0.394285
         7         6         8        42     9      180.000000        0.276116         2    ;  uncertainty k = 0.372721
         7         6         8        42     9        0.000000        0.095890         3    ;  uncertainty k = 0.163311
         7         6         8        42     9      180.000000       -0.108559         4    ;  uncertainty k = 0.108033
         7         6        11        12     9        0.000000       -0.256818         1    ;  uncertainty k = 0.663724
         7         6        11        12     9      180.000000        2.904400         2    ;  uncertainty k = 0.260430
         7         6        11        12     9        0.000000       -0.046780         3    ;  uncertainty k = 0.264105
         7         6        11        12     9      180.000000        0.165686         4    ;  uncertainty k = 0.159180
         7         6        11        16     9        0.000000       -0.157361         1    ;  uncertainty k = 0.766397
         7         6        11        16     9      180.000000        2.874901         2    ;  uncertainty k = 0.241123
         7         6        11        16     9        0.000000        0.491546         3    ;  uncertainty k = 0.267477
         7         6        11        16     9      180.000000        0.163617         4    ;  uncertainty k = 0.097175
         8         6         5        51     9        0.000000       -1.544683         1    ;  uncertainty k = 2.130082
         8         6         5        51     9      180.000000       -1.837800         2    ;  uncertainty k = 1.054897
         8         6         5        51     9        0.000000       -0.066675         3    ;  uncertainty k = 0.271754
         8         6         5        51     9      180.000000        0.336614         4    ;  uncertainty k = 0.101855
         8         6         7        38     9        0.000000       -1.059783         1    ;  uncertainty k = 0.306808
         8         6         7        38     9      180.000000       -0.532508         2    ;  uncertainty k = 0.154200
         8         6         7        38     9        0.000000        0.688929         3    ;  uncertainty k = 0.192978
         8         6         7        38     9      180.000000       -0.160378         4    ;  uncertainty k = 0.106176
         8         6         7        39     9        0.000000       -1.059783         1    ;  uncertainty k = 0.306808
         8         6         7        39     9      180.000000       -0.532508         2    ;  uncertainty k = 0.154200
         8         6         7        39     9        0.000000        0.688929         3    ;  uncertainty k = 0.192978
         8         6         7        39     9      180.000000       -0.160378         4    ;  uncertainty k = 0.106176
         8         6         7        40     9        0.000000       -1.059783         1    ;  uncertainty k = 0.306808
         8         6         7        40     9      180.000000       -0.532508         2    ;  uncertainty k = 0.154200
         8         6         7        40     9        0.000000        0.688929         3    ;  uncertainty k = 0.192978
         8         6         7        40     9      180.000000       -0.160378         4    ;  uncertainty k = 0.106176
         8         6        11        12     9        0.000000       -0.877005         1    ;  uncertainty k = 0.710040
         8         6        11        12     9      180.000000        2.687289         2    ;  uncertainty k = 0.441172
         8         6        11        12     9        0.000000       -0.118467         3    ;  uncertainty k = 0.211495
         8         6        11        12     9      180.000000        0.191203         4    ;  uncertainty k = 0.048452
         8         6        11        16     9        0.000000       -1.196350         1    ;  uncertainty k = 0.579184
         8         6        11        16     9      180.000000        3.008171         2    ;  uncertainty k = 0.750652
         8         6        11        16     9        0.000000        0.453050         3    ;  uncertainty k = 0.196537
         8         6        11        16     9      180.000000        0.215695         4    ;  uncertainty k = 0.077130
         9         2         1        33     9        0.000000       -0.208663         1    ;  uncertainty k = 0.355046
         9         2         1        33     9      180.000000        0.043076         2    ;  uncertainty k = 0.345004
         9         2         1        33     9        0.000000        0.551328         3    ;  uncertainty k = 0.158411
         9         2         1        33     9      180.000000        0.448174         4    ;  uncertainty k = 0.058761
         9         2         1        34     9        0.000000       -0.208663         1    ;  uncertainty k = 0.355046
         9         2         1        34     9      180.000000        0.043076         2    ;  uncertainty k = 0.345004
         9         2         1        34     9        0.000000        0.551328         3    ;  uncertainty k = 0.158411
         9         2         1        34     9      180.000000        0.448174         4    ;  uncertainty k = 0.058761
         9         2         1        35     9        0.000000       -0.208663         1    ;  uncertainty k = 0.355046
         9         2         1        35     9      180.000000        0.043076         2    ;  uncertainty k = 0.345004
         9         2         1        35     9        0.000000        0.551328         3    ;  uncertainty k = 0.158411
         9         2         1        35     9      180.000000        0.448174         4    ;  uncertainty k = 0.058761
         9         8         6        11     9        0.000000       -1.567303         1    ;  uncertainty k = 0.769068
         9         8         6        11     9      180.000000       -0.011395         2    ;  uncertainty k = 0.389562
         9         8         6        11     9        0.000000        0.495788         3    ;  uncertainty k = 0.218666
         9         8         6        11     9      180.000000       -0.048991         4    ;  uncertainty k = 0.128791
        10         9         8        41     9        0.000000        1.264791         1    ;  uncertainty k = 1.159487
        10         9         8        41     9      180.000000        3.606361         2    ;  uncertainty k = 0.668965
        10         9         8        41     9        0.000000        0.294648         3    ;  uncertainty k = 0.220575
        10         9         8        41     9      180.000000        0.064559         4    ;  uncertainty k = 0.138809
        10         9         8        42     9        0.000000        1.264791         1    ;  uncertainty k = 1.159487
        10         9         8        42     9      180.000000        3.606361         2    ;  uncertainty k = 0.668965
        10         9         8        42     9        0.000000        0.294648         3    ;  uncertainty k = 0.220575
        10         9         8        42     9      180.000000        0.064559         4    ;  uncertainty k = 0.138809
        11         6         5        51     9        0.000000        3.263211         1    ;  uncertainty k = 2.082235
        11         6         5        51     9      180.000000       -1.349964         2    ;  uncertainty k = 0.494458
        11         6         5        51     9        0.000000       -0.032905         3    ;  uncertainty k = 0.170988
        11         6         5        51     9      180.000000        0.027806         4    ;  uncertainty k = 0.103782
        11         6         7        38     9        0.000000        0.596240         1    ;  uncertainty k = 0.578788
        11         6         7        38     9      180.000000       -0.490774         2    ;  uncertainty k = 0.469333
        11         6         7        38     9        0.000000        0.828955         3    ;  uncertainty k = 0.074674
        11         6         7        38     9      180.000000       -0.063381         4    ;  uncertainty k = 0.126715
        11         6         7        39     9        0.000000        0.596240         1    ;  uncertainty k = 0.578788
        11         6         7        39     9      180.000000       -0.490774         2    ;  uncertainty k = 0.469333
        11         6         7        39     9        0.000000        0.828955         3    ;  uncertainty k = 0.074674
        11         6         7        39     9      180.000000       -0.063381         4    ;  uncertainty k = 0.126715
        11         6         7        40     9        0.000000        0.596240         1    ;  uncertainty k = 0.578788
        11         6         7        40     9      180.000000       -0.490774         2    ;  uncertainty k = 0.469333
        11         6         7        40     9        0.000000        0.828955         3    ;  uncertainty k = 0.074674
        11         6         7        40     9      180.000000       -0.063381         4    ;  uncertainty k = 0.126715
        11         6         8        41     9        0.000000        0.501753         1    ;  uncertainty k = 0.345261
        11         6         8        41     9      180.000000       -0.380746         2    ;  uncertainty k = 0.437103
        11         6         8        41     9        0.000000        0.337648         3    ;  uncertainty k = 0.052206
        11         6         8        41     9      180.000000       -0.156279         4    ;  uncertainty k = 0.093222
        11         6         8        42     9        0.000000        0.501753         1    ;  uncertainty k = 0.345261
        11         6         8        42     9      180.000000       -0.380746         2    ;  uncertainty k = 0.437103
        11         6         8        42     9        0.000000        0.337648         3    ;  uncertainty k = 0.052206
        11         6         8        42     9      180.000000       -0.156279         4    ;  uncertainty k = 0.093222
        11        12        13        14     9        0.000000       -0.049840         1    ;  uncertainty k = 0.223702
        11        12        13        14     9      180.000000        7.874627         2    ;  uncertainty k = 0.474312
        11        12        13        14     9        0.000000        0.233189         3    ;  uncertainty k = 0.313947
        11        12        13        14     9      180.000000        1.335086         4    ;  uncertainty k = 0.300915
        11        12        13        18     9        0.000000        0.235266         1    ;  uncertainty k = 0.183660
        11        12        13        18     9      180.000000        9.102197         2    ;  uncertainty k = 0.572106
        11        12        13        18     9        0.000000        1.230568         3    ;  uncertainty k = 0.438652
        11        12        13        18     9      180.000000        1.655887         4    ;  uncertainty k = 0.319778
        11        16        15        14     9        0.000000        0.032009         1    ;  uncertainty k = 0.190796
        11        16        15        14     9      180.000000        7.849069         2    ;  uncertainty k = 0.449976
        11        16        15        14     9        0.000000        0.186456         3    ;  uncertainty k = 0.320891
        11        16        15        14     9      180.000000        1.349437         4    ;  uncertainty k = 0.203613
        11        16        15        45     9        0.000000        0.020024         1    ;  uncertainty k = 0.423103
        11        16        15        45     9      180.000000        5.455127         2    ;  uncertainty k = 0.725851
        11        16        15        45     9        0.000000        1.216278         3    ;  uncertainty k = 0.258670
        11        16        15        45     9      180.000000        1.446026         4    ;  uncertainty k = 0.151188
        12        11        16        15     9        0.000000       -0.475229         1    ;  uncertainty k = 0.324453
        12        11        16        15     9      180.000000        6.635719         2    ;  uncertainty k = 0.564400
        12        11        16        15     9        0.000000        0.240631         3    ;  uncertainty k = 0.276074
        12        11        16        15     9      180.000000        1.194255         4    ;  uncertainty k = 0.350922
        12        11        16        17     9        0.000000        0.044543         1    ;  uncertainty k = 0.349731
        12        11        16        17     9      180.000000       11.207864         2    ;  uncertainty k = 0.465945
        12        11        16        17     9        0.000000        1.425604         3    ;  uncertainty k = 0.228282
        12        11        16        17     9      180.000000        1.427345         4    ;  uncertainty k = 0.258872
        12        13        14        15     9        0.000000       -0.181166         1    ;  uncertainty k = 0.163944
        12        13        14        15     9      180.000000        9.696728         2    ;  uncertainty k = 0.429052
        12        13        14        15     9        0.000000       -0.038940         3    ;  uncertainty k = 0.130655
        12        13        14        15     9      180.000000        1.228488         4    ;  uncertainty k = 0.250923
        12        13        14        44     9        0.000000        0.184450         1    ;  uncertainty k = 0.349319
        12        13        14        44     9      180.000000        6.983556         2    ;  uncertainty k = 0.426384
        12        13        14        44     9        0.000000        1.207675         3    ;  uncertainty k = 0.359682
        12        13        14        44     9      180.000000        1.521226         4    ;  uncertainty k = 0.130479
        12        13        18        19     9        0.000000        1.181735         1    ;  uncertainty k = 0.598529
        12        13        18        19     9      180.000000        4.910771         2    ;  uncertainty k = 0.153609
        12        13        18        19     9        0.000000        0.957489         3    ;  uncertainty k = 0.127506
        12        13        18        19     9      180.000000        0.082190         4    ;  uncertainty k = 0.092749
        12        13        18        46     9        0.000000        1.018617         1    ;  uncertainty k = 1.392616
        12        13        18        46     9      180.000000        3.692281         2    ;  uncertainty k = 0.102336
        12        13        18        46     9        0.000000        0.675018         3    ;  uncertainty k = 0.106311
        12        13        18        46     9      180.000000        0.571660         4    ;  uncertainty k = 0.102294
        13        12        11        16     9        0.000000       -0.237331         1    ;  uncertainty k = 0.248404
        13        12        11        16     9      180.000000       11.350029         2    ;  uncertainty k = 0.337081
        13        12        11        16     9        0.000000        0.070935         3    ;  uncertainty k = 0.438088
        13        12        11        16     9      180.000000        1.060439         4    ;  uncertainty k = 0.371990
        13        14        15        16     9        0.000000       -0.140347         1    ;  uncertainty k = 0.299400
        13        14        15        16     9      180.000000       14.187283         2    ;  uncertainty k = 0.334432
        13        14        15        16     9        0.000000       -0.749631         3    ;  uncertainty k = 0.516125
        13        14        15        16     9      180.000000        0.824434         4    ;  uncertainty k = 0.277210
        13        14        15        45     9        0.000000        0.080532         1    ;  uncertainty k = 0.379377
        13        14        15        45     9      180.000000        8.010291         2    ;  uncertainty k = 0.359513
        13        14        15        45     9        0.000000        1.309768         3    ;  uncertainty k = 0.318083
        13        14        15        45     9      180.000000        1.772140         4    ;  uncertainty k = 0.113952
        13        18        19        20     9        0.000000        3.177634         1    ;  uncertainty k = 0.727184
        13        18        19        20     9      180.000000       14.149636         2    ;  uncertainty k = 0.173790
        13        18        19        20     9        0.000000        0.794919         3    ;  uncertainty k = 0.150672
        13        18        19        20     9      180.000000       -0.671251         4    ;  uncertainty k = 0.299413
        13        18        19        21     9        0.000000        3.833802         1    ;  uncertainty k = 1.273746
        13        18        19        21     9      180.000000       12.070937         2    ;  uncertainty k = 0.212339
        13        18        19        21     9        0.000000        2.104017         3    ;  uncertainty k = 0.220826
        13        18        19        21     9      180.000000       -1.547503         4    ;  uncertainty k = 0.363798
        14        13        12        43     9        0.000000        0.129786         1    ;  uncertainty k = 0.231518
        14        13        12        43     9      180.000000        6.807331         2    ;  uncertainty k = 0.544253
        14        13        12        43     9        0.000000        1.331042         3    ;  uncertainty k = 0.247809
        14        13        12        43     9      180.000000        1.555309         4    ;  uncertainty k = 0.149295
        14        13        18        19     9        0.000000        1.248276         1    ;  uncertainty k = 0.279175
        14        13        18        19     9      180.000000        4.673963         2    ;  uncertainty k = 0.109195
        14        13        18        19     9        0.000000        1.108720         3    ;  uncertainty k = 0.158486
        14        13        18        19     9      180.000000        0.094736         4    ;  uncertainty k = 0.055496
        14        13        18        46     9        0.000000        0.559994         1    ;  uncertainty k = 1.264897
        14        13        18        46     9      180.000000        3.575617         2    ;  uncertainty k = 0.081960
        14        13        18        46     9        0.000000        0.721606         3    ;  uncertainty k = 0.139042
        14        13        18        46     9      180.000000        0.635784         4    ;  uncertainty k = 0.154621
        14        15        16        17     9        0.000000       -0.105233         1    ;  uncertainty k = 0.297377
        14        15        16        17     9      180.000000       12.713459         2    ;  uncertainty k = 0.526663
        14        15        16        17     9        0.000000        1.372097         3    ;  uncertainty k = 0.337537
        14        15        16        17     9      180.000000        1.583061         4    ;  uncertainty k = 0.269395
        15        14        13        18     9        0.000000        0.106621         1    ;  uncertainty k = 0.162780
        15        14        13        18     9      180.000000       10.364183         2    ;  uncertainty k = 0.527933
        15        14        13        18     9        0.000000        1.065550         3    ;  uncertainty k = 0.488658
        15        14        13        18     9      180.000000        1.661694         4    ;  uncertainty k = 0.188101
        16        11        12        43     9        0.000000        0.117490         1    ;  uncertainty k = 0.173802
        16        11        12        43     9      180.000000        8.505464         2    ;  uncertainty k = 0.311877
        16        11        12        43     9        0.000000        1.496653         3    ;  uncertainty k = 0.322798
        16        11        12        43     9      180.000000        1.708394         4    ;  uncertainty k = 0.091049
        16        15        14        44     9        0.000000        0.025895         1    ;  uncertainty k = 0.320376
        16        15        14        44     9      180.000000        8.051534         2    ;  uncertainty k = 0.249673
        16        15        14        44     9        0.000000        1.354302         3    ;  uncertainty k = 0.326666
        16        15        14        44     9      180.000000        1.789734         4    ;  uncertainty k = 0.131148
        17        16        15        45     9        0.000000       -0.348882         1    ;  uncertainty k = 0.370578
        17        16        15        45     9      180.000000        9.399255         2    ;  uncertainty k = 0.292521
        17        16        15        45     9        0.000000        0.809685         3    ;  uncertainty k = 0.173261
        17        16        15        45     9      180.000000        1.066368         4    ;  uncertainty k = 0.100375
        18        13        12        43     9        0.000000       -0.001376         1    ;  uncertainty k = 0.275539
        18        13        12        43     9      180.000000        8.467355         2    ;  uncertainty k = 0.538591
        18        13        12        43     9        0.000000        0.828271         3    ;  uncertainty k = 0.159723
        18        13        12        43     9      180.000000        1.297697         4    ;  uncertainty k = 0.248141
        18        13        14        44     9        0.000000       -0.227738         1    ;  uncertainty k = 0.211618
        18        13        14        44     9      180.000000        8.485183         2    ;  uncertainty k = 0.490544
        18        13        14        44     9        0.000000        0.838680         3    ;  uncertainty k = 0.236671
        18        13        14        44     9      180.000000        1.186888         4    ;  uncertainty k = 0.206572
        18        19        21        22     9        0.000000       -2.570714         1    ;  uncertainty k = 1.302409
        18        19        21        22     9      180.000000        3.064577         2    ;  uncertainty k = 0.444207
        18        19        21        22     9        0.000000       -0.057380         3    ;  uncertainty k = 0.620041
        18        19        21        22     9      180.000000       -0.029639         4    ;  uncertainty k = 0.366727
        18        19        21        26     9        0.000000        2.678358         1    ;  uncertainty k = 1.465066
        18        19        21        26     9      180.000000        4.207265         2    ;  uncertainty k = 0.314853
        18        19        21        26     9        0.000000        0.358689         3    ;  uncertainty k = 0.432617
        18        19        21        26     9      180.000000        0.120908         4    ;  uncertainty k = 0.101875
        19        21        22        23     9        0.000000        0.458216         1    ;  uncertainty k = 0.610833
        19        21        22        23     9      180.000000        8.068359         2    ;  uncertainty k = 0.680207
        19        21        22        23     9        0.000000        0.930492         3    ;  uncertainty k = 0.285415
        19        21        22        23     9      180.000000        1.581250         4    ;  uncertainty k = 0.125066
        19        21        22        47     9        0.000000       -0.046600         1    ;  uncertainty k = 1.801172
        19        21        22        47     9      180.000000        6.073023         2    ;  uncertainty k = 0.532847
        19        21        22        47     9        0.000000        0.588815         3    ;  uncertainty k = 0.187458
        19        21        22        47     9      180.000000        0.695730         4    ;  uncertainty k = 0.393673
        19        21        26        25     9        0.000000        0.314359         1    ;  uncertainty k = 1.730827
        19        21        26        25     9      180.000000       13.546231         2    ;  uncertainty k = 0.704290
        19        21        26        25     9        0.000000        2.441120         3    ;  uncertainty k = 0.311819
        19        21        26        25     9      180.000000        1.438713         4    ;  uncertainty k = 0.440261
        20        19        18        46     9        0.000000        1.051783         1    ;  uncertainty k = 1.224486
        20        19        18        46     9      180.000000       12.949140         2    ;  uncertainty k = 0.548439
        20        19        18        46     9        0.000000        2.400341         3    ;  uncertainty k = 0.460496
        20        19        18        46     9      180.000000        0.061721         4    ;  uncertainty k = 0.237015
        20        19        21        22     9        0.000000       -0.336718         1    ;  uncertainty k = 1.020027
        20        19        21        22     9      180.000000        3.844186         2    ;  uncertainty k = 0.830721
        20        19        21        22     9        0.000000        0.275673         3    ;  uncertainty k = 0.354119
        20        19        21        22     9      180.000000       -0.048058         4    ;  uncertainty k = 0.070290
        20        19        21        26     9        0.000000       -3.674158         1    ;  uncertainty k = 1.802639
        20        19        21        26     9      180.000000        4.850867         2    ;  uncertainty k = 0.864770
        20        19        21        26     9        0.000000        0.765587         3    ;  uncertainty k = 0.374762
        20        19        21        26     9      180.000000        0.008963         4    ;  uncertainty k = 0.103061
        21        19        18        46     9        0.000000        0.759884         1    ;  uncertainty k = 1.330623
        21        19        18        46     9      180.000000        5.554002         2    ;  uncertainty k = 0.539018
        21        19        18        46     9        0.000000        2.122398         3    ;  uncertainty k = 0.383493
        21        19        18        46     9      180.000000        0.250906         4    ;  uncertainty k = 0.168193
        21        22        23        24     9        0.000000       -0.111358         1    ;  uncertainty k = 1.196121
        21        22        23        24     9      180.000000       13.306975         2    ;  uncertainty k = 0.661367
        21        22        23        24     9        0.000000        1.035013         3    ;  uncertainty k = 0.638815
        21        22        23        24     9      180.000000        1.290596         4    ;  uncertainty k = 0.305316
        21        26        25        24     9        0.000000        0.259970         1    ;  uncertainty k = 1.113808
        21        26        25        24     9      180.000000       15.149895         2    ;  uncertainty k = 0.454718
        21        26        25        24     9        0.000000        1.076467         3    ;  uncertainty k = 0.587859
        21        26        25        24     9      180.000000        1.613854         4    ;  uncertainty k = 0.321011
        21        26        25        48     9        0.000000        0.258703         1    ;  uncertainty k = 0.279783
        21        26        25        48     9      180.000000       16.639773         2    ;  uncertainty k = 0.353796
        21        26        25        48     9        0.000000        2.406439         3    ;  uncertainty k = 0.611486
        21        26        25        48     9      180.000000        1.563586         4    ;  uncertainty k = 0.230585
        22        21        26        25     9        0.000000       -0.461239         1    ;  uncertainty k = 0.695677
        22        21        26        25     9      180.000000       11.275020         2    ;  uncertainty k = 0.361533
        22        21        26        25     9        0.000000        1.580582         3    ;  uncertainty k = 0.276124
        22        21        26        25     9      180.000000        1.138585         4    ;  uncertainty k = 0.256678
        22        23        24        25     9        0.000000        0.020493         1    ;  uncertainty k = 0.719807
        22        23        24        25     9      180.000000        9.605231         2    ;  uncertainty k = 0.777301
        22        23        24        25     9        0.000000        1.575246         3    ;  uncertainty k = 0.374886
        22        23        24        25     9      180.000000        1.120236         4    ;  uncertainty k = 0.128050
        22        23        24        27     9        0.000000        1.015583         1    ;  uncertainty k = 1.384664
        22        23        24        27     9      180.000000       14.539928         2    ;  uncertainty k = 0.098956
        22        23        24        27     9        0.000000        2.608454         3    ;  uncertainty k = 0.323928
        22        23        24        27     9      180.000000        1.616050         4    ;  uncertainty k = 0.223591
        23        22        21        26     9        0.000000       -0.404234         1    ;  uncertainty k = 0.231683
        23        22        21        26     9      180.000000       12.091496         2    ;  uncertainty k = 0.927261
        23        22        21        26     9        0.000000       -0.298527         3    ;  uncertainty k = 0.248932
        23        22        21        26     9      180.000000        1.239550         4    ;  uncertainty k = 0.497269
        23        24        25        26     9        0.000000       -0.844061         1    ;  uncertainty k = 0.220742
        23        24        25        26     9      180.000000        7.714325         2    ;  uncertainty k = 0.963792
        23        24        25        26     9        0.000000       -0.761282         3    ;  uncertainty k = 0.344483
        23        24        25        26     9      180.000000        1.001666         4    ;  uncertainty k = 0.643966
        23        24        25        48     9        0.000000       -0.239238         1    ;  uncertainty k = 0.992756
        23        24        25        48     9      180.000000        4.446165         2    ;  uncertainty k = 0.907581
        23        24        25        48     9        0.000000        0.658533         3    ;  uncertainty k = 0.196697
        23        24        25        48     9      180.000000        1.000246         4    ;  uncertainty k = 0.215489
        23        24        27        28     9        0.000000        1.592549         1    ;  uncertainty k = 0.884611
        23        24        27        28     9      180.000000        9.619940         2    ;  uncertainty k = 0.320065
        23        24        27        28     9        0.000000        0.446619         3    ;  uncertainty k = 0.251395
        23        24        27        28     9      180.000000        0.143818         4    ;  uncertainty k = 0.064816
        24        23        22        47     9        0.000000        0.559492         1    ;  uncertainty k = 0.473844
        24        23        22        47     9      180.000000       15.652655         2    ;  uncertainty k = 0.583753
        24        23        22        47     9        0.000000        2.077550         3    ;  uncertainty k = 0.853101
        24        23        22        47     9      180.000000        1.511772         4    ;  uncertainty k = 0.427910
        24        27        28        29     9        0.000000       -0.882696         1    ;  uncertainty k = 0.742883
        24        27        28        29     9      180.000000       -0.026979         2    ;  uncertainty k = 0.250644
        24        27        28        29     9        0.000000       -0.462806         3    ;  uncertainty k = 0.379263
        24        27        28        29     9      180.000000        0.658751         4    ;  uncertainty k = 0.183616
        24        27        28        49     9        0.000000        1.782363         1    ;  uncertainty k = 0.921562
        24        27        28        49     9      180.000000        0.435680         2    ;  uncertainty k = 0.246184
        24        27        28        49     9        0.000000        0.020042         3    ;  uncertainty k = 0.230415
        24        27        28        49     9      180.000000        0.339340         4    ;  uncertainty k = 0.060597
        24        27        28        50     9        0.000000        1.782363         1    ;  uncertainty k = 0.921562
        24        27        28        50     9      180.000000        0.435680         2    ;  uncertainty k = 0.246184
        24        27        28        50     9        0.000000        0.020042         3    ;  uncertainty k = 0.230415
        24        27        28        50     9      180.000000        0.339340         4    ;  uncertainty k = 0.060597
        25        24        27        28     9        0.000000        0.516886         1    ;  uncertainty k = 1.177638
        25        24        27        28     9      180.000000        7.007019         2    ;  uncertainty k = 0.503060
        25        24        27        28     9        0.000000        0.805426         3    ;  uncertainty k = 0.376840
        25        24        27        28     9      180.000000        0.097939         4    ;  uncertainty k = 0.146797
        26        21        22        47     9        0.000000       -0.211362         1    ;  uncertainty k = 0.461513
        26        21        22        47     9      180.000000        5.738048         2    ;  uncertainty k = 1.172620
        26        21        22        47     9        0.000000        0.881556         3    ;  uncertainty k = 0.236380
        26        21        22        47     9      180.000000        1.387547         4    ;  uncertainty k = 0.267866
        26        25        24        27     9        0.000000        0.164333         1    ;  uncertainty k = 0.621271
        26        25        24        27     9      180.000000        6.511387         2    ;  uncertainty k = 0.955397
        26        25        24        27     9        0.000000        0.452900         3    ;  uncertainty k = 0.425249
        26        25        24        27     9      180.000000        1.133799         4    ;  uncertainty k = 0.475820
        27        24        25        48     9        0.000000       -0.292570         1    ;  uncertainty k = 0.898687
        27        24        25        48     9      180.000000        5.041762         2    ;  uncertainty k = 0.252473
        27        24        25        48     9        0.000000        0.530876         3    ;  uncertainty k = 0.257191
        27        24        25        48     9      180.000000        0.667289         4    ;  uncertainty k = 0.270280
        27        28        29        30     9        0.000000        1.495116         1    ;  uncertainty k = 1.012738
        27        28        29        30     9      180.000000       -1.159843         2    ;  uncertainty k = 0.561897
        27        28        29        30     9        0.000000        1.013969         3    ;  uncertainty k = 0.171328
        27        28        29        30     9      180.000000        0.260818         4    ;  uncertainty k = 0.189879
        27        28        29        31     9        0.000000        1.495116         1    ;  uncertainty k = 1.012738
        27        28        29        31     9      180.000000       -1.159843         2    ;  uncertainty k = 0.561897
        27        28        29        31     9        0.000000        1.013969         3    ;  uncertainty k = 0.171328
        27        28        29        31     9      180.000000        0.260818         4    ;  uncertainty k = 0.189879
        27        28        29        32     9        0.000000        1.495116         1    ;  uncertainty k = 1.012738
        27        28        29        32     9      180.000000       -1.159843         2    ;  uncertainty k = 0.561897
        27        28        29        32     9        0.000000        1.013969         3    ;  uncertainty k = 0.171328
        27        28        29        32     9      180.000000        0.260818         4    ;  uncertainty k = 0.189879
        30        29        28        49     9        0.000000       -0.760227         1    ;  uncertainty k = 0.346427
        30        29        28        49     9      180.000000       -0.130906         2    ;  uncertainty k = 0.274801
        30        29        28        49     9        0.000000        0.310449         3    ;  uncertainty k = 0.061534
        30        29        28        49     9      180.000000       -0.168515         4    ;  uncertainty k = 0.095920
        30        29        28        50     9        0.000000       -0.760227         1    ;  uncertainty k = 0.346427
        30        29        28        50     9      180.000000       -0.130906         2    ;  uncertainty k = 0.274801
        30        29        28        50     9        0.000000        0.310449         3    ;  uncertainty k = 0.061534
        30        29        28        50     9      180.000000       -0.168515         4    ;  uncertainty k = 0.095920
        31        29        28        49     9        0.000000       -0.760227         1    ;  uncertainty k = 0.346427
        31        29        28        49     9      180.000000       -0.130906         2    ;  uncertainty k = 0.274801
        31        29        28        49     9        0.000000        0.310449         3    ;  uncertainty k = 0.061534
        31        29        28        49     9      180.000000       -0.168515         4    ;  uncertainty k = 0.095920
        31        29        28        50     9        0.000000       -0.760227         1    ;  uncertainty k = 0.346427
        31        29        28        50     9      180.000000       -0.130906         2    ;  uncertainty k = 0.274801
        31        29        28        50     9        0.000000        0.310449         3    ;  uncertainty k = 0.061534
        31        29        28        50     9      180.000000       -0.168515         4    ;  uncertainty k = 0.095920
        32        29        28        49     9        0.000000       -0.760227         1    ;  uncertainty k = 0.346427
        32        29        28        49     9      180.000000       -0.130906         2    ;  uncertainty k = 0.274801
        32        29        28        49     9        0.000000        0.310449         3    ;  uncertainty k = 0.061534
        32        29        28        49     9      180.000000       -0.168515         4    ;  uncertainty k = 0.095920
        32        29        28        50     9        0.000000       -0.760227         1    ;  uncertainty k = 0.346427
        32        29        28        50     9      180.000000       -0.130906         2    ;  uncertainty k = 0.274801
        32        29        28        50     9        0.000000        0.310449         3    ;  uncertainty k = 0.061534
        32        29        28        50     9      180.000000       -0.168515         4    ;  uncertainty k = 0.095920
        44        14        15        45     9        0.000000       -0.153106         1    ;  uncertainty k = 0.348612
        44        14        15        45     9      180.000000        8.236028         2    ;  uncertainty k = 0.380609
        44        14        15        45     9        0.000000       -0.419069         3    ;  uncertainty k = 0.255104
        44        14        15        45     9      180.000000        0.141943         4    ;  uncertainty k = 0.232374

[ dihedrals ] ; impropers
;       ai        aj        ak        al funct           phase               k        pn
         2         1         3         9     4      180.000000        3.488069         2    ;  uncertainty k = 0.874226
         2         3         9         1     4      180.000000        3.488069         2    ;  uncertainty k = 0.874226
         2         9         1         3     4      180.000000        3.488069         2    ;  uncertainty k = 0.874226
         3         2         4         5     4      180.000000       37.755696         2    ;  uncertainty k = 0.153939
         3         4         5         2     4      180.000000       37.755696         2    ;  uncertainty k = 0.153939
         3         5         2         4     4      180.000000       37.755696         2    ;  uncertainty k = 0.153939
         4         3        36        37     4      180.000000        0.189446         2    ;  uncertainty k = 0.423615
         4        36        37         3     4      180.000000        0.189446         2    ;  uncertainty k = 0.423615
         4        37         3        36     4      180.000000        0.189446         2    ;  uncertainty k = 0.423615
         5         3         6        51     4      180.000000        0.562955         2    ;  uncertainty k = 0.792027
         5         6        51         3     4      180.000000        0.562955         2    ;  uncertainty k = 0.792027
         5        51         3         6     4      180.000000        0.562955         2    ;  uncertainty k = 0.792027
         9         2         8        10     4      180.000000       53.494711         2    ;  uncertainty k = 0.038139
         9         8        10         2     4      180.000000       53.494711         2    ;  uncertainty k = 0.038139
         9        10         2         8     4      180.000000       53.494711         2    ;  uncertainty k = 0.038139
        11         6        12        16     4      180.000000       10.155582         2    ;  uncertainty k = 0.269535
        11        12        16         6     4      180.000000       10.155582         2    ;  uncertainty k = 0.269535
        11        16         6        12     4      180.000000       10.155582         2    ;  uncertainty k = 0.269535
        12        11        13        43     4      180.000000        3.829106         2    ;  uncertainty k = 0.385537
        12        13        43        11     4      180.000000        3.829106         2    ;  uncertainty k = 0.385537
        12        43        11        13     4      180.000000        3.829106         2    ;  uncertainty k = 0.385537
        13        12        14        18     4      180.000000       16.792710         2    ;  uncertainty k = 0.141292
        13        14        18        12     4      180.000000       16.792710         2    ;  uncertainty k = 0.141292
        13        18        12        14     4      180.000000       16.792710         2    ;  uncertainty k = 0.141292
        14        13        15        44     4      180.000000        3.616411         2    ;  uncertainty k = 0.252646
        14        15        44        13     4      180.000000        3.616411         2    ;  uncertainty k = 0.252646
        14        44        13        15     4      180.000000        3.616411         2    ;  uncertainty k = 0.252646
        15        14        16        45     4      180.000000        1.713696         2    ;  uncertainty k = 0.352462
        15        16        45        14     4      180.000000        1.713696         2    ;  uncertainty k = 0.352462
        15        45        14        16     4      180.000000        1.713696         2    ;  uncertainty k = 0.352462
        16        11        15        17     4      180.000000       14.944536         2    ;  uncertainty k = 0.138122
        16        15        17        11     4      180.000000       14.944536         2    ;  uncertainty k = 0.138122
        16        17        11        15     4      180.000000       14.944536         2    ;  uncertainty k = 0.138122
        18        13        19        46     4      180.000000        0.983701         2    ;  uncertainty k = 0.795606
        18        19        46        13     4      180.000000        0.983701         2    ;  uncertainty k = 0.795606
        18        46        13        19     4      180.000000        0.983701         2    ;  uncertainty k = 0.795606
        19        18        20        21     4      180.000000       49.287291         2    ;  uncertainty k = 0.035702
        19        20        21        18     4      180.000000       49.287291         2    ;  uncertainty k = 0.035702
        19        21        18        20     4      180.000000       49.287291         2    ;  uncertainty k = 0.035702
        21        19        22        26     4      180.000000       12.529772         2    ;  uncertainty k = 0.275801
        21        22        26        19     4      180.000000       12.529772         2    ;  uncertainty k = 0.275801
        21        26        19        22     4      180.000000       12.529772         2    ;  uncertainty k = 0.275801
        22        21        23        47     4      180.000000       13.936807         2    ;  uncertainty k = 0.045568
        22        23        47        21     4      180.000000       13.936807         2    ;  uncertainty k = 0.045568
        22        47        21        23     4      180.000000       13.936807         2    ;  uncertainty k = 0.045568
        24        23        25        27     4      180.000000       29.449908         2    ;  uncertainty k = 0.029280
        24        25        27        23     4      180.000000       29.449908         2    ;  uncertainty k = 0.029280
        24        27        23        25     4      180.000000       29.449908         2    ;  uncertainty k = 0.029280
        25        24        26        48     4      180.000000        9.621464         2    ;  uncertainty k = 0.149597
        25        26        48        24     4      180.000000        9.621464         2    ;  uncertainty k = 0.149597
        25        48        24        26     4      180.000000        9.621464         2    ;  uncertainty k = 0.149597

[ pairs ]
;       ai        aj funct
         1         4     1
         1         5     1
         1         8     1
         1        10     1
         2         6     1
         2        36     1
         2        37     1
         2        41     1
         2        42     1
         2        51     1
         3         7     1
         3         8     1
         3        10     1
         3        11     1
         3        33     1
         3        34     1
         3        35     1
         4         6     1
         4         9     1
         4        51     1
         5         9     1
         5        12     1
         5        16     1
         5        36     1
         5        37     1
         5        38     1
         5        39     1
         5        40     1
         5        41     1
         5        42     1
         6        10     1
         6        13     1
         6        15     1
         6        17     1
         6        43     1
         7         9     1
         7        12     1
         7        16     1
         7        41     1
         7        42     1
         7        51     1
         8        12     1
         8        16     1
         8        38     1
         8        39     1
         8        40     1
         8        51     1
         9        11     1
         9        33     1
         9        34     1
         9        35     1
        10        41     1
        10        42     1
        11        14     1
        11        18     1
        11        38     1
        11        39     1
        11        40     1
        11        41     1
        11        42     1
        11        45     1
        11        51     1
        12        15     1
        12        17     1
        12        19     1
        12        44     1
        12        46     1
        13        16     1
        13        20     1
        13        21     1
        13        45     1
        14        17     1
        14        19     1
        14        43     1
        14        46     1
        15        18     1
        16        43     1
        16        44     1
        17        45     1
        18        22     1
        18        26     1
        18        43     1
        18        44     1
        19        23     1
        19        25     1
        19        47     1
        20        22     1
        20        26     1
        20        46     1
        21        24     1
        21        46     1
        21        48     1
        22        25     1
        22        27     1
        23        26     1
        23        28     1
        23        48     1
        24        29     1
        24        47     1
        24        49     1
        24        50     1
        25        28     1
        26        27     1
        26        47     1
        27        30     1
        27        31     1
        27        32     1
        27        48     1
        30        49     1
        30        50     1
        31        49     1
        31        50     1
        32        49     1
        32        50     1
        44        45     1
