; ITP file created by ByteFF-joint-25, 2025-07-14 11:32:20.050262

[ atomtypes ]
;name           bonded.type        at.num        mass        charge   ptype           sigma         epsilon
 c0bf                                   6      0.0000       0.00000       A     3.39798e-01     4.50887e-01    ;  uncertainty sigma = 0.000013, epsilon = 0.001162
 c1bf                                   6      0.0000       0.00000       A     3.47970e-01     6.66885e-01    ;  uncertainty sigma = 0.000049, epsilon = 0.003404
 c2bf                                   6      0.0000       0.00000       A     3.47994e-01     6.68475e-01    ;  uncertainty sigma = 0.000023, epsilon = 0.002814
 c3bf                                   6      0.0000       0.00000       A     3.39741e-01     4.50543e-01    ;  uncertainty sigma = 0.000016, epsilon = 0.000701
 o4bf                                   8      0.0000       0.00000       A     3.15576e-01     3.03316e-01    ;  uncertainty sigma = 0.000035, epsilon = 0.000897
 c5bf                                   6      0.0000       0.00000       A     3.31547e-01     4.13123e-01    ;  uncertainty sigma = 0.000009, epsilon = 0.001902
 c6bf                                   6      0.0000       0.00000       A     3.31535e-01     4.13520e-01    ;  uncertainty sigma = 0.000009, epsilon = 0.001032
 n7bf                                   7      0.0000       0.00000       A     3.38390e-01     3.93325e-01    ;  uncertainty sigma = 0.000020, epsilon = 0.000402
 c8bf                                   6      0.0000       0.00000       A     3.31529e-01     4.12962e-01    ;  uncertainty sigma = 0.000009, epsilon = 0.000908
 c9bf                                   6      0.0000       0.00000       A     3.31550e-01     4.13644e-01    ;  uncertainty sigma = 0.000016, epsilon = 0.001518
 n10bf                                  7      0.0000       0.00000       A     3.38407e-01     3.93616e-01    ;  uncertainty sigma = 0.000019, epsilon = 0.000775
 c11bf                                  6      0.0000       0.00000       A     3.31512e-01     4.12533e-01    ;  uncertainty sigma = 0.000017, epsilon = 0.000770
 o12bf                                  8      0.0000       0.00000       A     3.04829e-01     6.12938e-01    ;  uncertainty sigma = 0.000026, epsilon = 0.001502
 n13bf                                  7      0.0000       0.00000       A     3.27000e-01     4.90789e-01    ;  uncertainty sigma = 0.000031, epsilon = 0.001094
 c14bf                                  6      0.0000       0.00000       A     3.31512e-01     4.13288e-01    ;  uncertainty sigma = 0.000007, epsilon = 0.001098
 c15bf                                  6      0.0000       0.00000       A     3.31527e-01     4.13336e-01    ;  uncertainty sigma = 0.000006, epsilon = 0.000429
 c16bf                                  6      0.0000       0.00000       A     3.31530e-01     4.13226e-01    ;  uncertainty sigma = 0.000003, epsilon = 0.000619
 c17bf                                  6      0.0000       0.00000       A     3.31546e-01     4.12950e-01    ;  uncertainty sigma = 0.000012, epsilon = 0.000221
 f18bf                                  9      0.0000       0.00000       A     3.03457e-01     3.47820e-01    ;  uncertainty sigma = 0.000024, epsilon = 0.001496
 c19bf                                  6      0.0000       0.00000       A     3.31476e-01     4.13991e-01    ;  uncertainty sigma = 0.000010, epsilon = 0.001399
 c20bf                                  6      0.0000       0.00000       A     3.31531e-01     4.13829e-01    ;  uncertainty sigma = 0.000013, epsilon = 0.001150
 c21bf                                  6      0.0000       0.00000       A     3.39814e-01     4.51098e-01    ;  uncertainty sigma = 0.000025, epsilon = 0.003336
 c22bf                                  6      0.0000       0.00000       A     3.39761e-01     4.50765e-01    ;  uncertainty sigma = 0.000009, epsilon = 0.001200
 c23bf                                  6      0.0000       0.00000       A     3.39741e-01     4.51120e-01    ;  uncertainty sigma = 0.000021, epsilon = 0.001041
 c24bf                                  6      0.0000       0.00000       A     3.31519e-01     4.13467e-01    ;  uncertainty sigma = 0.000015, epsilon = 0.001385
 o25bf                                  8      0.0000       0.00000       A     3.04866e-01     6.11575e-01    ;  uncertainty sigma = 0.000029, epsilon = 0.000747
 n26bf                                  7      0.0000       0.00000       A     3.18045e-01     6.86715e-01    ;  uncertainty sigma = 0.000056, epsilon = 0.002911
 c27bf                                  6      0.0000       0.00000       A     3.39779e-01     4.50875e-01    ;  uncertainty sigma = 0.000010, epsilon = 0.001294
 c28bf                                  6      0.0000       0.00000       A     3.31514e-01     4.11760e-01    ;  uncertainty sigma = 0.000063, epsilon = 0.001890
 n29bf                                  7      0.0000       0.00000       A     3.36760e-01     4.69957e-01    ;  uncertainty sigma = 0.000090, epsilon = 0.002477
 n30bf                                  7      0.0000       0.00000       A     3.27884e-01     6.44716e-01    ;  uncertainty sigma = 0.000149, epsilon = 0.009705
 h31bf                                  1      0.0000       0.00000       A     2.60022e-01     8.68300e-02    ;  uncertainty sigma = 0.000010, epsilon = 0.000612
 h32bf                                  1      0.0000       0.00000       A     2.60022e-01     8.68300e-02    ;  uncertainty sigma = 0.000010, epsilon = 0.000612
 h33bf                                  1      0.0000       0.00000       A     2.60022e-01     8.68300e-02    ;  uncertainty sigma = 0.000010, epsilon = 0.000612
 h34bf                                  1      0.0000       0.00000       A     2.42269e-01     8.70764e-02    ;  uncertainty sigma = 0.000047, epsilon = 0.000830
 h35bf                                  1      0.0000       0.00000       A     2.42269e-01     8.70764e-02    ;  uncertainty sigma = 0.000047, epsilon = 0.000830
 h36bf                                  1      0.0000       0.00000       A     2.53590e-01     6.71067e-02    ;  uncertainty sigma = 0.000043, epsilon = 0.000735
 h37bf                                  1      0.0000       0.00000       A     2.53700e-01     6.73606e-02    ;  uncertainty sigma = 0.000029, epsilon = 0.000744
 h38bf                                  1      0.0000       0.00000       A     1.10674e-01     4.15811e-02    ;  uncertainty sigma = 0.000084, epsilon = 0.000795
 h39bf                                  1      0.0000       0.00000       A     2.62560e-01     6.69889e-02    ;  uncertainty sigma = 0.000013, epsilon = 0.000439
 h40bf                                  1      0.0000       0.00000       A     2.62565e-01     6.69913e-02    ;  uncertainty sigma = 0.000012, epsilon = 0.000401
 h41bf                                  1      0.0000       0.00000       A     2.62560e-01     6.69861e-02    ;  uncertainty sigma = 0.000013, epsilon = 0.000605
 h42bf                                  1      0.0000       0.00000       A     2.60004e-01     8.68723e-02    ;  uncertainty sigma = 0.000016, epsilon = 0.000482
 h43bf                                  1      0.0000       0.00000       A     2.60004e-01     8.68723e-02    ;  uncertainty sigma = 0.000016, epsilon = 0.000482
 h44bf                                  1      0.0000       0.00000       A     2.60004e-01     8.68723e-02    ;  uncertainty sigma = 0.000016, epsilon = 0.000482
 h45bf                                  1      0.0000       0.00000       A     2.59995e-01     8.70719e-02    ;  uncertainty sigma = 0.000025, epsilon = 0.001286
 h46bf                                  1      0.0000       0.00000       A     2.59995e-01     8.70719e-02    ;  uncertainty sigma = 0.000025, epsilon = 0.001286
 h47bf                                  1      0.0000       0.00000       A     2.42164e-01     8.70780e-02    ;  uncertainty sigma = 0.000026, epsilon = 0.000567
 h48bf                                  1      0.0000       0.00000       A     2.42164e-01     8.70780e-02    ;  uncertainty sigma = 0.000026, epsilon = 0.000567
 h49bf                                  1      0.0000       0.00000       A     2.42164e-01     8.70780e-02    ;  uncertainty sigma = 0.000026, epsilon = 0.000567
 h50bf                                  1      0.0000       0.00000       A     1.10673e-01     4.15035e-02    ;  uncertainty sigma = 0.000108, epsilon = 0.001195
 h51bf                                  1      0.0000       0.00000       A     1.10673e-01     4.15035e-02    ;  uncertainty sigma = 0.000108, epsilon = 0.001195
 h52bf                                  1      0.0000       0.00000       A     1.10625e-01     4.07568e-02    ;  uncertainty sigma = 0.000197, epsilon = 0.002094

[ moleculetype ]
;name             nrexcl
 MOL                   3

[ atoms ]
;       nr            type      resi   res      atom      cgnr      charge          mass ; qtot
         1            c0bf         1   UNL        c0         1    -0.00807       12.0110 ; qtot   -0.008
         2            c1bf         1   UNL        c1         2    -0.09977       12.0110 ; qtot   -0.108
         3            c2bf         1   UNL        c2         3    -0.17963       12.0110 ; qtot   -0.287
         4            c3bf         1   UNL        c3         4     0.24076       12.0110 ; qtot   -0.047
         5            o4bf         1   UNL        o4         5    -0.42908       15.9990 ; qtot   -0.476
         6            c5bf         1   UNL        c5         6     0.55151       12.0110 ; qtot    0.076
         7            c6bf         1   UNL        c6         7     0.27188       12.0110 ; qtot    0.348
         8            n7bf         1   UNL        n7         8    -0.60304       14.0070 ; qtot   -0.255
         9            c8bf         1   UNL        c8         9     0.19946       12.0110 ; qtot   -0.056
        10            c9bf         1   UNL        c9        10     0.39065       12.0110 ; qtot    0.335
        11           n10bf         1   UNL       n10        11    -0.71698       14.0070 ; qtot   -0.382
        12           c11bf         1   UNL       c11        12     0.59147       12.0110 ; qtot    0.209
        13           o12bf         1   UNL       o12        13    -0.57869       15.9990 ; qtot   -0.370
        14           n13bf         1   UNL       n13        14    -0.46218       14.0070 ; qtot   -0.832
        15           c14bf         1   UNL       c14        15     0.07687       12.0110 ; qtot   -0.755
        16           c15bf         1   UNL       c15        16    -0.12646       12.0110 ; qtot   -0.881
        17           c16bf         1   UNL       c16        17    -0.11323       12.0110 ; qtot   -0.995
        18           c17bf         1   UNL       c17        18     0.11635       12.0110 ; qtot   -0.878
        19           f18bf         1   UNL       f18        19    -0.14859       18.9980 ; qtot   -1.027
        20           c19bf         1   UNL       c19        20    -0.14536       12.0110 ; qtot   -1.172
        21           c20bf         1   UNL       c20        21    -0.10984       12.0110 ; qtot   -1.282
        22           c21bf         1   UNL       c21        22     0.15193       12.0110 ; qtot   -1.130
        23           c22bf         1   UNL       c22        23    -0.11350       12.0110 ; qtot   -1.244
        24           c23bf         1   UNL       c23        24    -0.17413       12.0110 ; qtot   -1.418
        25           c24bf         1   UNL       c24        25     0.71609       12.0110 ; qtot   -0.702
        26           o25bf         1   UNL       o25        26    -0.46646       15.9990 ; qtot   -1.168
        27           n26bf         1   UNL       n26        27    -0.43756       14.0070 ; qtot   -1.606
        28           c27bf         1   UNL       c27        28     0.04963       12.0110 ; qtot   -1.556
        29           c28bf         1   UNL       c28        29     0.48213       12.0110 ; qtot   -1.074
        30           n29bf         1   UNL       n29        30    -0.50478       14.0070 ; qtot   -1.579
        31           n30bf         1   UNL       n30        31    -0.38668       14.0070 ; qtot   -1.965
        32           h31bf         1   UNL       h31        32     0.05376        1.0080 ; qtot   -1.912
        33           h32bf         1   UNL       h32        33     0.05376        1.0080 ; qtot   -1.858
        34           h33bf         1   UNL       h33        34     0.05376        1.0080 ; qtot   -1.804
        35           h34bf         1   UNL       h34        35     0.07139        1.0080 ; qtot   -1.733
        36           h35bf         1   UNL       h35        36     0.07139        1.0080 ; qtot   -1.661
        37           h36bf         1   UNL       h36        37     0.04926        1.0080 ; qtot   -1.612
        38           h37bf         1   UNL       h37        38     0.05731        1.0080 ; qtot   -1.555
        39           h38bf         1   UNL       h38        39     0.34810        1.0080 ; qtot   -1.207
        40           h39bf         1   UNL       h39        40     0.15954        1.0080 ; qtot   -1.047
        41           h40bf         1   UNL       h40        41     0.16630        1.0080 ; qtot   -0.881
        42           h41bf         1   UNL       h41        42     0.16387        1.0080 ; qtot   -0.717
        43           h42bf         1   UNL       h42        43     0.07196        1.0080 ; qtot   -0.645
        44           h43bf         1   UNL       h43        44     0.07196        1.0080 ; qtot   -0.573
        45           h44bf         1   UNL       h44        45     0.07196        1.0080 ; qtot   -0.501
        46           h45bf         1   UNL       h45        46     0.11749        1.0080 ; qtot   -0.383
        47           h46bf         1   UNL       h46        47     0.11749        1.0080 ; qtot   -0.266
        48           h47bf         1   UNL       h47        48     0.08943        1.0080 ; qtot   -0.177
        49           h48bf         1   UNL       h48        49     0.08943        1.0080 ; qtot   -0.087
        50           h49bf         1   UNL       h49        50     0.08943        1.0080 ; qtot    0.002
        51           h50bf         1   UNL       h50        51     0.33098        1.0080 ; qtot    0.333
        52           h51bf         1   UNL       h51        52     0.33098        1.0080 ; qtot    0.664
        53           h52bf         1   UNL       h52        53     0.33575        1.0080 ; qtot    1.000

[ bonds ]
;       ai        aj funct               r               k
         1         2     1        0.146795   293890.171436    ;  uncertainty r = 0.000120, k = 14.254939
         1        32     1        0.109611   309504.836963    ;  uncertainty r = 0.000033, k = 2.243391
         1        33     1        0.109611   309504.836963    ;  uncertainty r = 0.000033, k = 2.243391
         1        34     1        0.109611   309504.836963    ;  uncertainty r = 0.000033, k = 2.243391
         2         3     1        0.121309   976535.180859    ;  uncertainty r = 0.000057, k = 2.187477
         3         4     1        0.146533   286922.166846    ;  uncertainty r = 0.000084, k = 3.787556
         4         5     1        0.143358   222410.857422    ;  uncertainty r = 0.000239, k = 8.321132
         4        35     1        0.109553   309004.054248    ;  uncertainty r = 0.000034, k = 1.847908
         4        36     1        0.109553   309004.054248    ;  uncertainty r = 0.000034, k = 1.847908
         5         6     1        0.134906   295699.450098    ;  uncertainty r = 0.000114, k = 7.666781
         6         7     1        0.139567   396480.835059    ;  uncertainty r = 0.000214, k = 7.422977
         6        11     1        0.131794   396259.070801    ;  uncertainty r = 0.000093, k = 7.268141
         7         8     1        0.131738   433834.526758    ;  uncertainty r = 0.000165, k = 13.706108
         7        37     1        0.109143   343830.287158    ;  uncertainty r = 0.000068, k = 3.095769
         8         9     1        0.133426   449310.679004    ;  uncertainty r = 0.000140, k = 18.294929
         9        10     1        0.138810   353774.080029    ;  uncertainty r = 0.000078, k = 20.234880
         9        12     1        0.149503   244951.212549    ;  uncertainty r = 0.000133, k = 20.899770
        10        11     1        0.132809   433907.103223    ;  uncertainty r = 0.000157, k = 14.555661
        10        38     1        0.108820   336159.067188    ;  uncertainty r = 0.000035, k = 1.832058
        12        13     1        0.123456   666741.749023    ;  uncertainty r = 0.000061, k = 4.842823
        12        14     1        0.136461   274597.574805    ;  uncertainty r = 0.000095, k = 19.259713
        14        15     1        0.140350   325475.208887    ;  uncertainty r = 0.000092, k = 12.223287
        14        39     1        0.101962   419189.249902    ;  uncertainty r = 0.000053, k = 6.194989
        15        16     1        0.140101   351857.111377    ;  uncertainty r = 0.000062, k = 3.465555
        15        21     1        0.140076   350643.715625    ;  uncertainty r = 0.000126, k = 5.776683
        16        17     1        0.138919   379009.059863    ;  uncertainty r = 0.000028, k = 4.451341
        16        40     1        0.108594   335979.822217    ;  uncertainty r = 0.000019, k = 2.815216
        17        18     1        0.138815   358758.923779    ;  uncertainty r = 0.000063, k = 5.580489
        17        41     1        0.108729   335202.676904    ;  uncertainty r = 0.000007, k = 1.041243
        18        19     1        0.136423   335134.135303    ;  uncertainty r = 0.000047, k = 5.847091
        18        20     1        0.139301   340628.725293    ;  uncertainty r = 0.000147, k = 7.009157
        20        21     1        0.139252   346690.979687    ;  uncertainty r = 0.000130, k = 5.041307
        20        22     1        0.151440   214005.266797    ;  uncertainty r = 0.000236, k = 16.363230
        21        42     1        0.108639   335283.323096    ;  uncertainty r = 0.000042, k = 2.896003
        22        23     1        0.153374   201429.734351    ;  uncertainty r = 0.000097, k = 8.556031
        22        24     1        0.153159   203928.157446    ;  uncertainty r = 0.000115, k = 13.365503
        22        31     1        0.149031   230523.843848    ;  uncertainty r = 0.000216, k = 24.317644
        23        43     1        0.109424   311928.512939    ;  uncertainty r = 0.000009, k = 2.894249
        23        44     1        0.109424   311928.512939    ;  uncertainty r = 0.000009, k = 2.894249
        23        45     1        0.109424   311928.512939    ;  uncertainty r = 0.000009, k = 2.894249
        24        25     1        0.151045   203840.067187    ;  uncertainty r = 0.000198, k = 13.413440
        24        46     1        0.109430   314471.421680    ;  uncertainty r = 0.000052, k = 2.778283
        24        47     1        0.109430   314471.421680    ;  uncertainty r = 0.000052, k = 2.778283
        25        26     1        0.120581   655340.349023    ;  uncertainty r = 0.000199, k = 21.290051
        25        27     1        0.143746   253678.775049    ;  uncertainty r = 0.000164, k = 80.639901
        27        28     1        0.147324   251134.231934    ;  uncertainty r = 0.000154, k = 24.190212
        27        29     1        0.136207   289370.511670    ;  uncertainty r = 0.000285, k = 39.958229
        28        48     1        0.109123   307429.053027    ;  uncertainty r = 0.000028, k = 2.127598
        28        49     1        0.109123   307429.053027    ;  uncertainty r = 0.000028, k = 2.127598
        28        50     1        0.109123   307429.053027    ;  uncertainty r = 0.000028, k = 2.127598
        29        30     1        0.134544   307986.936719    ;  uncertainty r = 0.000201, k = 58.704459
        29        31     1        0.133564   557221.463086    ;  uncertainty r = 0.000241, k = 55.754630
        30        51     1        0.101295   419556.933203    ;  uncertainty r = 0.000047, k = 11.267079
        30        52     1        0.101295   419556.933203    ;  uncertainty r = 0.000047, k = 11.267079
        31        53     1        0.101560   439225.512695    ;  uncertainty r = 0.000134, k = 8.127176

[ angles ]
;       ai        aj        ak funct           theta             cth
         1         2         3     1      180.000000      185.752560    ;  uncertainty theta = 0.000000, k = 0.400240
         2         1        32     1      109.424240      400.886938    ;  uncertainty theta = 0.001969, k = 0.058416
         2         1        33     1      109.424240      400.886938    ;  uncertainty theta = 0.001969, k = 0.058416
         2         1        34     1      109.424240      400.886938    ;  uncertainty theta = 0.001969, k = 0.058416
         2         3         4     1      179.493637      167.360000    ;  uncertainty theta = 0.004717, k = 0.000000
         3         4         5     1      110.538551      617.122635    ;  uncertainty theta = 0.002333, k = 0.215525
         3         4        35     1      110.641441      400.894727    ;  uncertainty theta = 0.001161, k = 0.091089
         3         4        36     1      110.641441      400.894727    ;  uncertainty theta = 0.001161, k = 0.091089
         4         5         6     1      109.351723      505.427979    ;  uncertainty theta = 0.004139, k = 0.101178
         5         4        35     1      106.390564      414.228864    ;  uncertainty theta = 0.002921, k = 0.075612
         5         4        36     1      106.390564      414.228864    ;  uncertainty theta = 0.002921, k = 0.075612
         5         6         7     1      118.774338      398.036964    ;  uncertainty theta = 0.008808, k = 0.240824
         5         6        11     1      118.807129      587.863556    ;  uncertainty theta = 0.003225, k = 0.167173
         6         7         8     1      119.673584      566.085828    ;  uncertainty theta = 0.002557, k = 0.075395
         6         7        37     1      123.008705      264.068044    ;  uncertainty theta = 0.006538, k = 0.069498
         6        11        10     1      115.033592      404.261124    ;  uncertainty theta = 0.010147, k = 0.165904
         7         6        11     1      120.434250      453.056411    ;  uncertainty theta = 0.005781, k = 0.197143
         7         8         9     1      120.774231      476.888663    ;  uncertainty theta = 0.005204, k = 0.200614
         8         7        37     1      118.557945      337.041451    ;  uncertainty theta = 0.004957, k = 0.210467
         8         9        10     1      121.923195      525.611936    ;  uncertainty theta = 0.004585, k = 0.116652
         8         9        12     1      116.233376      394.322145    ;  uncertainty theta = 0.005991, k = 0.221247
         9        10        11     1      121.936569      606.517009    ;  uncertainty theta = 0.003428, k = 0.186871
         9        10        38     1      120.281090      242.713530    ;  uncertainty theta = 0.006191, k = 0.102496
         9        12        13     1      121.462387      520.963862    ;  uncertainty theta = 0.002051, k = 0.123901
         9        12        14     1      111.543236      457.928636    ;  uncertainty theta = 0.003081, k = 0.108404
        10         9        12     1      121.976074      368.322622    ;  uncertainty theta = 0.006440, k = 0.125015
        11        10        38     1      119.325356      321.627060    ;  uncertainty theta = 0.003766, k = 0.192304
        12        14        15     1      116.806480      453.673292    ;  uncertainty theta = 0.005971, k = 0.054111
        12        14        39     1      116.940636      347.054871    ;  uncertainty theta = 0.004255, k = 0.138736
        13        12        14     1      122.929581      763.733606    ;  uncertainty theta = 0.001933, k = 0.062511
        14        15        16     1      119.894089      513.003818    ;  uncertainty theta = 0.004038, k = 0.167541
        14        15        21     1      119.106911      511.049048    ;  uncertainty theta = 0.006217, k = 0.057038
        15        14        39     1      113.265015      316.634811    ;  uncertainty theta = 0.005758, k = 0.113069
        15        16        17     1      118.863724      498.637247    ;  uncertainty theta = 0.002640, k = 0.113246
        15        16        40     1      118.858414      266.117014    ;  uncertainty theta = 0.001105, k = 0.050326
        15        21        20     1      122.306190      498.529735    ;  uncertainty theta = 0.002973, k = 0.170384
        15        21        42     1      118.498497      277.252279    ;  uncertainty theta = 0.002818, k = 0.074008
        16        15        21     1      120.372116      380.353857    ;  uncertainty theta = 0.008541, k = 0.212367
        16        17        18     1      119.716713      459.315716    ;  uncertainty theta = 0.002703, k = 0.248433
        16        17        41     1      121.226318      273.827337    ;  uncertainty theta = 0.003027, k = 0.016592
        17        16        40     1      120.299927      315.004585    ;  uncertainty theta = 0.001541, k = 0.082725
        17        18        19     1      118.368248      531.214969    ;  uncertainty theta = 0.002418, k = 0.194815
        17        18        20     1      124.818649      370.348098    ;  uncertainty theta = 0.007322, k = 0.227765
        18        17        41     1      119.769325      274.086220    ;  uncertainty theta = 0.001156, k = 0.041158
        18        20        21     1      121.760132      422.327799    ;  uncertainty theta = 0.004456, k = 0.138448
        18        20        22     1      116.958557      381.231759    ;  uncertainty theta = 0.007269, k = 0.198930
        19        18        20     1      115.651962      479.259018    ;  uncertainty theta = 0.002998, k = 0.033205
        20        21        42     1      117.312637      276.346828    ;  uncertainty theta = 0.005095, k = 0.130875
        20        22        23     1      110.898338      572.819772    ;  uncertainty theta = 0.005752, k = 0.148113
        20        22        24     1      109.839493      570.393491    ;  uncertainty theta = 0.006137, k = 0.132525
        20        22        31     1      107.829872      642.630249    ;  uncertainty theta = 0.005954, k = 0.224167
        21        20        22     1      117.802956      375.456956    ;  uncertainty theta = 0.005787, k = 0.134581
        22        23        43     1      107.176834      394.723461    ;  uncertainty theta = 0.002402, k = 0.117049
        22        23        44     1      107.176834      394.723461    ;  uncertainty theta = 0.002402, k = 0.117049
        22        23        45     1      107.176834      394.723461    ;  uncertainty theta = 0.002402, k = 0.117049
        22        24        25     1      111.158714      546.746064    ;  uncertainty theta = 0.007730, k = 0.197732
        22        24        46     1      107.364235      377.266293    ;  uncertainty theta = 0.004341, k = 0.139640
        22        24        47     1      107.364235      377.266293    ;  uncertainty theta = 0.004341, k = 0.139640
        22        31        29     1      120.614380      418.497711    ;  uncertainty theta = 0.007151, k = 0.291428
        22        31        53     1      114.810410      313.074427    ;  uncertainty theta = 0.008656, k = 0.327146
        23        22        24     1      109.611717      570.605769    ;  uncertainty theta = 0.002294, k = 0.110172
        23        22        31     1      108.368942      690.586003    ;  uncertainty theta = 0.004528, k = 0.153753
        24        22        31     1      106.007401      694.398949    ;  uncertainty theta = 0.008322, k = 0.225726
        24        25        26     1      126.717201      500.341753    ;  uncertainty theta = 0.007714, k = 0.227670
        24        25        27     1      113.646461      401.102503    ;  uncertainty theta = 0.002688, k = 0.212313
        25        24        46     1      105.847939      380.285928    ;  uncertainty theta = 0.004326, k = 0.106629
        25        24        47     1      105.847939      380.285928    ;  uncertainty theta = 0.004326, k = 0.106629
        25        27        28     1      115.926285      431.056798    ;  uncertainty theta = 0.006662, k = 0.129526
        25        27        29     1      122.278809      503.814129    ;  uncertainty theta = 0.010251, k = 0.447990
        26        25        27     1      121.239647      682.067398    ;  uncertainty theta = 0.006510, k = 0.206541
        27        28        48     1      107.559181      473.057746    ;  uncertainty theta = 0.001681, k = 0.126528
        27        28        49     1      107.559181      473.057746    ;  uncertainty theta = 0.001681, k = 0.126528
        27        28        50     1      107.559181      473.057746    ;  uncertainty theta = 0.001681, k = 0.126528
        27        29        30     1      120.606606      593.468568    ;  uncertainty theta = 0.003176, k = 0.306591
        27        29        31     1      121.642921      613.806067    ;  uncertainty theta = 0.006967, k = 0.493883
        28        27        29     1      115.143982      405.306007    ;  uncertainty theta = 0.007152, k = 0.306076
        29        30        51     1      115.149925      373.809047    ;  uncertainty theta = 0.003984, k = 0.186891
        29        30        52     1      115.149925      373.809047    ;  uncertainty theta = 0.003984, k = 0.186891
        29        31        53     1      116.509384      399.040285    ;  uncertainty theta = 0.012250, k = 0.308852
        30        29        31     1      124.262207      720.976057    ;  uncertainty theta = 0.011250, k = 0.233585
        32         1        33     1      106.627892      310.780620    ;  uncertainty theta = 0.002403, k = 0.053147
        32         1        34     1      106.627892      310.780620    ;  uncertainty theta = 0.002403, k = 0.053147
        33         1        34     1      106.627892      310.780620    ;  uncertainty theta = 0.002403, k = 0.053147
        35         4        36     1      107.562576      316.940139    ;  uncertainty theta = 0.001848, k = 0.084923
        43        23        44     1      106.052170      314.205465    ;  uncertainty theta = 0.001375, k = 0.026814
        43        23        45     1      106.052170      314.205465    ;  uncertainty theta = 0.001375, k = 0.026814
        44        23        45     1      106.052170      314.205465    ;  uncertainty theta = 0.001375, k = 0.026814
        46        24        47     1      107.444252      302.402277    ;  uncertainty theta = 0.001395, k = 0.127039
        48        28        49     1      107.420509      324.177100    ;  uncertainty theta = 0.003506, k = 0.110513
        48        28        50     1      107.420509      324.177100    ;  uncertainty theta = 0.003506, k = 0.110513
        49        28        50     1      107.420509      324.177100    ;  uncertainty theta = 0.003506, k = 0.110513
        51        30        52     1      112.138939      273.835413    ;  uncertainty theta = 0.016285, k = 0.318904

[ dihedrals ] ; propers for gromacs 4.5 or higher, use funct 9
;       ai        aj        ak        al funct           phase               k        pn
         1         2         3         4     9        0.000000        0.000000         1    ;  uncertainty k = 0.000000
         1         2         3         4     9      180.000000        0.000000         2    ;  uncertainty k = 0.000000
         1         2         3         4     9        0.000000        0.000000         3    ;  uncertainty k = 0.000000
         1         2         3         4     9      180.000000        0.000000         4    ;  uncertainty k = 0.000000
         2         3         4         5     9        0.000000        0.000000         1    ;  uncertainty k = 0.000000
         2         3         4         5     9      180.000000        0.000000         2    ;  uncertainty k = 0.000000
         2         3         4         5     9        0.000000        0.000000         3    ;  uncertainty k = 0.000000
         2         3         4         5     9      180.000000        0.000000         4    ;  uncertainty k = 0.000000
         2         3         4        35     9        0.000000        0.000000         1    ;  uncertainty k = 0.000000
         2         3         4        35     9      180.000000        0.000000         2    ;  uncertainty k = 0.000000
         2         3         4        35     9        0.000000        0.000000         3    ;  uncertainty k = 0.000000
         2         3         4        35     9      180.000000        0.000000         4    ;  uncertainty k = 0.000000
         2         3         4        36     9        0.000000        0.000000         1    ;  uncertainty k = 0.000000
         2         3         4        36     9      180.000000        0.000000         2    ;  uncertainty k = 0.000000
         2         3         4        36     9        0.000000        0.000000         3    ;  uncertainty k = 0.000000
         2         3         4        36     9      180.000000        0.000000         4    ;  uncertainty k = 0.000000
         3         2         1        32     9        0.000000        0.000000         1    ;  uncertainty k = 0.000000
         3         2         1        32     9      180.000000        0.000000         2    ;  uncertainty k = 0.000000
         3         2         1        32     9        0.000000        0.000000         3    ;  uncertainty k = 0.000000
         3         2         1        32     9      180.000000        0.000000         4    ;  uncertainty k = 0.000000
         3         2         1        33     9        0.000000        0.000000         1    ;  uncertainty k = 0.000000
         3         2         1        33     9      180.000000        0.000000         2    ;  uncertainty k = 0.000000
         3         2         1        33     9        0.000000        0.000000         3    ;  uncertainty k = 0.000000
         3         2         1        33     9      180.000000        0.000000         4    ;  uncertainty k = 0.000000
         3         2         1        34     9        0.000000        0.000000         1    ;  uncertainty k = 0.000000
         3         2         1        34     9      180.000000        0.000000         2    ;  uncertainty k = 0.000000
         3         2         1        34     9        0.000000        0.000000         3    ;  uncertainty k = 0.000000
         3         2         1        34     9      180.000000        0.000000         4    ;  uncertainty k = 0.000000
         3         4         5         6     9        0.000000       -6.499356         1    ;  uncertainty k = 1.350372
         3         4         5         6     9      180.000000        1.929602         2    ;  uncertainty k = 0.400769
         3         4         5         6     9        0.000000        0.474189         3    ;  uncertainty k = 0.169158
         3         4         5         6     9      180.000000        0.741183         4    ;  uncertainty k = 0.181829
         4         5         6         7     9        0.000000        0.767557         1    ;  uncertainty k = 0.854144
         4         5         6         7     9      180.000000        8.034021         2    ;  uncertainty k = 0.288612
         4         5         6         7     9        0.000000        0.731069         3    ;  uncertainty k = 0.158985
         4         5         6         7     9      180.000000        0.075888         4    ;  uncertainty k = 0.162945
         4         5         6        11     9        0.000000        0.141069         1    ;  uncertainty k = 1.167160
         4         5         6        11     9      180.000000       10.682869         2    ;  uncertainty k = 0.199861
         4         5         6        11     9        0.000000        0.435561         3    ;  uncertainty k = 0.257307
         4         5         6        11     9      180.000000        0.222878         4    ;  uncertainty k = 0.208282
         5         6         7         8     9        0.000000        0.050400         1    ;  uncertainty k = 0.745359
         5         6         7         8     9      180.000000        6.341318         2    ;  uncertainty k = 0.961648
         5         6         7         8     9        0.000000        0.422164         3    ;  uncertainty k = 0.346198
         5         6         7         8     9      180.000000        1.103970         4    ;  uncertainty k = 0.477243
         5         6         7        37     9        0.000000       -0.344080         1    ;  uncertainty k = 0.951681
         5         6         7        37     9      180.000000        5.091523         2    ;  uncertainty k = 0.339957
         5         6         7        37     9        0.000000        0.520968         3    ;  uncertainty k = 0.221859
         5         6         7        37     9      180.000000        0.656318         4    ;  uncertainty k = 0.254853
         5         6        11        10     9        0.000000        0.982154         1    ;  uncertainty k = 1.322892
         5         6        11        10     9      180.000000       14.383968         2    ;  uncertainty k = 0.155538
         5         6        11        10     9        0.000000        2.526016         3    ;  uncertainty k = 0.310462
         5         6        11        10     9      180.000000        1.596569         4    ;  uncertainty k = 0.224828
         6         5         4        35     9        0.000000        2.079777         1    ;  uncertainty k = 0.837319
         6         5         4        35     9      180.000000        0.420509         2    ;  uncertainty k = 0.263248
         6         5         4        35     9        0.000000        0.052962         3    ;  uncertainty k = 0.078529
         6         5         4        35     9      180.000000        0.311608         4    ;  uncertainty k = 0.079138
         6         5         4        36     9        0.000000        2.079777         1    ;  uncertainty k = 0.837319
         6         5         4        36     9      180.000000        0.420509         2    ;  uncertainty k = 0.263248
         6         5         4        36     9        0.000000        0.052962         3    ;  uncertainty k = 0.078529
         6         5         4        36     9      180.000000        0.311608         4    ;  uncertainty k = 0.079138
         6         7         8         9     9        0.000000        0.257785         1    ;  uncertainty k = 1.099959
         6         7         8         9     9      180.000000       15.276077         2    ;  uncertainty k = 0.451333
         6         7         8         9     9        0.000000        1.095819         3    ;  uncertainty k = 0.555513
         6         7         8         9     9      180.000000        1.603569         4    ;  uncertainty k = 0.318170
         6        11        10         9     9        0.000000       -0.128139         1    ;  uncertainty k = 1.149101
         6        11        10         9     9      180.000000       13.409964         2    ;  uncertainty k = 0.646932
         6        11        10         9     9        0.000000        1.005566         3    ;  uncertainty k = 0.632918
         6        11        10         9     9      180.000000        1.294298         4    ;  uncertainty k = 0.306844
         6        11        10        38     9        0.000000        0.521545         1    ;  uncertainty k = 0.431902
         6        11        10        38     9      180.000000       15.619537         2    ;  uncertainty k = 0.560552
         6        11        10        38     9        0.000000        2.083942         3    ;  uncertainty k = 0.852012
         6        11        10        38     9      180.000000        1.509091         4    ;  uncertainty k = 0.417740
         7         6        11        10     9        0.000000        0.015893         1    ;  uncertainty k = 0.648575
         7         6        11        10     9      180.000000        9.557445         2    ;  uncertainty k = 0.764187
         7         6        11        10     9        0.000000        1.590568         3    ;  uncertainty k = 0.356876
         7         6        11        10     9      180.000000        1.108197         4    ;  uncertainty k = 0.132077
         7         8         9        10     9        0.000000       -0.461240         1    ;  uncertainty k = 0.695678
         7         8         9        10     9      180.000000       11.275023         2    ;  uncertainty k = 0.361533
         7         8         9        10     9        0.000000        1.580583         3    ;  uncertainty k = 0.276124
         7         8         9        10     9      180.000000        1.138585         4    ;  uncertainty k = 0.256678
         7         8         9        12     9        0.000000        0.314360         1    ;  uncertainty k = 1.730825
         7         8         9        12     9      180.000000       13.546233         2    ;  uncertainty k = 0.704290
         7         8         9        12     9        0.000000        2.441120         3    ;  uncertainty k = 0.311818
         7         8         9        12     9      180.000000        1.438713         4    ;  uncertainty k = 0.440260
         8         7         6        11     9        0.000000       -0.820137         1    ;  uncertainty k = 0.235191
         8         7         6        11     9      180.000000        7.561961         2    ;  uncertainty k = 0.908938
         8         7         6        11     9        0.000000       -0.746491         3    ;  uncertainty k = 0.338977
         8         7         6        11     9      180.000000        1.001614         4    ;  uncertainty k = 0.635452
         8         9        10        11     9        0.000000       -0.404234         1    ;  uncertainty k = 0.231683
         8         9        10        11     9      180.000000       12.091496         2    ;  uncertainty k = 0.927262
         8         9        10        11     9        0.000000       -0.298526         3    ;  uncertainty k = 0.248932
         8         9        10        11     9      180.000000        1.239550         4    ;  uncertainty k = 0.497270
         8         9        10        38     9        0.000000       -0.211361         1    ;  uncertainty k = 0.461512
         8         9        10        38     9      180.000000        5.738048         2    ;  uncertainty k = 1.172620
         8         9        10        38     9        0.000000        0.881556         3    ;  uncertainty k = 0.236380
         8         9        10        38     9      180.000000        1.387547         4    ;  uncertainty k = 0.267866
         8         9        12        13     9        0.000000       -3.674156         1    ;  uncertainty k = 1.802642
         8         9        12        13     9      180.000000        4.850866         2    ;  uncertainty k = 0.864770
         8         9        12        13     9        0.000000        0.765586         3    ;  uncertainty k = 0.374761
         8         9        12        13     9      180.000000        0.008963         4    ;  uncertainty k = 0.103061
         8         9        12        14     9        0.000000        2.678358         1    ;  uncertainty k = 1.465066
         8         9        12        14     9      180.000000        4.207264         2    ;  uncertainty k = 0.314855
         8         9        12        14     9        0.000000        0.358689         3    ;  uncertainty k = 0.432617
         8         9        12        14     9      180.000000        0.120908         4    ;  uncertainty k = 0.101874
         9         8         7        37     9        0.000000        0.258705         1    ;  uncertainty k = 0.279782
         9         8         7        37     9      180.000000       16.639773         2    ;  uncertainty k = 0.353796
         9         8         7        37     9        0.000000        2.406439         3    ;  uncertainty k = 0.611487
         9         8         7        37     9      180.000000        1.563585         4    ;  uncertainty k = 0.230585
         9        12        14        15     9        0.000000        3.833801         1    ;  uncertainty k = 1.273750
         9        12        14        15     9      180.000000       12.070935         2    ;  uncertainty k = 0.212339
         9        12        14        15     9        0.000000        2.104018         3    ;  uncertainty k = 0.220826
         9        12        14        15     9      180.000000       -1.547502         4    ;  uncertainty k = 0.363797
         9        12        14        39     9        0.000000        0.759885         1    ;  uncertainty k = 1.330622
         9        12        14        39     9      180.000000        5.554004         2    ;  uncertainty k = 0.539017
         9        12        14        39     9        0.000000        2.122398         3    ;  uncertainty k = 0.383492
         9        12        14        39     9      180.000000        0.250906         4    ;  uncertainty k = 0.168194
        10         9        12        13     9        0.000000       -0.336719         1    ;  uncertainty k = 1.020029
        10         9        12        13     9      180.000000        3.844186         2    ;  uncertainty k = 0.830722
        10         9        12        13     9        0.000000        0.275673         3    ;  uncertainty k = 0.354119
        10         9        12        13     9      180.000000       -0.048057         4    ;  uncertainty k = 0.070291
        10         9        12        14     9        0.000000       -2.570712         1    ;  uncertainty k = 1.302411
        10         9        12        14     9      180.000000        3.064577         2    ;  uncertainty k = 0.444206
        10         9        12        14     9        0.000000       -0.057380         3    ;  uncertainty k = 0.620040
        10         9        12        14     9      180.000000       -0.029639         4    ;  uncertainty k = 0.366727
        11         6         7        37     9        0.000000       -0.291670         1    ;  uncertainty k = 0.940377
        11         6         7        37     9      180.000000        4.392603         2    ;  uncertainty k = 0.863369
        11         6         7        37     9        0.000000        0.655481         3    ;  uncertainty k = 0.229701
        11         6         7        37     9      180.000000        0.988123         4    ;  uncertainty k = 0.204745
        11        10         9        12     9        0.000000        0.458217         1    ;  uncertainty k = 0.610833
        11        10         9        12     9      180.000000        8.068357         2    ;  uncertainty k = 0.680207
        11        10         9        12     9        0.000000        0.930492         3    ;  uncertainty k = 0.285414
        11        10         9        12     9      180.000000        1.581250         4    ;  uncertainty k = 0.125066
        12         9        10        38     9        0.000000       -0.046601         1    ;  uncertainty k = 1.801172
        12         9        10        38     9      180.000000        6.073022         2    ;  uncertainty k = 0.532848
        12         9        10        38     9        0.000000        0.588814         3    ;  uncertainty k = 0.187458
        12         9        10        38     9      180.000000        0.695730         4    ;  uncertainty k = 0.393673
        12        14        15        16     9        0.000000        1.248276         1    ;  uncertainty k = 0.279174
        12        14        15        16     9      180.000000        4.673964         2    ;  uncertainty k = 0.109197
        12        14        15        16     9        0.000000        1.108720         3    ;  uncertainty k = 0.158487
        12        14        15        16     9      180.000000        0.094736         4    ;  uncertainty k = 0.055496
        12        14        15        21     9        0.000000        1.181736         1    ;  uncertainty k = 0.598529
        12        14        15        21     9      180.000000        4.910771         2    ;  uncertainty k = 0.153607
        12        14        15        21     9        0.000000        0.957488         3    ;  uncertainty k = 0.127507
        12        14        15        21     9      180.000000        0.082190         4    ;  uncertainty k = 0.092749
        13        12        14        15     9        0.000000        3.177635         1    ;  uncertainty k = 0.727186
        13        12        14        15     9      180.000000       14.149636         2    ;  uncertainty k = 0.173790
        13        12        14        15     9        0.000000        0.794919         3    ;  uncertainty k = 0.150671
        13        12        14        15     9      180.000000       -0.671251         4    ;  uncertainty k = 0.299412
        13        12        14        39     9        0.000000        1.051784         1    ;  uncertainty k = 1.224482
        13        12        14        39     9      180.000000       12.949142         2    ;  uncertainty k = 0.548437
        13        12        14        39     9        0.000000        2.400341         3    ;  uncertainty k = 0.460494
        13        12        14        39     9      180.000000        0.061721         4    ;  uncertainty k = 0.237015
        14        15        16        17     9        0.000000        0.106622         1    ;  uncertainty k = 0.162781
        14        15        16        17     9      180.000000       10.364186         2    ;  uncertainty k = 0.527934
        14        15        16        17     9        0.000000        1.065551         3    ;  uncertainty k = 0.488659
        14        15        16        17     9      180.000000        1.661694         4    ;  uncertainty k = 0.188102
        14        15        16        40     9        0.000000       -0.227737         1    ;  uncertainty k = 0.211618
        14        15        16        40     9      180.000000        8.485183         2    ;  uncertainty k = 0.490544
        14        15        16        40     9        0.000000        0.838680         3    ;  uncertainty k = 0.236671
        14        15        16        40     9      180.000000        1.186888         4    ;  uncertainty k = 0.206573
        14        15        21        20     9        0.000000        0.235265         1    ;  uncertainty k = 0.183657
        14        15        21        20     9      180.000000        9.102197         2    ;  uncertainty k = 0.572108
        14        15        21        20     9        0.000000        1.230568         3    ;  uncertainty k = 0.438652
        14        15        21        20     9      180.000000        1.655887         4    ;  uncertainty k = 0.319779
        14        15        21        42     9        0.000000       -0.001376         1    ;  uncertainty k = 0.275539
        14        15        21        42     9      180.000000        8.467357         2    ;  uncertainty k = 0.538590
        14        15        21        42     9        0.000000        0.828271         3    ;  uncertainty k = 0.159723
        14        15        21        42     9      180.000000        1.297697         4    ;  uncertainty k = 0.248141
        15        16        17        18     9        0.000000       -0.140347         1    ;  uncertainty k = 0.299399
        15        16        17        18     9      180.000000       14.187285         2    ;  uncertainty k = 0.334432
        15        16        17        18     9        0.000000       -0.749632         3    ;  uncertainty k = 0.516125
        15        16        17        18     9      180.000000        0.824434         4    ;  uncertainty k = 0.277210
        15        16        17        41     9        0.000000        0.080532         1    ;  uncertainty k = 0.379377
        15        16        17        41     9      180.000000        8.010292         2    ;  uncertainty k = 0.359513
        15        16        17        41     9        0.000000        1.309769         3    ;  uncertainty k = 0.318082
        15        16        17        41     9      180.000000        1.772140         4    ;  uncertainty k = 0.113952
        15        21        20        18     9        0.000000       -0.237333         1    ;  uncertainty k = 0.248404
        15        21        20        18     9      180.000000       11.350028         2    ;  uncertainty k = 0.337082
        15        21        20        18     9        0.000000        0.070934         3    ;  uncertainty k = 0.438089
        15        21        20        18     9      180.000000        1.060439         4    ;  uncertainty k = 0.371990
        15        21        20        22     9        0.000000        0.240765         1    ;  uncertainty k = 0.369454
        15        21        20        22     9      180.000000        7.926973         2    ;  uncertainty k = 0.395719
        15        21        20        22     9        0.000000        1.559670         3    ;  uncertainty k = 0.268165
        15        21        20        22     9      180.000000        1.996834         4    ;  uncertainty k = 0.235396
        16        15        14        39     9        0.000000        0.559996         1    ;  uncertainty k = 1.264898
        16        15        14        39     9      180.000000        3.575617         2    ;  uncertainty k = 0.081959
        16        15        14        39     9        0.000000        0.721606         3    ;  uncertainty k = 0.139042
        16        15        14        39     9      180.000000        0.635784         4    ;  uncertainty k = 0.154622
        16        15        21        20     9        0.000000       -0.049841         1    ;  uncertainty k = 0.223703
        16        15        21        20     9      180.000000        7.874626         2    ;  uncertainty k = 0.474312
        16        15        21        20     9        0.000000        0.233189         3    ;  uncertainty k = 0.313948
        16        15        21        20     9      180.000000        1.335086         4    ;  uncertainty k = 0.300915
        16        15        21        42     9        0.000000        0.129786         1    ;  uncertainty k = 0.231518
        16        15        21        42     9      180.000000        6.807331         2    ;  uncertainty k = 0.544252
        16        15        21        42     9        0.000000        1.331042         3    ;  uncertainty k = 0.247809
        16        15        21        42     9      180.000000        1.555309         4    ;  uncertainty k = 0.149295
        16        17        18        19     9        0.000000       -0.105232         1    ;  uncertainty k = 0.297377
        16        17        18        19     9      180.000000       12.713460         2    ;  uncertainty k = 0.526662
        16        17        18        19     9        0.000000        1.372097         3    ;  uncertainty k = 0.337537
        16        17        18        19     9      180.000000        1.583061         4    ;  uncertainty k = 0.269396
        16        17        18        20     9        0.000000        0.032011         1    ;  uncertainty k = 0.190797
        16        17        18        20     9      180.000000        7.849069         2    ;  uncertainty k = 0.449975
        16        17        18        20     9        0.000000        0.186456         3    ;  uncertainty k = 0.320890
        16        17        18        20     9      180.000000        1.349437         4    ;  uncertainty k = 0.203613
        17        16        15        21     9        0.000000       -0.181166         1    ;  uncertainty k = 0.163943
        17        16        15        21     9      180.000000        9.696729         2    ;  uncertainty k = 0.429051
        17        16        15        21     9        0.000000       -0.038939         3    ;  uncertainty k = 0.130655
        17        16        15        21     9      180.000000        1.228488         4    ;  uncertainty k = 0.250922
        17        18        20        21     9        0.000000       -0.475229         1    ;  uncertainty k = 0.324453
        17        18        20        21     9      180.000000        6.635719         2    ;  uncertainty k = 0.564400
        17        18        20        21     9        0.000000        0.240631         3    ;  uncertainty k = 0.276073
        17        18        20        21     9      180.000000        1.194255         4    ;  uncertainty k = 0.350922
        17        18        20        22     9        0.000000        0.600136         1    ;  uncertainty k = 0.641505
        17        18        20        22     9      180.000000        6.478020         2    ;  uncertainty k = 0.291955
        17        18        20        22     9        0.000000        1.179498         3    ;  uncertainty k = 0.186176
        17        18        20        22     9      180.000000        1.656044         4    ;  uncertainty k = 0.151451
        18        17        16        40     9        0.000000        0.025895         1    ;  uncertainty k = 0.320376
        18        17        16        40     9      180.000000        8.051535         2    ;  uncertainty k = 0.249673
        18        17        16        40     9        0.000000        1.354303         3    ;  uncertainty k = 0.326664
        18        17        16        40     9      180.000000        1.789734         4    ;  uncertainty k = 0.131148
        18        20        21        42     9        0.000000        0.117490         1    ;  uncertainty k = 0.173801
        18        20        21        42     9      180.000000        8.505466         2    ;  uncertainty k = 0.311875
        18        20        21        42     9        0.000000        1.496653         3    ;  uncertainty k = 0.322799
        18        20        21        42     9      180.000000        1.708394         4    ;  uncertainty k = 0.091050
        18        20        22        23     9        0.000000       -0.157360         1    ;  uncertainty k = 0.766395
        18        20        22        23     9      180.000000        2.874901         2    ;  uncertainty k = 0.241123
        18        20        22        23     9        0.000000        0.491546         3    ;  uncertainty k = 0.267477
        18        20        22        23     9      180.000000        0.163617         4    ;  uncertainty k = 0.097175
        18        20        22        24     9        0.000000       -1.196354         1    ;  uncertainty k = 0.579185
        18        20        22        24     9      180.000000        3.008170         2    ;  uncertainty k = 0.750652
        18        20        22        24     9        0.000000        0.453051         3    ;  uncertainty k = 0.196536
        18        20        22        24     9      180.000000        0.215695         4    ;  uncertainty k = 0.077129
        18        20        22        31     9        0.000000        0.194446         1    ;  uncertainty k = 0.940816
        18        20        22        31     9      180.000000        1.737966         2    ;  uncertainty k = 0.607922
        18        20        22        31     9        0.000000        0.666225         3    ;  uncertainty k = 0.424452
        18        20        22        31     9      180.000000        0.254871         4    ;  uncertainty k = 0.127038
        19        18        17        41     9        0.000000       -0.348881         1    ;  uncertainty k = 0.370578
        19        18        17        41     9      180.000000        9.399254         2    ;  uncertainty k = 0.292522
        19        18        17        41     9        0.000000        0.809684         3    ;  uncertainty k = 0.173261
        19        18        17        41     9      180.000000        1.066368         4    ;  uncertainty k = 0.100376
        19        18        20        21     9        0.000000        0.044544         1    ;  uncertainty k = 0.349730
        19        18        20        21     9      180.000000       11.207861         2    ;  uncertainty k = 0.465944
        19        18        20        21     9        0.000000        1.425603         3    ;  uncertainty k = 0.228282
        19        18        20        21     9      180.000000        1.427345         4    ;  uncertainty k = 0.258872
        19        18        20        22     9        0.000000        0.036660         1    ;  uncertainty k = 0.312226
        19        18        20        22     9      180.000000       10.105787         2    ;  uncertainty k = 0.343406
        19        18        20        22     9        0.000000        1.043740         3    ;  uncertainty k = 0.322974
        19        18        20        22     9      180.000000        1.317931         4    ;  uncertainty k = 0.145887
        20        18        17        41     9        0.000000        0.020024         1    ;  uncertainty k = 0.423103
        20        18        17        41     9      180.000000        5.455127         2    ;  uncertainty k = 0.725850
        20        18        17        41     9        0.000000        1.216278         3    ;  uncertainty k = 0.258669
        20        18        17        41     9      180.000000        1.446026         4    ;  uncertainty k = 0.151187
        20        22        23        43     9        0.000000        0.596239         1    ;  uncertainty k = 0.578789
        20        22        23        43     9      180.000000       -0.490772         2    ;  uncertainty k = 0.469331
        20        22        23        43     9        0.000000        0.828955         3    ;  uncertainty k = 0.074674
        20        22        23        43     9      180.000000       -0.063380         4    ;  uncertainty k = 0.126715
        20        22        23        44     9        0.000000        0.596239         1    ;  uncertainty k = 0.578789
        20        22        23        44     9      180.000000       -0.490772         2    ;  uncertainty k = 0.469331
        20        22        23        44     9        0.000000        0.828955         3    ;  uncertainty k = 0.074674
        20        22        23        44     9      180.000000       -0.063380         4    ;  uncertainty k = 0.126715
        20        22        23        45     9        0.000000        0.596239         1    ;  uncertainty k = 0.578789
        20        22        23        45     9      180.000000       -0.490772         2    ;  uncertainty k = 0.469331
        20        22        23        45     9        0.000000        0.828955         3    ;  uncertainty k = 0.074674
        20        22        23        45     9      180.000000       -0.063380         4    ;  uncertainty k = 0.126715
        20        22        24        25     9        0.000000       -1.567302         1    ;  uncertainty k = 0.769068
        20        22        24        25     9      180.000000       -0.011393         2    ;  uncertainty k = 0.389562
        20        22        24        25     9        0.000000        0.495788         3    ;  uncertainty k = 0.218666
        20        22        24        25     9      180.000000       -0.048990         4    ;  uncertainty k = 0.128791
        20        22        24        46     9        0.000000        0.501753         1    ;  uncertainty k = 0.345261
        20        22        24        46     9      180.000000       -0.380746         2    ;  uncertainty k = 0.437102
        20        22        24        46     9        0.000000        0.337648         3    ;  uncertainty k = 0.052205
        20        22        24        46     9      180.000000       -0.156279         4    ;  uncertainty k = 0.093222
        20        22        24        47     9        0.000000        0.501753         1    ;  uncertainty k = 0.345261
        20        22        24        47     9      180.000000       -0.380746         2    ;  uncertainty k = 0.437102
        20        22        24        47     9        0.000000        0.337648         3    ;  uncertainty k = 0.052205
        20        22        24        47     9      180.000000       -0.156279         4    ;  uncertainty k = 0.093222
        20        22        31        29     9        0.000000        0.044460         1    ;  uncertainty k = 0.809428
        20        22        31        29     9      180.000000       -0.364433         2    ;  uncertainty k = 0.606475
        20        22        31        29     9        0.000000        0.268223         3    ;  uncertainty k = 0.274635
        20        22        31        29     9      180.000000        0.315667         4    ;  uncertainty k = 0.202180
        20        22        31        53     9        0.000000        3.263214         1    ;  uncertainty k = 2.082234
        20        22        31        53     9      180.000000       -1.349963         2    ;  uncertainty k = 0.494458
        20        22        31        53     9        0.000000       -0.032904         3    ;  uncertainty k = 0.170988
        20        22        31        53     9      180.000000        0.027806         4    ;  uncertainty k = 0.103782
        21        15        14        39     9        0.000000        1.018614         1    ;  uncertainty k = 1.392618
        21        15        14        39     9      180.000000        3.692280         2    ;  uncertainty k = 0.102337
        21        15        14        39     9        0.000000        0.675019         3    ;  uncertainty k = 0.106311
        21        15        14        39     9      180.000000        0.571661         4    ;  uncertainty k = 0.102294
        21        15        16        40     9        0.000000        0.184450         1    ;  uncertainty k = 0.349318
        21        15        16        40     9      180.000000        6.983558         2    ;  uncertainty k = 0.426385
        21        15        16        40     9        0.000000        1.207675         3    ;  uncertainty k = 0.359683
        21        15        16        40     9      180.000000        1.521226         4    ;  uncertainty k = 0.130479
        21        20        22        23     9        0.000000       -0.256820         1    ;  uncertainty k = 0.663725
        21        20        22        23     9      180.000000        2.904401         2    ;  uncertainty k = 0.260431
        21        20        22        23     9        0.000000       -0.046780         3    ;  uncertainty k = 0.264104
        21        20        22        23     9      180.000000        0.165686         4    ;  uncertainty k = 0.159179
        21        20        22        24     9        0.000000       -0.877005         1    ;  uncertainty k = 0.710040
        21        20        22        24     9      180.000000        2.687287         2    ;  uncertainty k = 0.441172
        21        20        22        24     9        0.000000       -0.118467         3    ;  uncertainty k = 0.211495
        21        20        22        24     9      180.000000        0.191203         4    ;  uncertainty k = 0.048452
        21        20        22        31     9        0.000000       -0.428644         1    ;  uncertainty k = 1.464384
        21        20        22        31     9      180.000000        2.517325         2    ;  uncertainty k = 0.186817
        21        20        22        31     9        0.000000        0.078448         3    ;  uncertainty k = 0.187188
        21        20        22        31     9      180.000000        0.337729         4    ;  uncertainty k = 0.119169
        22        20        21        42     9        0.000000       -0.030014         1    ;  uncertainty k = 0.440087
        22        20        21        42     9      180.000000        7.545357         2    ;  uncertainty k = 0.249175
        22        20        21        42     9        0.000000        0.671120         3    ;  uncertainty k = 0.376702
        22        20        21        42     9      180.000000        1.141634         4    ;  uncertainty k = 0.105209
        22        24        25        26     9        0.000000        1.156343         1    ;  uncertainty k = 2.645254
        22        24        25        26     9      180.000000        3.658801         2    ;  uncertainty k = 1.929695
        22        24        25        26     9        0.000000        1.422030         3    ;  uncertainty k = 0.548757
        22        24        25        26     9      180.000000        1.026155         4    ;  uncertainty k = 0.385755
        22        24        25        27     9        0.000000       -2.858017         1    ;  uncertainty k = 2.356048
        22        24        25        27     9      180.000000        1.794352         2    ;  uncertainty k = 0.838094
        22        24        25        27     9        0.000000       -0.107582         3    ;  uncertainty k = 0.335617
        22        24        25        27     9      180.000000        0.372941         4    ;  uncertainty k = 0.156153
        22        31        29        27     9        0.000000        8.793330         1    ;  uncertainty k = 0.999323
        22        31        29        27     9      180.000000        5.364072         2    ;  uncertainty k = 1.054425
        22        31        29        27     9        0.000000        0.391839         3    ;  uncertainty k = 0.649189
        22        31        29        27     9      180.000000        0.259147         4    ;  uncertainty k = 0.358687
        22        31        29        30     9        0.000000        5.253046         1    ;  uncertainty k = 1.645342
        22        31        29        30     9      180.000000        8.648883         2    ;  uncertainty k = 0.533459
        22        31        29        30     9        0.000000        0.467744         3    ;  uncertainty k = 0.716062
        22        31        29        30     9      180.000000       -0.188093         4    ;  uncertainty k = 0.337633
        23        22        24        25     9        0.000000       -3.445832         1    ;  uncertainty k = 0.577714
        23        22        24        25     9      180.000000        1.000569         2    ;  uncertainty k = 0.159576
        23        22        24        25     9        0.000000        0.416749         3    ;  uncertainty k = 0.465963
        23        22        24        25     9      180.000000       -0.108520         4    ;  uncertainty k = 0.136148
        23        22        24        46     9        0.000000       -0.802552         1    ;  uncertainty k = 0.394285
        23        22        24        46     9      180.000000        0.276115         2    ;  uncertainty k = 0.372721
        23        22        24        46     9        0.000000        0.095891         3    ;  uncertainty k = 0.163311
        23        22        24        46     9      180.000000       -0.108559         4    ;  uncertainty k = 0.108033
        23        22        24        47     9        0.000000       -0.802552         1    ;  uncertainty k = 0.394285
        23        22        24        47     9      180.000000        0.276115         2    ;  uncertainty k = 0.372721
        23        22        24        47     9        0.000000        0.095891         3    ;  uncertainty k = 0.163311
        23        22        24        47     9      180.000000       -0.108559         4    ;  uncertainty k = 0.108033
        23        22        31        29     9        0.000000       -1.559122         1    ;  uncertainty k = 0.996205
        23        22        31        29     9      180.000000        0.692977         2    ;  uncertainty k = 0.583570
        23        22        31        29     9        0.000000        0.376445         3    ;  uncertainty k = 0.154005
        23        22        31        29     9      180.000000        0.191360         4    ;  uncertainty k = 0.052946
        23        22        31        53     9        0.000000        0.422190         1    ;  uncertainty k = 0.912221
        23        22        31        53     9      180.000000       -0.016176         2    ;  uncertainty k = 0.498395
        23        22        31        53     9        0.000000        0.358450         3    ;  uncertainty k = 0.216653
        23        22        31        53     9      180.000000        0.156531         4    ;  uncertainty k = 0.074567
        24        22        23        43     9        0.000000       -1.059786         1    ;  uncertainty k = 0.306807
        24        22        23        43     9      180.000000       -0.532508         2    ;  uncertainty k = 0.154204
        24        22        23        43     9        0.000000        0.688928         3    ;  uncertainty k = 0.192978
        24        22        23        43     9      180.000000       -0.160378         4    ;  uncertainty k = 0.106176
        24        22        23        44     9        0.000000       -1.059786         1    ;  uncertainty k = 0.306807
        24        22        23        44     9      180.000000       -0.532508         2    ;  uncertainty k = 0.154204
        24        22        23        44     9        0.000000        0.688928         3    ;  uncertainty k = 0.192978
        24        22        23        44     9      180.000000       -0.160378         4    ;  uncertainty k = 0.106176
        24        22        23        45     9        0.000000       -1.059786         1    ;  uncertainty k = 0.306807
        24        22        23        45     9      180.000000       -0.532508         2    ;  uncertainty k = 0.154204
        24        22        23        45     9        0.000000        0.688928         3    ;  uncertainty k = 0.192978
        24        22        23        45     9      180.000000       -0.160378         4    ;  uncertainty k = 0.106176
        24        22        31        29     9        0.000000        0.400596         1    ;  uncertainty k = 1.962356
        24        22        31        29     9      180.000000        0.402340         2    ;  uncertainty k = 0.917559
        24        22        31        29     9        0.000000       -0.253473         3    ;  uncertainty k = 0.472714
        24        22        31        29     9      180.000000        0.288423         4    ;  uncertainty k = 0.198771
        24        22        31        53     9        0.000000       -1.544683         1    ;  uncertainty k = 2.130081
        24        22        31        53     9      180.000000       -1.837799         2    ;  uncertainty k = 1.054898
        24        22        31        53     9        0.000000       -0.066676         3    ;  uncertainty k = 0.271754
        24        22        31        53     9      180.000000        0.336614         4    ;  uncertainty k = 0.101855
        24        25        27        28     9        0.000000        1.865892         1    ;  uncertainty k = 3.131219
        24        25        27        28     9      180.000000        2.591969         2    ;  uncertainty k = 0.830753
        24        25        27        28     9        0.000000        0.584869         3    ;  uncertainty k = 0.493225
        24        25        27        28     9      180.000000        0.675021         4    ;  uncertainty k = 0.280546
        24        25        27        29     9        0.000000        4.337412         1    ;  uncertainty k = 2.338939
        24        25        27        29     9      180.000000       -1.983172         2    ;  uncertainty k = 1.671322
        24        25        27        29     9        0.000000       -0.125780         3    ;  uncertainty k = 0.934440
        24        25        27        29     9      180.000000        0.703975         4    ;  uncertainty k = 0.311858
        25        24        22        31     9        0.000000        7.955857         1    ;  uncertainty k = 1.904047
        25        24        22        31     9      180.000000       -5.285112         2    ;  uncertainty k = 1.122030
        25        24        22        31     9        0.000000       -0.845708         3    ;  uncertainty k = 0.659958
        25        24        22        31     9      180.000000       -0.037197         4    ;  uncertainty k = 0.387605
        25        27        28        48     9        0.000000       -0.208663         1    ;  uncertainty k = 0.355044
        25        27        28        48     9      180.000000        0.043077         2    ;  uncertainty k = 0.345003
        25        27        28        48     9        0.000000        0.551328         3    ;  uncertainty k = 0.158411
        25        27        28        48     9      180.000000        0.448174         4    ;  uncertainty k = 0.058761
        25        27        28        49     9        0.000000       -0.208663         1    ;  uncertainty k = 0.355044
        25        27        28        49     9      180.000000        0.043077         2    ;  uncertainty k = 0.345003
        25        27        28        49     9        0.000000        0.551328         3    ;  uncertainty k = 0.158411
        25        27        28        49     9      180.000000        0.448174         4    ;  uncertainty k = 0.058761
        25        27        28        50     9        0.000000       -0.208663         1    ;  uncertainty k = 0.355044
        25        27        28        50     9      180.000000        0.043077         2    ;  uncertainty k = 0.345003
        25        27        28        50     9        0.000000        0.551328         3    ;  uncertainty k = 0.158411
        25        27        28        50     9      180.000000        0.448174         4    ;  uncertainty k = 0.058761
        25        27        29        30     9        0.000000        3.395867         1    ;  uncertainty k = 2.091497
        25        27        29        30     9      180.000000        4.242345         2    ;  uncertainty k = 1.742337
        25        27        29        30     9        0.000000        0.124320         3    ;  uncertainty k = 0.689760
        25        27        29        30     9      180.000000       -0.115032         4    ;  uncertainty k = 0.313141
        25        27        29        31     9        0.000000        9.246064         1    ;  uncertainty k = 1.887873
        25        27        29        31     9      180.000000        2.270906         2    ;  uncertainty k = 2.248002
        25        27        29        31     9        0.000000       -0.387225         3    ;  uncertainty k = 0.756470
        25        27        29        31     9      180.000000        0.430324         4    ;  uncertainty k = 0.523291
        26        25        24        46     9        0.000000        1.264789         1    ;  uncertainty k = 1.159483
        26        25        24        46     9      180.000000        3.606363         2    ;  uncertainty k = 0.668966
        26        25        24        46     9        0.000000        0.294649         3    ;  uncertainty k = 0.220574
        26        25        24        46     9      180.000000        0.064559         4    ;  uncertainty k = 0.138808
        26        25        24        47     9        0.000000        1.264789         1    ;  uncertainty k = 1.159483
        26        25        24        47     9      180.000000        3.606363         2    ;  uncertainty k = 0.668966
        26        25        24        47     9        0.000000        0.294649         3    ;  uncertainty k = 0.220574
        26        25        24        47     9      180.000000        0.064559         4    ;  uncertainty k = 0.138808
        26        25        27        28     9        0.000000        1.160813         1    ;  uncertainty k = 2.333027
        26        25        27        28     9      180.000000       10.722771         2    ;  uncertainty k = 0.444464
        26        25        27        28     9        0.000000        0.710470         3    ;  uncertainty k = 0.202987
        26        25        27        28     9      180.000000        0.304673         4    ;  uncertainty k = 0.249076
        26        25        27        29     9        0.000000        3.410001         1    ;  uncertainty k = 2.543224
        26        25        27        29     9      180.000000        8.043546         2    ;  uncertainty k = 0.978968
        26        25        27        29     9        0.000000        0.982679         3    ;  uncertainty k = 0.410397
        26        25        27        29     9      180.000000       -0.009606         4    ;  uncertainty k = 0.325040
        27        25        24        46     9        0.000000       -3.653304         1    ;  uncertainty k = 2.960865
        27        25        24        46     9      180.000000        2.021620         2    ;  uncertainty k = 0.498589
        27        25        24        46     9        0.000000        0.295092         3    ;  uncertainty k = 0.233124
        27        25        24        46     9      180.000000       -0.022024         4    ;  uncertainty k = 0.102189
        27        25        24        47     9        0.000000       -3.653304         1    ;  uncertainty k = 2.960865
        27        25        24        47     9      180.000000        2.021620         2    ;  uncertainty k = 0.498589
        27        25        24        47     9        0.000000        0.295092         3    ;  uncertainty k = 0.233124
        27        25        24        47     9      180.000000       -0.022024         4    ;  uncertainty k = 0.102189
        27        29        30        51     9        0.000000        7.296407         1    ;  uncertainty k = 1.850814
        27        29        30        51     9      180.000000        9.175346         2    ;  uncertainty k = 0.502673
        27        29        30        51     9        0.000000        0.892497         3    ;  uncertainty k = 0.481850
        27        29        30        51     9      180.000000       -0.978078         4    ;  uncertainty k = 0.303837
        27        29        30        52     9        0.000000        7.296407         1    ;  uncertainty k = 1.850814
        27        29        30        52     9      180.000000        9.175346         2    ;  uncertainty k = 0.502673
        27        29        30        52     9        0.000000        0.892497         3    ;  uncertainty k = 0.481850
        27        29        30        52     9      180.000000       -0.978078         4    ;  uncertainty k = 0.303837
        27        29        31        53     9        0.000000        3.093859         1    ;  uncertainty k = 2.166990
        27        29        31        53     9      180.000000        9.132620         2    ;  uncertainty k = 0.524243
        27        29        31        53     9        0.000000        1.042978         3    ;  uncertainty k = 0.524479
        27        29        31        53     9      180.000000       -0.489808         4    ;  uncertainty k = 0.466883
        28        27        29        30     9        0.000000        0.044377         1    ;  uncertainty k = 0.759708
        28        27        29        30     9      180.000000       10.089248         2    ;  uncertainty k = 0.533145
        28        27        29        30     9        0.000000        0.494320         3    ;  uncertainty k = 0.633489
        28        27        29        30     9      180.000000       -0.311752         4    ;  uncertainty k = 0.301267
        28        27        29        31     9        0.000000        1.243306         1    ;  uncertainty k = 2.976050
        28        27        29        31     9      180.000000        9.822736         2    ;  uncertainty k = 0.515634
        28        27        29        31     9        0.000000       -0.001987         3    ;  uncertainty k = 0.581631
        28        27        29        31     9      180.000000       -0.155141         4    ;  uncertainty k = 0.421724
        29        27        28        48     9        0.000000       -0.538778         1    ;  uncertainty k = 0.755939
        29        27        28        48     9      180.000000       -1.113040         2    ;  uncertainty k = 0.481362
        29        27        28        48     9        0.000000        0.319969         3    ;  uncertainty k = 0.159961
        29        27        28        48     9      180.000000        0.224213         4    ;  uncertainty k = 0.109432
        29        27        28        49     9        0.000000       -0.538778         1    ;  uncertainty k = 0.755939
        29        27        28        49     9      180.000000       -1.113040         2    ;  uncertainty k = 0.481362
        29        27        28        49     9        0.000000        0.319969         3    ;  uncertainty k = 0.159961
        29        27        28        49     9      180.000000        0.224213         4    ;  uncertainty k = 0.109432
        29        27        28        50     9        0.000000       -0.538778         1    ;  uncertainty k = 0.755939
        29        27        28        50     9      180.000000       -1.113040         2    ;  uncertainty k = 0.481362
        29        27        28        50     9        0.000000        0.319969         3    ;  uncertainty k = 0.159961
        29        27        28        50     9      180.000000        0.224213         4    ;  uncertainty k = 0.109432
        30        29        31        53     9        0.000000        1.484346         1    ;  uncertainty k = 1.689491
        30        29        31        53     9      180.000000        9.553864         2    ;  uncertainty k = 0.691348
        30        29        31        53     9        0.000000        1.458048         3    ;  uncertainty k = 0.487985
        30        29        31        53     9      180.000000       -0.282586         4    ;  uncertainty k = 0.400572
        31        22        23        43     9        0.000000       -1.560152         1    ;  uncertainty k = 0.692104
        31        22        23        43     9      180.000000       -0.870774         2    ;  uncertainty k = 0.417542
        31        22        23        43     9        0.000000        0.945102         3    ;  uncertainty k = 0.108689
        31        22        23        43     9      180.000000       -0.248422         4    ;  uncertainty k = 0.157030
        31        22        23        44     9        0.000000       -1.560152         1    ;  uncertainty k = 0.692104
        31        22        23        44     9      180.000000       -0.870774         2    ;  uncertainty k = 0.417542
        31        22        23        44     9        0.000000        0.945102         3    ;  uncertainty k = 0.108689
        31        22        23        44     9      180.000000       -0.248422         4    ;  uncertainty k = 0.157030
        31        22        23        45     9        0.000000       -1.560152         1    ;  uncertainty k = 0.692104
        31        22        23        45     9      180.000000       -0.870774         2    ;  uncertainty k = 0.417542
        31        22        23        45     9        0.000000        0.945102         3    ;  uncertainty k = 0.108689
        31        22        23        45     9      180.000000       -0.248422         4    ;  uncertainty k = 0.157030
        31        22        24        46     9        0.000000       -1.070019         1    ;  uncertainty k = 0.758867
        31        22        24        46     9      180.000000       -0.931278         2    ;  uncertainty k = 0.529991
        31        22        24        46     9        0.000000        0.103678         3    ;  uncertainty k = 0.154030
        31        22        24        46     9      180.000000       -0.273167         4    ;  uncertainty k = 0.125269
        31        22        24        47     9        0.000000       -1.070019         1    ;  uncertainty k = 0.758867
        31        22        24        47     9      180.000000       -0.931278         2    ;  uncertainty k = 0.529991
        31        22        24        47     9        0.000000        0.103678         3    ;  uncertainty k = 0.154030
        31        22        24        47     9      180.000000       -0.273167         4    ;  uncertainty k = 0.125269
        31        29        30        51     9        0.000000        4.534155         1    ;  uncertainty k = 2.434020
        31        29        30        51     9      180.000000        9.295634         2    ;  uncertainty k = 0.513279
        31        29        30        51     9        0.000000        1.256279         3    ;  uncertainty k = 0.365820
        31        29        30        51     9      180.000000       -0.599313         4    ;  uncertainty k = 0.348224
        31        29        30        52     9        0.000000        4.534155         1    ;  uncertainty k = 2.434020
        31        29        30        52     9      180.000000        9.295634         2    ;  uncertainty k = 0.513279
        31        29        30        52     9        0.000000        1.256279         3    ;  uncertainty k = 0.365820
        31        29        30        52     9      180.000000       -0.599313         4    ;  uncertainty k = 0.348224
        40        16        17        41     9        0.000000       -0.153107         1    ;  uncertainty k = 0.348610
        40        16        17        41     9      180.000000        8.236027         2    ;  uncertainty k = 0.380609
        40        16        17        41     9        0.000000       -0.419069         3    ;  uncertainty k = 0.255104
        40        16        17        41     9      180.000000        0.141943         4    ;  uncertainty k = 0.232374

[ dihedrals ] ; impropers
;       ai        aj        ak        al funct           phase               k        pn
         6         5         7        11     4      180.000000       29.633991         2    ;  uncertainty k = 0.032288
         6         7        11         5     4      180.000000       29.633991         2    ;  uncertainty k = 0.032288
         6        11         5         7     4      180.000000       29.633991         2    ;  uncertainty k = 0.032288
         7         6         8        37     4      180.000000        9.593634         2    ;  uncertainty k = 0.152722
         7         8        37         6     4      180.000000        9.593634         2    ;  uncertainty k = 0.152722
         7        37         6         8     4      180.000000        9.593634         2    ;  uncertainty k = 0.152722
         9         8        10        12     4      180.000000       12.529771         2    ;  uncertainty k = 0.275801
         9        10        12         8     4      180.000000       12.529771         2    ;  uncertainty k = 0.275801
         9        12         8        10     4      180.000000       12.529771         2    ;  uncertainty k = 0.275801
        10         9        11        38     4      180.000000       13.936810         2    ;  uncertainty k = 0.045567
        10        11        38         9     4      180.000000       13.936810         2    ;  uncertainty k = 0.045567
        10        38         9        11     4      180.000000       13.936810         2    ;  uncertainty k = 0.045567
        12         9        13        14     4      180.000000       49.287302         2    ;  uncertainty k = 0.035702
        12        13        14         9     4      180.000000       49.287302         2    ;  uncertainty k = 0.035702
        12        14         9        13     4      180.000000       49.287302         2    ;  uncertainty k = 0.035702
        14        12        15        39     4      180.000000        0.983701         2    ;  uncertainty k = 0.795606
        14        15        39        12     4      180.000000        0.983701         2    ;  uncertainty k = 0.795606
        14        39        12        15     4      180.000000        0.983701         2    ;  uncertainty k = 0.795606
        15        14        16        21     4      180.000000       16.792710         2    ;  uncertainty k = 0.141292
        15        16        21        14     4      180.000000       16.792710         2    ;  uncertainty k = 0.141292
        15        21        14        16     4      180.000000       16.792710         2    ;  uncertainty k = 0.141292
        16        15        17        40     4      180.000000        3.616409         2    ;  uncertainty k = 0.252646
        16        17        40        15     4      180.000000        3.616409         2    ;  uncertainty k = 0.252646
        16        40        15        17     4      180.000000        3.616409         2    ;  uncertainty k = 0.252646
        17        16        18        41     4      180.000000        1.713695         2    ;  uncertainty k = 0.352463
        17        18        41        16     4      180.000000        1.713695         2    ;  uncertainty k = 0.352463
        17        41        16        18     4      180.000000        1.713695         2    ;  uncertainty k = 0.352463
        18        17        19        20     4      180.000000       14.944537         2    ;  uncertainty k = 0.138122
        18        19        20        17     4      180.000000       14.944537         2    ;  uncertainty k = 0.138122
        18        20        17        19     4      180.000000       14.944537         2    ;  uncertainty k = 0.138122
        20        18        21        22     4      180.000000       10.155584         2    ;  uncertainty k = 0.269535
        20        21        22        18     4      180.000000       10.155584         2    ;  uncertainty k = 0.269535
        20        22        18        21     4      180.000000       10.155584         2    ;  uncertainty k = 0.269535
        21        15        20        42     4      180.000000        3.829107         2    ;  uncertainty k = 0.385536
        21        20        42        15     4      180.000000        3.829107         2    ;  uncertainty k = 0.385536
        21        42        15        20     4      180.000000        3.829107         2    ;  uncertainty k = 0.385536
        25        24        26        27     4      180.000000       53.494700         2    ;  uncertainty k = 0.038139
        25        26        27        24     4      180.000000       53.494700         2    ;  uncertainty k = 0.038139
        25        27        24        26     4      180.000000       53.494700         2    ;  uncertainty k = 0.038139
        27        25        28        29     4      180.000000        3.488066         2    ;  uncertainty k = 0.874226
        27        28        29        25     4      180.000000        3.488066         2    ;  uncertainty k = 0.874226
        27        29        25        28     4      180.000000        3.488066         2    ;  uncertainty k = 0.874226
        29        27        30        31     4      180.000000       37.755696         2    ;  uncertainty k = 0.153939
        29        30        31        27     4      180.000000       37.755696         2    ;  uncertainty k = 0.153939
        29        31        27        30     4      180.000000       37.755696         2    ;  uncertainty k = 0.153939
        30        29        51        52     4      180.000000        0.189446         2    ;  uncertainty k = 0.423615
        30        51        52        29     4      180.000000        0.189446         2    ;  uncertainty k = 0.423615
        30        52        29        51     4      180.000000        0.189446         2    ;  uncertainty k = 0.423615
        31        22        29        53     4      180.000000        0.562966         2    ;  uncertainty k = 0.792038
        31        29        53        22     4      180.000000        0.562966         2    ;  uncertainty k = 0.792038
        31        53        22        29     4      180.000000        0.562966         2    ;  uncertainty k = 0.792038

[ pairs ]
;       ai        aj funct
         1         4     1
         2         5     1
         2        35     1
         2        36     1
         3         6     1
         3        32     1
         3        33     1
         3        34     1
         4         7     1
         4        11     1
         5         8     1
         5        10     1
         5        37     1
         6         9     1
         6        35     1
         6        36     1
         6        38     1
         7        10     1
         7        12     1
         8        11     1
         8        13     1
         8        14     1
         8        38     1
         9        15     1
         9        37     1
         9        39     1
        10        13     1
        10        14     1
        11        12     1
        11        37     1
        12        16     1
        12        21     1
        12        38     1
        13        15     1
        13        39     1
        14        17     1
        14        20     1
        14        40     1
        14        42     1
        15        18     1
        15        22     1
        15        41     1
        16        19     1
        16        20     1
        16        39     1
        16        42     1
        17        21     1
        17        22     1
        18        23     1
        18        24     1
        18        31     1
        18        40     1
        18        42     1
        19        21     1
        19        22     1
        19        41     1
        20        25     1
        20        29     1
        20        41     1
        20        43     1
        20        44     1
        20        45     1
        20        46     1
        20        47     1
        20        53     1
        21        23     1
        21        24     1
        21        31     1
        21        39     1
        21        40     1
        22        26     1
        22        27     1
        22        30     1
        22        42     1
        23        25     1
        23        29     1
        23        46     1
        23        47     1
        23        53     1
        24        28     1
        24        29     1
        24        43     1
        24        44     1
        24        45     1
        24        53     1
        25        30     1
        25        31     1
        25        48     1
        25        49     1
        25        50     1
        26        28     1
        26        29     1
        26        46     1
        26        47     1
        27        46     1
        27        47     1
        27        51     1
        27        52     1
        27        53     1
        28        30     1
        28        31     1
        29        48     1
        29        49     1
        29        50     1
        30        53     1
        31        43     1
        31        44     1
        31        45     1
        31        46     1
        31        47     1
        31        51     1
        31        52     1
        40        41     1
