; ITP file created by ByteFF-joint-25, 2025-07-14 11:32:20.368371

[ atomtypes ]
;name           bonded.type        at.num        mass        charge   ptype           sigma         epsilon
 c0bf                                   6      0.0000       0.00000       A     3.39840e-01     4.51981e-01    ;  uncertainty sigma = 0.000017, epsilon = 0.001351
 n1bf                                   7      0.0000       0.00000       A     3.18438e-01     6.86480e-01    ;  uncertainty sigma = 0.000178, epsilon = 0.008457
 c2bf                                   6      0.0000       0.00000       A     3.31498e-01     4.11029e-01    ;  uncertainty sigma = 0.000079, epsilon = 0.002721
 n3bf                                   7      0.0000       0.00000       A     3.36962e-01     4.68913e-01    ;  uncertainty sigma = 0.000160, epsilon = 0.004444
 n4bf                                   7      0.0000       0.00000       A     3.26683e-01     6.60554e-01    ;  uncertainty sigma = 0.000163, epsilon = 0.008183
 c5bf                                   6      0.0000       0.00000       A     3.39727e-01     4.50183e-01    ;  uncertainty sigma = 0.000040, epsilon = 0.001738
 c6bf                                   6      0.0000       0.00000       A     3.39761e-01     4.50564e-01    ;  uncertainty sigma = 0.000012, epsilon = 0.001439
 c7bf                                   6      0.0000       0.00000       A     3.39764e-01     4.51711e-01    ;  uncertainty sigma = 0.000006, epsilon = 0.001436
 c8bf                                   6      0.0000       0.00000       A     3.39786e-01     4.51358e-01    ;  uncertainty sigma = 0.000025, epsilon = 0.000748
 c9bf                                   6      0.0000       0.00000       A     3.31609e-01     4.13636e-01    ;  uncertainty sigma = 0.000037, epsilon = 0.001290
 o10bf                                  8      0.0000       0.00000       A     3.04833e-01     6.12347e-01    ;  uncertainty sigma = 0.000038, epsilon = 0.004084
 c11bf                                  6      0.0000       0.00000       A     3.31372e-01     4.13836e-01    ;  uncertainty sigma = 0.000043, epsilon = 0.001321
 c12bf                                  6      0.0000       0.00000       A     3.31534e-01     4.13747e-01    ;  uncertainty sigma = 0.000008, epsilon = 0.001197
 c13bf                                  6      0.0000       0.00000       A     3.31511e-01     4.13330e-01    ;  uncertainty sigma = 0.000009, epsilon = 0.001130
 c14bf                                  6      0.0000       0.00000       A     3.31527e-01     4.13334e-01    ;  uncertainty sigma = 0.000006, epsilon = 0.000435
 c15bf                                  6      0.0000       0.00000       A     3.31530e-01     4.13270e-01    ;  uncertainty sigma = 0.000003, epsilon = 0.000631
 c16bf                                  6      0.0000       0.00000       A     3.31533e-01     4.12867e-01    ;  uncertainty sigma = 0.000012, epsilon = 0.000319
 f17bf                                  9      0.0000       0.00000       A     3.03460e-01     3.47877e-01    ;  uncertainty sigma = 0.000027, epsilon = 0.001485
 n18bf                                  7      0.0000       0.00000       A     3.26994e-01     4.90792e-01    ;  uncertainty sigma = 0.000028, epsilon = 0.000977
 c19bf                                  6      0.0000       0.00000       A     3.31530e-01     4.12721e-01    ;  uncertainty sigma = 0.000022, epsilon = 0.000898
 o20bf                                  8      0.0000       0.00000       A     3.04834e-01     6.12910e-01    ;  uncertainty sigma = 0.000023, epsilon = 0.001454
 c21bf                                  6      0.0000       0.00000       A     3.31527e-01     4.13142e-01    ;  uncertainty sigma = 0.000011, epsilon = 0.000750
 c22bf                                  6      0.0000       0.00000       A     3.31541e-01     4.13392e-01    ;  uncertainty sigma = 0.000008, epsilon = 0.000789
 c23bf                                  6      0.0000       0.00000       A     3.31514e-01     4.13068e-01    ;  uncertainty sigma = 0.000010, epsilon = 0.000457
 c24bf                                  6      0.0000       0.00000       A     3.31526e-01     4.13654e-01    ;  uncertainty sigma = 0.000001, epsilon = 0.000612
 c25bf                                  6      0.0000       0.00000       A     3.47937e-01     6.68175e-01    ;  uncertainty sigma = 0.000028, epsilon = 0.001882
 n26bf                                  7      0.0000       0.00000       A     3.27336e-01     4.58760e-01    ;  uncertainty sigma = 0.000024, epsilon = 0.000711
 c27bf                                  6      0.0000       0.00000       A     3.31518e-01     4.13237e-01    ;  uncertainty sigma = 0.000011, epsilon = 0.000869
 n28bf                                  7      0.0000       0.00000       A     3.38406e-01     3.93383e-01    ;  uncertainty sigma = 0.000014, epsilon = 0.001237
 h29bf                                  1      0.0000       0.00000       A     2.42231e-01     8.72909e-02    ;  uncertainty sigma = 0.000043, epsilon = 0.000597
 h30bf                                  1      0.0000       0.00000       A     2.42231e-01     8.72909e-02    ;  uncertainty sigma = 0.000043, epsilon = 0.000597
 h31bf                                  1      0.0000       0.00000       A     2.42231e-01     8.72909e-02    ;  uncertainty sigma = 0.000043, epsilon = 0.000597
 h32bf                                  1      0.0000       0.00000       A     1.10576e-01     4.14815e-02    ;  uncertainty sigma = 0.000133, epsilon = 0.001943
 h33bf                                  1      0.0000       0.00000       A     1.10576e-01     4.14815e-02    ;  uncertainty sigma = 0.000133, epsilon = 0.001943
 h34bf                                  1      0.0000       0.00000       A     2.60065e-01     8.70043e-02    ;  uncertainty sigma = 0.000028, epsilon = 0.000622
 h35bf                                  1      0.0000       0.00000       A     2.60065e-01     8.70043e-02    ;  uncertainty sigma = 0.000028, epsilon = 0.000622
 h36bf                                  1      0.0000       0.00000       A     2.60065e-01     8.70043e-02    ;  uncertainty sigma = 0.000028, epsilon = 0.000622
 h37bf                                  1      0.0000       0.00000       A     2.60003e-01     8.70111e-02    ;  uncertainty sigma = 0.000036, epsilon = 0.001237
 h38bf                                  1      0.0000       0.00000       A     2.60003e-01     8.70111e-02    ;  uncertainty sigma = 0.000036, epsilon = 0.001237
 h39bf                                  1      0.0000       0.00000       A     2.60045e-01     8.71738e-02    ;  uncertainty sigma = 0.000025, epsilon = 0.001486
 h40bf                                  1      0.0000       0.00000       A     2.60045e-01     8.71738e-02    ;  uncertainty sigma = 0.000025, epsilon = 0.001486
 h41bf                                  1      0.0000       0.00000       A     2.62558e-01     6.70793e-02    ;  uncertainty sigma = 0.000012, epsilon = 0.000602
 h42bf                                  1      0.0000       0.00000       A     2.62560e-01     6.69889e-02    ;  uncertainty sigma = 0.000013, epsilon = 0.000439
 h43bf                                  1      0.0000       0.00000       A     2.62566e-01     6.69934e-02    ;  uncertainty sigma = 0.000012, epsilon = 0.000403
 h44bf                                  1      0.0000       0.00000       A     1.10674e-01     4.15810e-02    ;  uncertainty sigma = 0.000084, epsilon = 0.000795
 h45bf                                  1      0.0000       0.00000       A     2.62566e-01     6.71123e-02    ;  uncertainty sigma = 0.000016, epsilon = 0.000623
 h46bf                                  1      0.0000       0.00000       A     2.62538e-01     6.71585e-02    ;  uncertainty sigma = 0.000013, epsilon = 0.000724
 h47bf                                  1      0.0000       0.00000       A     2.53641e-01     6.71894e-02    ;  uncertainty sigma = 0.000016, epsilon = 0.000600
 h48bf                                  1      0.0000       0.00000       A     1.10825e-01     4.49240e-02    ;  uncertainty sigma = 0.000379, epsilon = 0.003045

[ moleculetype ]
;name             nrexcl
 MOL                   3

[ atoms ]
;       nr            type      resi   res      atom      cgnr      charge          mass ; qtot
         1            c0bf         1   UNL        c0         1     0.05023       12.0110 ; qtot    0.050
         2            n1bf         1   UNL        n1         2    -0.45372       14.0070 ; qtot   -0.403
         3            c2bf         1   UNL        c2         3     0.48845       12.0110 ; qtot    0.085
         4            n3bf         1   UNL        n3         4    -0.50050       14.0070 ; qtot   -0.416
         5            n4bf         1   UNL        n4         5    -0.38291       14.0070 ; qtot   -0.798
         6            c5bf         1   UNL        c5         6     0.16845       12.0110 ; qtot   -0.630
         7            c6bf         1   UNL        c6         7    -0.11699       12.0110 ; qtot   -0.747
         8            c7bf         1   UNL        c7         8    -0.09594       12.0110 ; qtot   -0.843
         9            c8bf         1   UNL        c8         9    -0.15800       12.0110 ; qtot   -1.001
        10            c9bf         1   UNL        c9        10     0.71346       12.0110 ; qtot   -0.287
        11           o10bf         1   UNL       o10        11    -0.48981       15.9990 ; qtot   -0.777
        12           c11bf         1   UNL       c11        12    -0.14652       12.0110 ; qtot   -0.924
        13           c12bf         1   UNL       c12        13    -0.11409       12.0110 ; qtot   -1.038
        14           c13bf         1   UNL       c13        14     0.07705       12.0110 ; qtot   -0.961
        15           c14bf         1   UNL       c14        15    -0.12622       12.0110 ; qtot   -1.087
        16           c15bf         1   UNL       c15        16    -0.11732       12.0110 ; qtot   -1.204
        17           c16bf         1   UNL       c16        17     0.11591       12.0110 ; qtot   -1.088
        18           f17bf         1   UNL       f17        18    -0.14945       18.9980 ; qtot   -1.238
        19           n18bf         1   UNL       n18        19    -0.46399       14.0070 ; qtot   -1.702
        20           c19bf         1   UNL       c19        20     0.58118       12.0110 ; qtot   -1.121
        21           o20bf         1   UNL       o20        21    -0.58018       15.9990 ; qtot   -1.701
        22           c21bf         1   UNL       c21        22     0.36939       12.0110 ; qtot   -1.332
        23           c22bf         1   UNL       c22        23    -0.18487       12.0110 ; qtot   -1.516
        24           c23bf         1   UNL       c23        24    -0.06136       12.0110 ; qtot   -1.578
        25           c24bf         1   UNL       c24        25    -0.11268       12.0110 ; qtot   -1.690
        26           c25bf         1   UNL       c25        26     0.23485       12.0110 ; qtot   -1.456
        27           n26bf         1   UNL       n26        27    -0.34982       14.0070 ; qtot   -1.805
        28           c27bf         1   UNL       c27        28     0.43617       12.0110 ; qtot   -1.369
        29           n28bf         1   UNL       n28        29    -0.66550       14.0070 ; qtot   -2.035
        30           h29bf         1   UNL       h29        30     0.08628        1.0080 ; qtot   -1.948
        31           h30bf         1   UNL       h30        31     0.08628        1.0080 ; qtot   -1.862
        32           h31bf         1   UNL       h31        32     0.08628        1.0080 ; qtot   -1.776
        33           h32bf         1   UNL       h32        33     0.33294        1.0080 ; qtot   -1.443
        34           h33bf         1   UNL       h33        34     0.33294        1.0080 ; qtot   -1.110
        35           h34bf         1   UNL       h34        35     0.06750        1.0080 ; qtot   -1.043
        36           h35bf         1   UNL       h35        36     0.06750        1.0080 ; qtot   -0.975
        37           h36bf         1   UNL       h36        37     0.06750        1.0080 ; qtot   -0.908
        38           h37bf         1   UNL       h37        38     0.08301        1.0080 ; qtot   -0.825
        39           h38bf         1   UNL       h38        39     0.08301        1.0080 ; qtot   -0.741
        40           h39bf         1   UNL       h39        40     0.10284        1.0080 ; qtot   -0.639
        41           h40bf         1   UNL       h40        41     0.10284        1.0080 ; qtot   -0.536
        42           h41bf         1   UNL       h41        42     0.16329        1.0080 ; qtot   -0.373
        43           h42bf         1   UNL       h42        43     0.15920        1.0080 ; qtot   -0.213
        44           h43bf         1   UNL       h43        44     0.16669        1.0080 ; qtot   -0.047
        45           h44bf         1   UNL       h44        45     0.34879        1.0080 ; qtot    0.302
        46           h45bf         1   UNL       h45        46     0.17612        1.0080 ; qtot    0.478
        47           h46bf         1   UNL       h46        47     0.15694        1.0080 ; qtot    0.635
        48           h47bf         1   UNL       h47        48     0.04051        1.0080 ; qtot    0.676
        49           h48bf         1   UNL       h48        49     0.32427        1.0080 ; qtot    1.000

[ bonds ]
;       ai        aj funct               r               k
         1         2     1        0.147625   252641.074609    ;  uncertainty r = 0.000231, k = 28.664330
         1        30     1        0.109124   307806.849023    ;  uncertainty r = 0.000024, k = 2.336780
         1        31     1        0.109124   307806.849023    ;  uncertainty r = 0.000024, k = 2.336780
         1        32     1        0.109124   307806.849023    ;  uncertainty r = 0.000024, k = 2.336780
         2         3     1        0.136571   315852.315332    ;  uncertainty r = 0.000279, k = 74.694399
         2        10     1        0.144720   259473.119629    ;  uncertainty r = 0.000699, k = 32.665451
         3         4     1        0.134791   321962.630566    ;  uncertainty r = 0.000135, k = 72.872311
         3         5     1        0.133524   551037.754199    ;  uncertainty r = 0.000349, k = 65.892201
         4        33     1        0.101342   416981.362500    ;  uncertainty r = 0.000070, k = 7.128664
         4        34     1        0.101342   416981.362500    ;  uncertainty r = 0.000070, k = 7.128664
         5         6     1        0.149699   215459.911621    ;  uncertainty r = 0.000235, k = 21.255699
         5        49     1        0.101450   445291.086914    ;  uncertainty r = 0.000296, k = 16.403459
         6         7     1        0.153544   199542.618579    ;  uncertainty r = 0.000121, k = 11.274554
         6         8     1        0.153508   197198.580078    ;  uncertainty r = 0.000344, k = 13.018727
         6        12     1        0.151936   207646.424414    ;  uncertainty r = 0.000356, k = 16.785752
         7        35     1        0.109419   312012.657715    ;  uncertainty r = 0.000036, k = 2.504848
         7        36     1        0.109419   312012.657715    ;  uncertainty r = 0.000036, k = 2.504848
         7        37     1        0.109419   312012.657715    ;  uncertainty r = 0.000036, k = 2.504848
         8         9     1        0.153102   211765.228174    ;  uncertainty r = 0.000186, k = 12.495007
         8        38     1        0.109436   311381.763428    ;  uncertainty r = 0.000047, k = 2.720739
         8        39     1        0.109436   311381.763428    ;  uncertainty r = 0.000047, k = 2.720739
         9        10     1        0.150869   211235.677905    ;  uncertainty r = 0.000281, k = 14.070386
         9        40     1        0.109342   313609.135645    ;  uncertainty r = 0.000059, k = 2.756480
         9        41     1        0.109342   313609.135645    ;  uncertainty r = 0.000059, k = 2.756480
        10        11     1        0.120632   623606.302539    ;  uncertainty r = 0.000472, k = 67.975514
        12        13     1        0.139253   348185.258105    ;  uncertainty r = 0.000103, k = 4.735757
        12        17     1        0.139303   338583.739111    ;  uncertainty r = 0.000120, k = 5.435327
        13        14     1        0.140091   350158.663770    ;  uncertainty r = 0.000134, k = 6.810363
        13        42     1        0.108619   335255.717480    ;  uncertainty r = 0.000039, k = 2.433389
        14        15     1        0.140109   351912.067236    ;  uncertainty r = 0.000070, k = 3.568780
        14        19     1        0.140250   326188.000684    ;  uncertainty r = 0.000028, k = 12.767252
        15        16     1        0.138902   378821.362109    ;  uncertainty r = 0.000043, k = 4.830101
        15        43     1        0.108597   335962.814502    ;  uncertainty r = 0.000021, k = 2.800175
        16        17     1        0.138802   358748.300342    ;  uncertainty r = 0.000081, k = 6.406726
        16        44     1        0.108727   335204.438965    ;  uncertainty r = 0.000006, k = 0.932601
        17        18     1        0.136412   335839.521338    ;  uncertainty r = 0.000066, k = 5.119223
        19        20     1        0.136496   278479.164355    ;  uncertainty r = 0.000047, k = 18.345025
        19        45     1        0.101969   418216.132812    ;  uncertainty r = 0.000030, k = 6.437136
        20        21     1        0.123364   656555.506836    ;  uncertainty r = 0.000023, k = 4.121463
        20        22     1        0.149761   245436.672998    ;  uncertainty r = 0.000176, k = 11.679506
        22        23     1        0.139535   336112.947168    ;  uncertainty r = 0.000065, k = 8.006229
        22        29     1        0.133701   392998.262842    ;  uncertainty r = 0.000051, k = 16.741923
        23        24     1        0.138609   377296.030566    ;  uncertainty r = 0.000068, k = 6.128317
        23        46     1        0.108622   336669.273096    ;  uncertainty r = 0.000021, k = 1.964158
        24        25     1        0.140111   378146.314160    ;  uncertainty r = 0.000065, k = 4.503755
        24        47     1        0.108622   331908.594092    ;  uncertainty r = 0.000021, k = 1.207920
        25        26     1        0.143604   324344.757666    ;  uncertainty r = 0.000012, k = 4.416308
        25        28     1        0.140676   364469.583252    ;  uncertainty r = 0.000052, k = 9.268356
        26        27     1        0.116674  1126027.886914    ;  uncertainty r = 0.000026, k = 2.140194
        28        29     1        0.132818   389852.244189    ;  uncertainty r = 0.000110, k = 8.811052
        28        48     1        0.108935   335128.414990    ;  uncertainty r = 0.000025, k = 2.177972

[ angles ]
;       ai        aj        ak funct           theta             cth
         1         2         3     1      114.117699      429.402727    ;  uncertainty theta = 0.009880, k = 0.289003
         1         2        10     1      114.554733      434.836609    ;  uncertainty theta = 0.015213, k = 0.157967
         2         1        30     1      107.636124      465.529757    ;  uncertainty theta = 0.001570, k = 0.169718
         2         1        31     1      107.636124      465.529757    ;  uncertainty theta = 0.001570, k = 0.169718
         2         1        32     1      107.636124      465.529757    ;  uncertainty theta = 0.001570, k = 0.169718
         2         3         4     1      120.154373      629.293110    ;  uncertainty theta = 0.009306, k = 0.317929
         2         3         5     1      123.468224      570.338140    ;  uncertainty theta = 0.017909, k = 0.573868
         2        10         9     1      115.335144      395.409866    ;  uncertainty theta = 0.008781, k = 0.262282
         2        10        11     1      121.653854      714.518425    ;  uncertainty theta = 0.003187, k = 0.110818
         3         2        10     1      122.699234      430.646576    ;  uncertainty theta = 0.014933, k = 0.172936
         3         4        33     1      115.658508      376.575386    ;  uncertainty theta = 0.003463, k = 0.190735
         3         4        34     1      115.658508      376.575386    ;  uncertainty theta = 0.003463, k = 0.190735
         3         5         6     1      123.204468      385.424186    ;  uncertainty theta = 0.016540, k = 0.475449
         3         5        49     1      115.603371      396.281480    ;  uncertainty theta = 0.021927, k = 0.255538
         4         3         5     1      122.487000      721.206466    ;  uncertainty theta = 0.019933, k = 0.309454
         5         6         7     1      107.837570      681.896747    ;  uncertainty theta = 0.005671, k = 0.139918
         5         6         8     1      107.673256      646.717527    ;  uncertainty theta = 0.007791, k = 0.199795
         5         6        12     1      107.412514      621.465476    ;  uncertainty theta = 0.012255, k = 0.211581
         6         5        49     1      114.211166      309.979361    ;  uncertainty theta = 0.008667, k = 0.223098
         6         7        35     1      107.137794      385.375729    ;  uncertainty theta = 0.001348, k = 0.102848
         6         7        36     1      107.137794      385.375729    ;  uncertainty theta = 0.001348, k = 0.102848
         6         7        37     1      107.137794      385.375729    ;  uncertainty theta = 0.001348, k = 0.102848
         6         8         9     1      110.561913      570.464804    ;  uncertainty theta = 0.005716, k = 0.076135
         6         8        38     1      106.535728      395.295747    ;  uncertainty theta = 0.001994, k = 0.082186
         6         8        39     1      106.535728      395.295747    ;  uncertainty theta = 0.001994, k = 0.082186
         6        12        13     1      118.160622      371.952659    ;  uncertainty theta = 0.007816, k = 0.185952
         6        12        17     1      117.339310      380.935592    ;  uncertainty theta = 0.008259, k = 0.164863
         7         6         8     1      109.752075      566.393039    ;  uncertainty theta = 0.003303, k = 0.073867
         7         6        12     1      110.246925      569.487690    ;  uncertainty theta = 0.006375, k = 0.192033
         8         6        12     1      109.669945      559.158376    ;  uncertainty theta = 0.006744, k = 0.133779
         8         9        10     1      110.047020      528.223297    ;  uncertainty theta = 0.004793, k = 0.187389
         8         9        40     1      108.858170      394.132276    ;  uncertainty theta = 0.001485, k = 0.113133
         8         9        41     1      108.858170      394.132276    ;  uncertainty theta = 0.001485, k = 0.113133
         9         8        38     1      108.090942      403.325891    ;  uncertainty theta = 0.000760, k = 0.077762
         9         8        39     1      108.090942      403.325891    ;  uncertainty theta = 0.000760, k = 0.077762
         9        10        11     1      125.693771      534.976074    ;  uncertainty theta = 0.009642, k = 0.357145
        10         9        40     1      105.814087      374.602772    ;  uncertainty theta = 0.006493, k = 0.155405
        10         9        41     1      105.814087      374.602772    ;  uncertainty theta = 0.006493, k = 0.155405
        12        13        14     1      122.235275      500.310885    ;  uncertainty theta = 0.002527, k = 0.117427
        12        13        42     1      117.406876      277.414216    ;  uncertainty theta = 0.003826, k = 0.109813
        12        17        16     1      124.602089      368.834258    ;  uncertainty theta = 0.006049, k = 0.304399
        12        17        18     1      115.906311      485.557139    ;  uncertainty theta = 0.002441, k = 0.063746
        13        12        17     1      121.533424      429.551385    ;  uncertainty theta = 0.004793, k = 0.104333
        13        14        15     1      120.372963      380.911268    ;  uncertainty theta = 0.008429, k = 0.197715
        13        14        19     1      119.084793      510.052590    ;  uncertainty theta = 0.005910, k = 0.054870
        14        13        42     1      118.493370      278.036715    ;  uncertainty theta = 0.002363, k = 0.083462
        14        15        16     1      118.861755      498.906663    ;  uncertainty theta = 0.003008, k = 0.116802
        14        15        43     1      118.868835      266.398225    ;  uncertainty theta = 0.001098, k = 0.060165
        14        19        20     1      116.977089      455.625349    ;  uncertainty theta = 0.007152, k = 0.049389
        14        19        45     1      113.263023      314.162659    ;  uncertainty theta = 0.005746, k = 0.117202
        15        14        19     1      119.882652      513.212041    ;  uncertainty theta = 0.004179, k = 0.158900
        15        16        17     1      119.693542      461.987600    ;  uncertainty theta = 0.002498, k = 0.231018
        15        16        44     1      121.220444      274.008044    ;  uncertainty theta = 0.002911, k = 0.017448
        16        15        43     1      120.292641      314.892669    ;  uncertainty theta = 0.001376, k = 0.079280
        16        17        18     1      118.251846      529.416199    ;  uncertainty theta = 0.002732, k = 0.198525
        17        16        44     1      119.857742      273.848118    ;  uncertainty theta = 0.001026, k = 0.039967
        19        20        21     1      122.787476      764.879647    ;  uncertainty theta = 0.001798, k = 0.070753
        19        20        22     1      111.651688      458.438006    ;  uncertainty theta = 0.001553, k = 0.246339
        20        19        45     1      116.971703      346.928271    ;  uncertainty theta = 0.004552, k = 0.126396
        20        22        23     1      117.846695      352.841324    ;  uncertainty theta = 0.004232, k = 0.136468
        20        22        29     1      115.309326      385.736569    ;  uncertainty theta = 0.006039, k = 0.208442
        21        20        22     1      121.199974      503.586594    ;  uncertainty theta = 0.002905, k = 0.112358
        22        23        24     1      117.796341      479.202644    ;  uncertainty theta = 0.003553, k = 0.135050
        22        23        46     1      121.152832      262.305520    ;  uncertainty theta = 0.004873, k = 0.070969
        22        29        28     1      120.098862      418.099269    ;  uncertainty theta = 0.003409, k = 0.234059
        23        22        29     1      124.667175      613.016970    ;  uncertainty theta = 0.003155, k = 0.187015
        23        24        25     1      118.572617      539.806610    ;  uncertainty theta = 0.003172, k = 0.110171
        23        24        47     1      120.918823      269.171858    ;  uncertainty theta = 0.001998, k = 0.127067
        24        23        46     1      121.601830      277.425388    ;  uncertainty theta = 0.002320, k = 0.112827
        24        25        26     1      120.875465      381.677541    ;  uncertainty theta = 0.003130, k = 0.160604
        24        25        28     1      118.629784      404.999338    ;  uncertainty theta = 0.005125, k = 0.108159
        25        24        47     1      119.910950      278.994261    ;  uncertainty theta = 0.003209, k = 0.074463
        25        26        27     1      180.000000      232.628814    ;  uncertainty theta = 0.000000, k = 0.661818
        25        28        29     1      124.144119      683.103439    ;  uncertainty theta = 0.004119, k = 0.117531
        25        28        48     1      119.444847      275.004917    ;  uncertainty theta = 0.003889, k = 0.110259
        26        25        28     1      120.363876      380.992572    ;  uncertainty theta = 0.004094, k = 0.155664
        29        28        48     1      117.626259      325.407223    ;  uncertainty theta = 0.003335, k = 0.154821
        30         1        31     1      107.310501      325.671628    ;  uncertainty theta = 0.003548, k = 0.054329
        30         1        32     1      107.310501      325.671628    ;  uncertainty theta = 0.003548, k = 0.054329
        31         1        32     1      107.310501      325.671628    ;  uncertainty theta = 0.003548, k = 0.054329
        33         4        34     1      112.259262      265.146396    ;  uncertainty theta = 0.011954, k = 0.229436
        35         7        36     1      105.977173      316.034561    ;  uncertainty theta = 0.001782, k = 0.018403
        35         7        37     1      105.977173      316.034561    ;  uncertainty theta = 0.001782, k = 0.018403
        36         7        37     1      105.977173      316.034561    ;  uncertainty theta = 0.001782, k = 0.018403
        38         8        39     1      106.209267      322.786892    ;  uncertainty theta = 0.003922, k = 0.114280
        40         9        41     1      106.429527      312.762236    ;  uncertainty theta = 0.004050, k = 0.139477

[ dihedrals ] ; propers for gromacs 4.5 or higher, use funct 9
;       ai        aj        ak        al funct           phase               k        pn
         1         2         3         4     9        0.000000        0.951551         1    ;  uncertainty k = 1.698473
         1         2         3         4     9      180.000000       11.021390         2    ;  uncertainty k = 0.551113
         1         2         3         4     9        0.000000        0.637398         3    ;  uncertainty k = 0.915553
         1         2         3         4     9      180.000000       -0.314852         4    ;  uncertainty k = 0.319934
         1         2         3         5     9        0.000000        2.577941         1    ;  uncertainty k = 4.018395
         1         2         3         5     9      180.000000        9.754567         2    ;  uncertainty k = 0.895511
         1         2         3         5     9        0.000000       -0.135377         3    ;  uncertainty k = 0.697927
         1         2         3         5     9      180.000000       -0.464172         4    ;  uncertainty k = 0.479429
         1         2        10         9     9        0.000000        2.998792         1    ;  uncertainty k = 1.459777
         1         2        10         9     9      180.000000        4.736235         2    ;  uncertainty k = 0.796593
         1         2        10         9     9        0.000000        0.588787         3    ;  uncertainty k = 0.538972
         1         2        10         9     9      180.000000        0.468451         4    ;  uncertainty k = 0.286842
         1         2        10        11     9        0.000000        2.489503         1    ;  uncertainty k = 2.825473
         1         2        10        11     9      180.000000       12.245924         2    ;  uncertainty k = 0.282254
         1         2        10        11     9        0.000000        0.974939         3    ;  uncertainty k = 0.597413
         1         2        10        11     9      180.000000        0.326277         4    ;  uncertainty k = 0.333660
         2         3         4        33     9        0.000000        8.480672         1    ;  uncertainty k = 3.014674
         2         3         4        33     9      180.000000        9.189303         2    ;  uncertainty k = 0.650778
         2         3         4        33     9        0.000000        0.969831         3    ;  uncertainty k = 0.701973
         2         3         4        33     9      180.000000       -1.138735         4    ;  uncertainty k = 0.488312
         2         3         4        34     9        0.000000        8.480672         1    ;  uncertainty k = 3.014674
         2         3         4        34     9      180.000000        9.189303         2    ;  uncertainty k = 0.650778
         2         3         4        34     9        0.000000        0.969831         3    ;  uncertainty k = 0.701973
         2         3         4        34     9      180.000000       -1.138735         4    ;  uncertainty k = 0.488312
         2         3         5         6     9        0.000000       13.173742         1    ;  uncertainty k = 1.581313
         2         3         5         6     9      180.000000        3.974279         2    ;  uncertainty k = 2.192057
         2         3         5         6     9        0.000000       -0.391199         3    ;  uncertainty k = 0.699426
         2         3         5         6     9      180.000000        0.096404         4    ;  uncertainty k = 0.258751
         2         3         5        49     9        0.000000        3.189848         1    ;  uncertainty k = 2.808644
         2         3         5        49     9      180.000000        9.352453         2    ;  uncertainty k = 1.341893
         2         3         5        49     9        0.000000        1.212714         3    ;  uncertainty k = 1.346302
         2         3         5        49     9      180.000000       -1.082983         4    ;  uncertainty k = 0.440482
         2        10         9         8     9        0.000000        0.848915         1    ;  uncertainty k = 2.158626
         2        10         9         8     9      180.000000        5.868864         2    ;  uncertainty k = 0.876716
         2        10         9         8     9        0.000000       -0.258448         3    ;  uncertainty k = 0.459098
         2        10         9         8     9      180.000000       -0.331677         4    ;  uncertainty k = 0.414136
         2        10         9        40     9        0.000000       -2.240675         1    ;  uncertainty k = 0.699631
         2        10         9        40     9      180.000000        2.160439         2    ;  uncertainty k = 0.404874
         2        10         9        40     9        0.000000        0.224490         3    ;  uncertainty k = 0.276680
         2        10         9        40     9      180.000000        0.096463         4    ;  uncertainty k = 0.069084
         2        10         9        41     9        0.000000       -2.240675         1    ;  uncertainty k = 0.699631
         2        10         9        41     9      180.000000        2.160439         2    ;  uncertainty k = 0.404874
         2        10         9        41     9        0.000000        0.224490         3    ;  uncertainty k = 0.276680
         2        10         9        41     9      180.000000        0.096463         4    ;  uncertainty k = 0.069084
         3         2         1        30     9        0.000000        0.004730         1    ;  uncertainty k = 0.659060
         3         2         1        30     9      180.000000       -0.904790         2    ;  uncertainty k = 0.615566
         3         2         1        30     9        0.000000        0.112158         3    ;  uncertainty k = 0.248692
         3         2         1        30     9      180.000000        0.272116         4    ;  uncertainty k = 0.100229
         3         2         1        31     9        0.000000        0.004730         1    ;  uncertainty k = 0.659060
         3         2         1        31     9      180.000000       -0.904790         2    ;  uncertainty k = 0.615566
         3         2         1        31     9        0.000000        0.112158         3    ;  uncertainty k = 0.248692
         3         2         1        31     9      180.000000        0.272116         4    ;  uncertainty k = 0.100229
         3         2         1        32     9        0.000000        0.004730         1    ;  uncertainty k = 0.659060
         3         2         1        32     9      180.000000       -0.904790         2    ;  uncertainty k = 0.615566
         3         2         1        32     9        0.000000        0.112158         3    ;  uncertainty k = 0.248692
         3         2         1        32     9      180.000000        0.272116         4    ;  uncertainty k = 0.100229
         3         2        10         9     9        0.000000        9.076439         1    ;  uncertainty k = 2.183994
         3         2        10         9     9      180.000000       -2.227940         2    ;  uncertainty k = 3.017098
         3         2        10         9     9        0.000000       -0.812394         3    ;  uncertainty k = 0.675846
         3         2        10         9     9      180.000000        0.479154         4    ;  uncertainty k = 0.258438
         3         2        10        11     9        0.000000        7.306875         1    ;  uncertainty k = 1.274709
         3         2        10        11     9      180.000000        7.400645         2    ;  uncertainty k = 0.953584
         3         2        10        11     9        0.000000        0.980084         3    ;  uncertainty k = 0.408672
         3         2        10        11     9      180.000000        0.382119         4    ;  uncertainty k = 0.238421
         3         5         6         7     9        0.000000       -2.311657         1    ;  uncertainty k = 1.839640
         3         5         6         7     9      180.000000        0.484251         2    ;  uncertainty k = 1.367911
         3         5         6         7     9        0.000000        0.179340         3    ;  uncertainty k = 0.312996
         3         5         6         7     9      180.000000        0.145678         4    ;  uncertainty k = 0.264749
         3         5         6         8     9        0.000000        6.121982         1    ;  uncertainty k = 2.553139
         3         5         6         8     9      180.000000        1.690279         2    ;  uncertainty k = 1.138502
         3         5         6         8     9        0.000000       -0.631741         3    ;  uncertainty k = 0.476919
         3         5         6         8     9      180.000000       -0.251151         4    ;  uncertainty k = 0.270463
         3         5         6        12     9        0.000000       -0.159080         1    ;  uncertainty k = 1.167092
         3         5         6        12     9      180.000000       -0.403352         2    ;  uncertainty k = 0.649315
         3         5         6        12     9        0.000000       -0.035675         3    ;  uncertainty k = 0.149916
         3         5         6        12     9      180.000000        0.145270         4    ;  uncertainty k = 0.333430
         4         3         2        10     9        0.000000        2.488486         1    ;  uncertainty k = 2.538627
         4         3         2        10     9      180.000000        3.788044         2    ;  uncertainty k = 1.317538
         4         3         2        10     9        0.000000       -0.103364         3    ;  uncertainty k = 0.521658
         4         3         2        10     9      180.000000       -0.063596         4    ;  uncertainty k = 0.395872
         4         3         5         6     9        0.000000        6.232866         1    ;  uncertainty k = 2.095378
         4         3         5         6     9      180.000000        7.845572         2    ;  uncertainty k = 1.279283
         4         3         5         6     9        0.000000        0.444476         3    ;  uncertainty k = 0.400532
         4         3         5         6     9      180.000000       -0.533349         4    ;  uncertainty k = 0.394875
         4         3         5        49     9        0.000000        2.736624         1    ;  uncertainty k = 3.841034
         4         3         5        49     9      180.000000       10.698326         2    ;  uncertainty k = 0.431066
         4         3         5        49     9        0.000000        1.592982         3    ;  uncertainty k = 0.915922
         4         3         5        49     9      180.000000       -0.612913         4    ;  uncertainty k = 0.270695
         5         3         2        10     9        0.000000       14.249517         1    ;  uncertainty k = 1.624851
         5         3         2        10     9      180.000000        1.429594         2    ;  uncertainty k = 1.832467
         5         3         2        10     9        0.000000       -1.712453         3    ;  uncertainty k = 0.396966
         5         3         2        10     9      180.000000        0.238758         4    ;  uncertainty k = 0.810790
         5         3         4        33     9        0.000000        5.763904         1    ;  uncertainty k = 3.279140
         5         3         4        33     9      180.000000        9.379464         2    ;  uncertainty k = 0.551621
         5         3         4        33     9        0.000000        1.122057         3    ;  uncertainty k = 0.481671
         5         3         4        33     9      180.000000       -0.826898         4    ;  uncertainty k = 0.491887
         5         3         4        34     9        0.000000        5.763904         1    ;  uncertainty k = 3.279140
         5         3         4        34     9      180.000000        9.379464         2    ;  uncertainty k = 0.551621
         5         3         4        34     9        0.000000        1.122057         3    ;  uncertainty k = 0.481671
         5         3         4        34     9      180.000000       -0.826898         4    ;  uncertainty k = 0.491887
         5         6         7        35     9        0.000000       -1.066568         1    ;  uncertainty k = 0.311888
         5         6         7        35     9      180.000000       -1.494514         2    ;  uncertainty k = 0.784918
         5         6         7        35     9        0.000000        0.848349         3    ;  uncertainty k = 0.173252
         5         6         7        35     9      180.000000       -0.198133         4    ;  uncertainty k = 0.183842
         5         6         7        36     9        0.000000       -1.066568         1    ;  uncertainty k = 0.311888
         5         6         7        36     9      180.000000       -1.494514         2    ;  uncertainty k = 0.784918
         5         6         7        36     9        0.000000        0.848349         3    ;  uncertainty k = 0.173252
         5         6         7        36     9      180.000000       -0.198133         4    ;  uncertainty k = 0.183842
         5         6         7        37     9        0.000000       -1.066568         1    ;  uncertainty k = 0.311888
         5         6         7        37     9      180.000000       -1.494514         2    ;  uncertainty k = 0.784918
         5         6         7        37     9        0.000000        0.848349         3    ;  uncertainty k = 0.173252
         5         6         7        37     9      180.000000       -0.198133         4    ;  uncertainty k = 0.183842
         5         6         8         9     9        0.000000        5.738306         1    ;  uncertainty k = 2.360436
         5         6         8         9     9      180.000000        2.367061         2    ;  uncertainty k = 1.555548
         5         6         8         9     9        0.000000        0.679972         3    ;  uncertainty k = 0.584877
         5         6         8         9     9      180.000000       -0.412176         4    ;  uncertainty k = 0.213282
         5         6         8        38     9        0.000000       -0.742189         1    ;  uncertainty k = 0.580060
         5         6         8        38     9      180.000000       -0.978354         2    ;  uncertainty k = 0.467690
         5         6         8        38     9        0.000000        0.178179         3    ;  uncertainty k = 0.122199
         5         6         8        38     9      180.000000       -0.092352         4    ;  uncertainty k = 0.215306
         5         6         8        39     9        0.000000       -0.742189         1    ;  uncertainty k = 0.580060
         5         6         8        39     9      180.000000       -0.978354         2    ;  uncertainty k = 0.467690
         5         6         8        39     9        0.000000        0.178179         3    ;  uncertainty k = 0.122199
         5         6         8        39     9      180.000000       -0.092352         4    ;  uncertainty k = 0.215306
         5         6        12        13     9        0.000000       -0.114864         1    ;  uncertainty k = 1.293514
         5         6        12        13     9      180.000000        2.916773         2    ;  uncertainty k = 0.421430
         5         6        12        13     9        0.000000       -0.007830         3    ;  uncertainty k = 0.274605
         5         6        12        13     9      180.000000        0.251943         4    ;  uncertainty k = 0.145613
         5         6        12        17     9        0.000000       -0.054006         1    ;  uncertainty k = 1.686711
         5         6        12        17     9      180.000000        2.263003         2    ;  uncertainty k = 1.198011
         5         6        12        17     9        0.000000        0.553929         3    ;  uncertainty k = 0.392540
         5         6        12        17     9      180.000000        0.190259         4    ;  uncertainty k = 0.031587
         6         8         9        10     9        0.000000        6.284549         1    ;  uncertainty k = 2.303713
         6         8         9        10     9      180.000000        0.738779         2    ;  uncertainty k = 2.227119
         6         8         9        10     9        0.000000        0.250042         3    ;  uncertainty k = 0.841620
         6         8         9        10     9      180.000000       -0.400584         4    ;  uncertainty k = 0.150071
         6         8         9        40     9        0.000000        0.253965         1    ;  uncertainty k = 0.498435
         6         8         9        40     9      180.000000       -0.695175         2    ;  uncertainty k = 0.524386
         6         8         9        40     9        0.000000        0.574503         3    ;  uncertainty k = 0.379673
         6         8         9        40     9      180.000000       -0.101683         4    ;  uncertainty k = 0.105009
         6         8         9        41     9        0.000000        0.253965         1    ;  uncertainty k = 0.498435
         6         8         9        41     9      180.000000       -0.695175         2    ;  uncertainty k = 0.524386
         6         8         9        41     9        0.000000        0.574503         3    ;  uncertainty k = 0.379673
         6         8         9        41     9      180.000000       -0.101683         4    ;  uncertainty k = 0.105009
         6        12        13        14     9        0.000000        0.196862         1    ;  uncertainty k = 0.259118
         6        12        13        14     9      180.000000        8.056278         2    ;  uncertainty k = 0.442424
         6        12        13        14     9        0.000000        1.537000         3    ;  uncertainty k = 0.265047
         6        12        13        14     9      180.000000        1.944923         4    ;  uncertainty k = 0.219197
         6        12        13        42     9        0.000000        0.134606         1    ;  uncertainty k = 0.159981
         6        12        13        42     9      180.000000        7.780478         2    ;  uncertainty k = 0.231732
         6        12        13        42     9        0.000000        0.658026         3    ;  uncertainty k = 0.368605
         6        12        13        42     9      180.000000        1.076312         4    ;  uncertainty k = 0.148581
         6        12        17        16     9        0.000000        0.587979         1    ;  uncertainty k = 0.570259
         6        12        17        16     9      180.000000        6.565547         2    ;  uncertainty k = 0.118016
         6        12        17        16     9        0.000000        1.125495         3    ;  uncertainty k = 0.165124
         6        12        17        16     9      180.000000        1.638939         4    ;  uncertainty k = 0.202891
         6        12        17        18     9        0.000000        0.115111         1    ;  uncertainty k = 0.284947
         6        12        17        18     9      180.000000       10.269329         2    ;  uncertainty k = 0.372705
         6        12        17        18     9        0.000000        1.015671         3    ;  uncertainty k = 0.265813
         6        12        17        18     9      180.000000        1.292632         4    ;  uncertainty k = 0.165754
         7         6         5        49     9        0.000000        0.188212         1    ;  uncertainty k = 0.907464
         7         6         5        49     9      180.000000       -0.833502         2    ;  uncertainty k = 0.486975
         7         6         5        49     9        0.000000        0.483901         3    ;  uncertainty k = 0.237092
         7         6         5        49     9      180.000000        0.216911         4    ;  uncertainty k = 0.086885
         7         6         8         9     9        0.000000       -2.542885         1    ;  uncertainty k = 1.347726
         7         6         8         9     9      180.000000        1.424770         2    ;  uncertainty k = 0.658004
         7         6         8         9     9        0.000000        0.253998         3    ;  uncertainty k = 0.328828
         7         6         8         9     9      180.000000       -0.106043         4    ;  uncertainty k = 0.131544
         7         6         8        38     9        0.000000       -0.972446         1    ;  uncertainty k = 0.364717
         7         6         8        38     9      180.000000        0.267196         2    ;  uncertainty k = 0.300813
         7         6         8        38     9        0.000000        0.370641         3    ;  uncertainty k = 0.079448
         7         6         8        38     9      180.000000       -0.070108         4    ;  uncertainty k = 0.076946
         7         6         8        39     9        0.000000       -0.972446         1    ;  uncertainty k = 0.364717
         7         6         8        39     9      180.000000        0.267196         2    ;  uncertainty k = 0.300813
         7         6         8        39     9        0.000000        0.370641         3    ;  uncertainty k = 0.079448
         7         6         8        39     9      180.000000       -0.070108         4    ;  uncertainty k = 0.076946
         7         6        12        13     9        0.000000       -0.513928         1    ;  uncertainty k = 0.689948
         7         6        12        13     9      180.000000        2.798233         2    ;  uncertainty k = 0.345727
         7         6        12        13     9        0.000000        0.076159         3    ;  uncertainty k = 0.194004
         7         6        12        13     9      180.000000        0.208707         4    ;  uncertainty k = 0.159213
         7         6        12        17     9        0.000000       -0.078864         1    ;  uncertainty k = 0.342801
         7         6        12        17     9      180.000000        2.707417         2    ;  uncertainty k = 0.431466
         7         6        12        17     9        0.000000        0.605138         3    ;  uncertainty k = 0.122737
         7         6        12        17     9      180.000000        0.225734         4    ;  uncertainty k = 0.054459
         8         6         5        49     9        0.000000       -0.728195         1    ;  uncertainty k = 1.383285
         8         6         5        49     9      180.000000       -2.231858         2    ;  uncertainty k = 1.093815
         8         6         5        49     9        0.000000        0.045356         3    ;  uncertainty k = 0.363652
         8         6         5        49     9      180.000000        0.232165         4    ;  uncertainty k = 0.105805
         8         6         7        35     9        0.000000       -0.850394         1    ;  uncertainty k = 0.789261
         8         6         7        35     9      180.000000       -0.412261         2    ;  uncertainty k = 0.222465
         8         6         7        35     9        0.000000        0.707021         3    ;  uncertainty k = 0.150824
         8         6         7        35     9      180.000000       -0.094141         4    ;  uncertainty k = 0.065682
         8         6         7        36     9        0.000000       -0.850394         1    ;  uncertainty k = 0.789261
         8         6         7        36     9      180.000000       -0.412261         2    ;  uncertainty k = 0.222465
         8         6         7        36     9        0.000000        0.707021         3    ;  uncertainty k = 0.150824
         8         6         7        36     9      180.000000       -0.094141         4    ;  uncertainty k = 0.065682
         8         6         7        37     9        0.000000       -0.850394         1    ;  uncertainty k = 0.789261
         8         6         7        37     9      180.000000       -0.412261         2    ;  uncertainty k = 0.222465
         8         6         7        37     9        0.000000        0.707021         3    ;  uncertainty k = 0.150824
         8         6         7        37     9      180.000000       -0.094141         4    ;  uncertainty k = 0.065682
         8         6        12        13     9        0.000000       -0.432638         1    ;  uncertainty k = 0.300896
         8         6        12        13     9      180.000000        2.918252         2    ;  uncertainty k = 0.384587
         8         6        12        13     9        0.000000        0.020662         3    ;  uncertainty k = 0.296216
         8         6        12        13     9      180.000000        0.282039         4    ;  uncertainty k = 0.042213
         8         6        12        17     9        0.000000       -0.488621         1    ;  uncertainty k = 0.470815
         8         6        12        17     9      180.000000        3.238693         2    ;  uncertainty k = 0.495350
         8         6        12        17     9        0.000000        0.516380         3    ;  uncertainty k = 0.144705
         8         6        12        17     9      180.000000        0.244990         4    ;  uncertainty k = 0.090416
         8         9        10        11     9        0.000000       -1.417159         1    ;  uncertainty k = 1.398150
         8         9        10        11     9      180.000000        2.175251         2    ;  uncertainty k = 0.912133
         8         9        10        11     9        0.000000        1.502620         3    ;  uncertainty k = 0.366532
         8         9        10        11     9      180.000000        0.044903         4    ;  uncertainty k = 0.298947
         9         8         6        12     9        0.000000       -1.130574         1    ;  uncertainty k = 0.906407
         9         8         6        12     9      180.000000        0.314191         2    ;  uncertainty k = 0.545103
         9         8         6        12     9        0.000000        0.486814         3    ;  uncertainty k = 0.346118
         9         8         6        12     9      180.000000       -0.077411         4    ;  uncertainty k = 0.084341
        10         2         1        30     9        0.000000       -0.143880         1    ;  uncertainty k = 0.460664
        10         2         1        30     9      180.000000       -0.517503         2    ;  uncertainty k = 0.259321
        10         2         1        30     9        0.000000        0.428362         3    ;  uncertainty k = 0.205180
        10         2         1        30     9      180.000000        0.421241         4    ;  uncertainty k = 0.045065
        10         2         1        31     9        0.000000       -0.143880         1    ;  uncertainty k = 0.460664
        10         2         1        31     9      180.000000       -0.517503         2    ;  uncertainty k = 0.259321
        10         2         1        31     9        0.000000        0.428362         3    ;  uncertainty k = 0.205180
        10         2         1        31     9      180.000000        0.421241         4    ;  uncertainty k = 0.045065
        10         2         1        32     9        0.000000       -0.143880         1    ;  uncertainty k = 0.460664
        10         2         1        32     9      180.000000       -0.517503         2    ;  uncertainty k = 0.259321
        10         2         1        32     9        0.000000        0.428362         3    ;  uncertainty k = 0.205180
        10         2         1        32     9      180.000000        0.421241         4    ;  uncertainty k = 0.045065
        10         9         8        38     9        0.000000        0.036041         1    ;  uncertainty k = 0.236511
        10         9         8        38     9      180.000000       -0.592542         2    ;  uncertainty k = 0.216384
        10         9         8        38     9        0.000000        0.426773         3    ;  uncertainty k = 0.148982
        10         9         8        38     9      180.000000       -0.037879         4    ;  uncertainty k = 0.118443
        10         9         8        39     9        0.000000        0.036041         1    ;  uncertainty k = 0.236511
        10         9         8        39     9      180.000000       -0.592542         2    ;  uncertainty k = 0.216384
        10         9         8        39     9        0.000000        0.426773         3    ;  uncertainty k = 0.148982
        10         9         8        39     9      180.000000       -0.037879         4    ;  uncertainty k = 0.118443
        11        10         9        40     9        0.000000        0.494340         1    ;  uncertainty k = 0.928791
        11        10         9        40     9      180.000000        4.564392         2    ;  uncertainty k = 0.661122
        11        10         9        40     9        0.000000        0.415769         3    ;  uncertainty k = 0.100891
        11        10         9        40     9      180.000000        0.351611         4    ;  uncertainty k = 0.126070
        11        10         9        41     9        0.000000        0.494340         1    ;  uncertainty k = 0.928791
        11        10         9        41     9      180.000000        4.564392         2    ;  uncertainty k = 0.661122
        11        10         9        41     9        0.000000        0.415769         3    ;  uncertainty k = 0.100891
        11        10         9        41     9      180.000000        0.351611         4    ;  uncertainty k = 0.126070
        12         6         5        49     9        0.000000        2.738643         1    ;  uncertainty k = 1.095359
        12         6         5        49     9      180.000000       -2.160755         2    ;  uncertainty k = 1.226842
        12         6         5        49     9        0.000000        0.013103         3    ;  uncertainty k = 0.217215
        12         6         5        49     9      180.000000        0.072551         4    ;  uncertainty k = 0.117205
        12         6         7        35     9        0.000000        0.754706         1    ;  uncertainty k = 0.434329
        12         6         7        35     9      180.000000       -0.572774         2    ;  uncertainty k = 0.310508
        12         6         7        35     9        0.000000        0.807842         3    ;  uncertainty k = 0.143751
        12         6         7        35     9      180.000000       -0.028051         4    ;  uncertainty k = 0.103952
        12         6         7        36     9        0.000000        0.754706         1    ;  uncertainty k = 0.434329
        12         6         7        36     9      180.000000       -0.572774         2    ;  uncertainty k = 0.310508
        12         6         7        36     9        0.000000        0.807842         3    ;  uncertainty k = 0.143751
        12         6         7        36     9      180.000000       -0.028051         4    ;  uncertainty k = 0.103952
        12         6         7        37     9        0.000000        0.754706         1    ;  uncertainty k = 0.434329
        12         6         7        37     9      180.000000       -0.572774         2    ;  uncertainty k = 0.310508
        12         6         7        37     9        0.000000        0.807842         3    ;  uncertainty k = 0.143751
        12         6         7        37     9      180.000000       -0.028051         4    ;  uncertainty k = 0.103952
        12         6         8        38     9        0.000000        0.646506         1    ;  uncertainty k = 0.241710
        12         6         8        38     9      180.000000       -0.113620         2    ;  uncertainty k = 0.429908
        12         6         8        38     9        0.000000        0.511031         3    ;  uncertainty k = 0.295736
        12         6         8        38     9      180.000000       -0.113116         4    ;  uncertainty k = 0.066532
        12         6         8        39     9        0.000000        0.646506         1    ;  uncertainty k = 0.241710
        12         6         8        39     9      180.000000       -0.113620         2    ;  uncertainty k = 0.429908
        12         6         8        39     9        0.000000        0.511031         3    ;  uncertainty k = 0.295736
        12         6         8        39     9      180.000000       -0.113116         4    ;  uncertainty k = 0.066532
        12        13        14        15     9        0.000000       -0.010316         1    ;  uncertainty k = 0.340612
        12        13        14        15     9      180.000000        7.949865         2    ;  uncertainty k = 0.451219
        12        13        14        15     9        0.000000        0.228806         3    ;  uncertainty k = 0.292855
        12        13        14        15     9      180.000000        1.318635         4    ;  uncertainty k = 0.280762
        12        13        14        19     9        0.000000        0.233595         1    ;  uncertainty k = 0.278194
        12        13        14        19     9      180.000000        9.149991         2    ;  uncertainty k = 0.548577
        12        13        14        19     9        0.000000        1.216738         3    ;  uncertainty k = 0.437061
        12        13        14        19     9      180.000000        1.644669         4    ;  uncertainty k = 0.327385
        12        17        16        15     9        0.000000        0.029899         1    ;  uncertainty k = 0.115710
        12        17        16        15     9      180.000000        7.965079         2    ;  uncertainty k = 0.470995
        12        17        16        15     9        0.000000        0.187080         3    ;  uncertainty k = 0.306529
        12        17        16        15     9      180.000000        1.323606         4    ;  uncertainty k = 0.180828
        12        17        16        44     9        0.000000       -0.020563         1    ;  uncertainty k = 0.383082
        12        17        16        44     9      180.000000        5.475933         2    ;  uncertainty k = 0.710188
        12        17        16        44     9        0.000000        1.205988         3    ;  uncertainty k = 0.247086
        12        17        16        44     9      180.000000        1.435550         4    ;  uncertainty k = 0.153297
        13        12        17        16     9        0.000000       -0.380058         1    ;  uncertainty k = 0.363857
        13        12        17        16     9      180.000000        6.653526         2    ;  uncertainty k = 0.460543
        13        12        17        16     9        0.000000        0.216808         3    ;  uncertainty k = 0.343422
        13        12        17        16     9      180.000000        1.208057         4    ;  uncertainty k = 0.326578
        13        12        17        18     9        0.000000        0.054053         1    ;  uncertainty k = 0.305417
        13        12        17        18     9      180.000000       11.303664         2    ;  uncertainty k = 0.415713
        13        12        17        18     9        0.000000        1.459364         3    ;  uncertainty k = 0.210148
        13        12        17        18     9      180.000000        1.436573         4    ;  uncertainty k = 0.223069
        13        14        15        16     9        0.000000       -0.171353         1    ;  uncertainty k = 0.174808
        13        14        15        16     9      180.000000        9.718540         2    ;  uncertainty k = 0.402886
        13        14        15        16     9        0.000000       -0.057607         3    ;  uncertainty k = 0.164669
        13        14        15        16     9      180.000000        1.216978         4    ;  uncertainty k = 0.258779
        13        14        15        43     9        0.000000        0.192829         1    ;  uncertainty k = 0.336673
        13        14        15        43     9      180.000000        6.961247         2    ;  uncertainty k = 0.446270
        13        14        15        43     9        0.000000        1.228741         3    ;  uncertainty k = 0.336490
        13        14        15        43     9      180.000000        1.523698         4    ;  uncertainty k = 0.125957
        13        14        19        20     9        0.000000        1.251258         1    ;  uncertainty k = 0.623508
        13        14        19        20     9      180.000000        4.966617         2    ;  uncertainty k = 0.204065
        13        14        19        20     9        0.000000        0.970709         3    ;  uncertainty k = 0.151575
        13        14        19        20     9      180.000000        0.063699         4    ;  uncertainty k = 0.069082
        13        14        19        45     9        0.000000        1.084946         1    ;  uncertainty k = 1.344235
        13        14        19        45     9      180.000000        3.744958         2    ;  uncertainty k = 0.174152
        13        14        19        45     9        0.000000        0.699075         3    ;  uncertainty k = 0.081227
        13        14        19        45     9      180.000000        0.551089         4    ;  uncertainty k = 0.100666
        14        13        12        17     9        0.000000       -0.150602         1    ;  uncertainty k = 0.170297
        14        13        12        17     9      180.000000       11.403379         2    ;  uncertainty k = 0.327897
        14        13        12        17     9        0.000000        0.059286         3    ;  uncertainty k = 0.444270
        14        13        12        17     9      180.000000        1.065184         4    ;  uncertainty k = 0.361772
        14        15        16        17     9        0.000000       -0.123278         1    ;  uncertainty k = 0.282288
        14        15        16        17     9      180.000000       14.299147         2    ;  uncertainty k = 0.354274
        14        15        16        17     9        0.000000       -0.775677         3    ;  uncertainty k = 0.544842
        14        15        16        17     9      180.000000        0.810871         4    ;  uncertainty k = 0.283586
        14        15        16        44     9        0.000000        0.083183         1    ;  uncertainty k = 0.373342
        14        15        16        44     9      180.000000        8.009087         2    ;  uncertainty k = 0.383735
        14        15        16        44     9        0.000000        1.305775         3    ;  uncertainty k = 0.314181
        14        15        16        44     9      180.000000        1.773327         4    ;  uncertainty k = 0.114454
        14        19        20        21     9        0.000000        3.158474         1    ;  uncertainty k = 0.678712
        14        19        20        21     9      180.000000       14.150262         2    ;  uncertainty k = 0.250762
        14        19        20        21     9        0.000000        0.788258         3    ;  uncertainty k = 0.149562
        14        19        20        21     9      180.000000       -0.660070         4    ;  uncertainty k = 0.353442
        14        19        20        22     9        0.000000        4.280560         1    ;  uncertainty k = 1.229580
        14        19        20        22     9      180.000000       11.758161         2    ;  uncertainty k = 0.153192
        14        19        20        22     9        0.000000        2.233418         3    ;  uncertainty k = 0.279672
        14        19        20        22     9      180.000000       -1.439525         4    ;  uncertainty k = 0.255058
        15        14        13        42     9        0.000000        0.144855         1    ;  uncertainty k = 0.249365
        15        14        13        42     9      180.000000        6.805708         2    ;  uncertainty k = 0.526283
        15        14        13        42     9        0.000000        1.312746         3    ;  uncertainty k = 0.254047
        15        14        13        42     9      180.000000        1.539192         4    ;  uncertainty k = 0.174338
        15        14        19        20     9        0.000000        1.234640         1    ;  uncertainty k = 0.276615
        15        14        19        20     9      180.000000        4.748235         2    ;  uncertainty k = 0.112910
        15        14        19        20     9        0.000000        1.116356         3    ;  uncertainty k = 0.168078
        15        14        19        20     9      180.000000        0.088010         4    ;  uncertainty k = 0.042905
        15        14        19        45     9        0.000000        0.549977         1    ;  uncertainty k = 1.240561
        15        14        19        45     9      180.000000        3.620147         2    ;  uncertainty k = 0.147256
        15        14        19        45     9        0.000000        0.740631         3    ;  uncertainty k = 0.148955
        15        14        19        45     9      180.000000        0.614374         4    ;  uncertainty k = 0.157380
        15        16        17        18     9        0.000000       -0.082345         1    ;  uncertainty k = 0.302604
        15        16        17        18     9      180.000000       12.733004         2    ;  uncertainty k = 0.538024
        15        16        17        18     9        0.000000        1.382698         3    ;  uncertainty k = 0.358209
        15        16        17        18     9      180.000000        1.579546         4    ;  uncertainty k = 0.274125
        16        15        14        19     9        0.000000        0.094534         1    ;  uncertainty k = 0.135759
        16        15        14        19     9      180.000000       10.419405         2    ;  uncertainty k = 0.512381
        16        15        14        19     9        0.000000        1.064333         3    ;  uncertainty k = 0.483335
        16        15        14        19     9      180.000000        1.649547         4    ;  uncertainty k = 0.181798
        17        12        13        42     9        0.000000        0.197539         1    ;  uncertainty k = 0.138491
        17        12        13        42     9      180.000000        8.378787         2    ;  uncertainty k = 0.254516
        17        12        13        42     9        0.000000        1.488710         3    ;  uncertainty k = 0.300180
        17        12        13        42     9      180.000000        1.716653         4    ;  uncertainty k = 0.069674
        17        16        15        43     9        0.000000        0.020242         1    ;  uncertainty k = 0.314023
        17        16        15        43     9      180.000000        8.062499         2    ;  uncertainty k = 0.265987
        17        16        15        43     9        0.000000        1.338631         3    ;  uncertainty k = 0.339125
        17        16        15        43     9      180.000000        1.801138         4    ;  uncertainty k = 0.131335
        18        17        16        44     9        0.000000       -0.329096         1    ;  uncertainty k = 0.370432
        18        17        16        44     9      180.000000        9.331346         2    ;  uncertainty k = 0.322702
        18        17        16        44     9        0.000000        0.817192         3    ;  uncertainty k = 0.174442
        18        17        16        44     9      180.000000        1.068788         4    ;  uncertainty k = 0.119318
        19        14        13        42     9        0.000000        0.012935         1    ;  uncertainty k = 0.310694
        19        14        13        42     9      180.000000        8.570553         2    ;  uncertainty k = 0.508112
        19        14        13        42     9        0.000000        0.811825         3    ;  uncertainty k = 0.168325
        19        14        13        42     9      180.000000        1.269987         4    ;  uncertainty k = 0.241015
        19        14        15        43     9        0.000000       -0.226390         1    ;  uncertainty k = 0.212402
        19        14        15        43     9      180.000000        8.551801         2    ;  uncertainty k = 0.486538
        19        14        15        43     9        0.000000        0.833276         3    ;  uncertainty k = 0.228582
        19        14        15        43     9      180.000000        1.177073         4    ;  uncertainty k = 0.200327
        19        20        22        23     9        0.000000       -0.573164         1    ;  uncertainty k = 0.793980
        19        20        22        23     9      180.000000        3.064216         2    ;  uncertainty k = 0.234701
        19        20        22        23     9        0.000000        0.195325         3    ;  uncertainty k = 0.168992
        19        20        22        23     9      180.000000        0.007833         4    ;  uncertainty k = 0.120864
        19        20        22        29     9        0.000000        2.375606         1    ;  uncertainty k = 1.506752
        19        20        22        29     9      180.000000        3.742024         2    ;  uncertainty k = 0.338616
        19        20        22        29     9        0.000000        0.209655         3    ;  uncertainty k = 0.416866
        19        20        22        29     9      180.000000        0.208278         4    ;  uncertainty k = 0.094854
        20        22        23        24     9        0.000000        0.007343         1    ;  uncertainty k = 0.411369
        20        22        23        24     9      180.000000        7.814028         2    ;  uncertainty k = 0.574511
        20        22        23        24     9        0.000000        1.202522         3    ;  uncertainty k = 0.263090
        20        22        23        24     9      180.000000        1.612403         4    ;  uncertainty k = 0.259655
        20        22        23        46     9        0.000000       -0.302389         1    ;  uncertainty k = 0.887283
        20        22        23        46     9      180.000000        6.847856         2    ;  uncertainty k = 0.586837
        20        22        23        46     9        0.000000        0.833352         3    ;  uncertainty k = 0.332479
        20        22        23        46     9      180.000000        0.935062         4    ;  uncertainty k = 0.302092
        20        22        29        28     9        0.000000        0.583607         1    ;  uncertainty k = 1.590902
        20        22        29        28     9      180.000000       13.112861         2    ;  uncertainty k = 0.466803
        20        22        29        28     9        0.000000        2.659121         3    ;  uncertainty k = 0.323322
        20        22        29        28     9      180.000000        1.649354         4    ;  uncertainty k = 0.468871
        21        20        19        45     9        0.000000        1.015516         1    ;  uncertainty k = 1.186779
        21        20        19        45     9      180.000000       12.894944         2    ;  uncertainty k = 0.598824
        21        20        19        45     9        0.000000        2.352543         3    ;  uncertainty k = 0.473363
        21        20        19        45     9      180.000000        0.106767         4    ;  uncertainty k = 0.238564
        21        20        22        23     9        0.000000       -1.076900         1    ;  uncertainty k = 0.441759
        21        20        22        23     9      180.000000        3.212519         2    ;  uncertainty k = 0.116135
        21        20        22        23     9        0.000000        0.431644         3    ;  uncertainty k = 0.336937
        21        20        22        23     9      180.000000       -0.007784         4    ;  uncertainty k = 0.063838
        21        20        22        29     9        0.000000       -2.875747         1    ;  uncertainty k = 1.849863
        21        20        22        29     9      180.000000        3.960683         2    ;  uncertainty k = 0.734801
        21        20        22        29     9        0.000000        0.599464         3    ;  uncertainty k = 0.254848
        21        20        22        29     9      180.000000        0.099120         4    ;  uncertainty k = 0.122641
        22        20        19        45     9        0.000000        1.242210         1    ;  uncertainty k = 1.334117
        22        20        19        45     9      180.000000        5.293101         2    ;  uncertainty k = 0.561384
        22        20        19        45     9        0.000000        1.891764         3    ;  uncertainty k = 0.457032
        22        20        19        45     9      180.000000        0.327472         4    ;  uncertainty k = 0.155215
        22        23        24        25     9        0.000000       -0.121097         1    ;  uncertainty k = 0.469058
        22        23        24        25     9      180.000000       13.550959         2    ;  uncertainty k = 0.235743
        22        23        24        25     9        0.000000       -0.756108         3    ;  uncertainty k = 0.335654
        22        23        24        25     9      180.000000        0.799918         4    ;  uncertainty k = 0.155475
        22        23        24        47     9        0.000000       -0.107032         1    ;  uncertainty k = 0.130573
        22        23        24        47     9      180.000000        8.171718         2    ;  uncertainty k = 0.450235
        22        23        24        47     9        0.000000        1.194439         3    ;  uncertainty k = 0.234666
        22        23        24        47     9      180.000000        1.510031         4    ;  uncertainty k = 0.137238
        22        29        28        25     9        0.000000       -0.431360         1    ;  uncertainty k = 0.569289
        22        29        28        25     9      180.000000       14.346598         2    ;  uncertainty k = 0.295972
        22        29        28        25     9        0.000000        1.263902         3    ;  uncertainty k = 0.598407
        22        29        28        25     9      180.000000        1.400695         4    ;  uncertainty k = 0.257775
        22        29        28        48     9        0.000000        0.295588         1    ;  uncertainty k = 0.583415
        22        29        28        48     9      180.000000       15.536544         2    ;  uncertainty k = 0.312629
        22        29        28        48     9        0.000000        2.183951         3    ;  uncertainty k = 0.594422
        22        29        28        48     9      180.000000        1.477465         4    ;  uncertainty k = 0.271622
        23        22        29        28     9        0.000000       -0.495826         1    ;  uncertainty k = 0.291262
        23        22        29        28     9      180.000000       12.278980         2    ;  uncertainty k = 0.339542
        23        22        29        28     9        0.000000        1.557759         3    ;  uncertainty k = 0.538309
        23        22        29        28     9      180.000000        1.284910         4    ;  uncertainty k = 0.261053
        23        24        25        26     9        0.000000        0.028066         1    ;  uncertainty k = 0.099121
        23        24        25        26     9      180.000000       10.305759         2    ;  uncertainty k = 0.240339
        23        24        25        26     9        0.000000        1.296065         3    ;  uncertainty k = 0.314772
        23        24        25        26     9      180.000000        1.442703         4    ;  uncertainty k = 0.095348
        23        24        25        28     9        0.000000       -0.099384         1    ;  uncertainty k = 0.187521
        23        24        25        28     9      180.000000       11.340527         2    ;  uncertainty k = 0.410633
        23        24        25        28     9        0.000000       -0.721004         3    ;  uncertainty k = 0.345912
        23        24        25        28     9      180.000000        0.839279         4    ;  uncertainty k = 0.357111
        24        23        22        29     9        0.000000       -0.211004         1    ;  uncertainty k = 0.204157
        24        23        22        29     9      180.000000       11.240587         2    ;  uncertainty k = 0.420100
        24        23        22        29     9        0.000000       -0.217589         3    ;  uncertainty k = 0.195307
        24        23        22        29     9      180.000000        1.162024         4    ;  uncertainty k = 0.190886
        24        25        26        27     9        0.000000        0.000000         1    ;  uncertainty k = 0.000000
        24        25        26        27     9      180.000000        0.000000         2    ;  uncertainty k = 0.000000
        24        25        26        27     9        0.000000        0.000000         3    ;  uncertainty k = 0.000000
        24        25        26        27     9      180.000000        0.000000         4    ;  uncertainty k = 0.000000
        24        25        28        29     9        0.000000       -0.395659         1    ;  uncertainty k = 0.272620
        24        25        28        29     9      180.000000       11.791068         2    ;  uncertainty k = 0.548692
        24        25        28        29     9        0.000000       -0.643212         3    ;  uncertainty k = 0.601270
        24        25        28        29     9      180.000000        1.094128         4    ;  uncertainty k = 0.164600
        24        25        28        48     9        0.000000       -0.261930         1    ;  uncertainty k = 0.302680
        24        25        28        48     9      180.000000        4.964235         2    ;  uncertainty k = 0.925782
        24        25        28        48     9        0.000000        0.984066         3    ;  uncertainty k = 0.066024
        24        25        28        48     9      180.000000        1.321595         4    ;  uncertainty k = 0.185914
        25        24        23        46     9        0.000000        0.154226         1    ;  uncertainty k = 0.281401
        25        24        23        46     9      180.000000        8.639007         2    ;  uncertainty k = 0.402183
        25        24        23        46     9        0.000000        1.255352         3    ;  uncertainty k = 0.449510
        25        24        23        46     9      180.000000        1.786934         4    ;  uncertainty k = 0.143907
        26        25        24        47     9        0.000000       -0.430703         1    ;  uncertainty k = 0.853819
        26        25        24        47     9      180.000000        7.185223         2    ;  uncertainty k = 0.288214
        26        25        24        47     9        0.000000        0.559582         3    ;  uncertainty k = 0.183885
        26        25        24        47     9      180.000000        0.937071         4    ;  uncertainty k = 0.184963
        26        25        28        29     9        0.000000        0.177358         1    ;  uncertainty k = 0.350658
        26        25        28        29     9      180.000000        9.841493         2    ;  uncertainty k = 0.330831
        26        25        28        29     9        0.000000        1.045470         3    ;  uncertainty k = 0.237527
        26        25        28        29     9      180.000000        1.498093         4    ;  uncertainty k = 0.187758
        26        25        28        48     9        0.000000       -0.240781         1    ;  uncertainty k = 0.594263
        26        25        28        48     9      180.000000        6.871727         2    ;  uncertainty k = 0.219624
        26        25        28        48     9        0.000000        0.601043         3    ;  uncertainty k = 0.272151
        26        25        28        48     9      180.000000        0.882497         4    ;  uncertainty k = 0.151905
        27        26        25        28     9        0.000000        0.000000         1    ;  uncertainty k = 0.000000
        27        26        25        28     9      180.000000        0.000000         2    ;  uncertainty k = 0.000000
        27        26        25        28     9        0.000000        0.000000         3    ;  uncertainty k = 0.000000
        27        26        25        28     9      180.000000        0.000000         4    ;  uncertainty k = 0.000000
        28        25        24        47     9        0.000000       -0.164144         1    ;  uncertainty k = 0.720129
        28        25        24        47     9      180.000000        6.254452         2    ;  uncertainty k = 0.577004
        28        25        24        47     9        0.000000        1.131316         3    ;  uncertainty k = 0.111182
        28        25        24        47     9      180.000000        1.444922         4    ;  uncertainty k = 0.155009
        29        22        23        46     9        0.000000       -0.041914         1    ;  uncertainty k = 0.434365
        29        22        23        46     9      180.000000        7.329732         2    ;  uncertainty k = 0.683751
        29        22        23        46     9        0.000000        0.945353         3    ;  uncertainty k = 0.114669
        29        22        23        46     9      180.000000        1.592211         4    ;  uncertainty k = 0.180739
        38         8         9        40     9        0.000000        0.454762         1    ;  uncertainty k = 0.266662
        38         8         9        40     9      180.000000        0.193619         2    ;  uncertainty k = 0.263883
        38         8         9        40     9        0.000000        0.597288         3    ;  uncertainty k = 0.266351
        38         8         9        40     9      180.000000        0.079620         4    ;  uncertainty k = 0.049651
        38         8         9        41     9        0.000000        0.454762         1    ;  uncertainty k = 0.266662
        38         8         9        41     9      180.000000        0.193619         2    ;  uncertainty k = 0.263883
        38         8         9        41     9        0.000000        0.597288         3    ;  uncertainty k = 0.266351
        38         8         9        41     9      180.000000        0.079620         4    ;  uncertainty k = 0.049651
        39         8         9        40     9        0.000000        0.454762         1    ;  uncertainty k = 0.266662
        39         8         9        40     9      180.000000        0.193619         2    ;  uncertainty k = 0.263883
        39         8         9        40     9        0.000000        0.597288         3    ;  uncertainty k = 0.266351
        39         8         9        40     9      180.000000        0.079620         4    ;  uncertainty k = 0.049651
        39         8         9        41     9        0.000000        0.454762         1    ;  uncertainty k = 0.266662
        39         8         9        41     9      180.000000        0.193619         2    ;  uncertainty k = 0.263883
        39         8         9        41     9        0.000000        0.597288         3    ;  uncertainty k = 0.266351
        39         8         9        41     9      180.000000        0.079620         4    ;  uncertainty k = 0.049651
        43        15        16        44     9        0.000000       -0.151064         1    ;  uncertainty k = 0.356802
        43        15        16        44     9      180.000000        8.243470         2    ;  uncertainty k = 0.386386
        43        15        16        44     9        0.000000       -0.422441         3    ;  uncertainty k = 0.250218
        43        15        16        44     9      180.000000        0.148095         4    ;  uncertainty k = 0.223354
        46        23        24        47     9        0.000000       -0.346628         1    ;  uncertainty k = 0.341371
        46        23        24        47     9      180.000000        8.493914         2    ;  uncertainty k = 0.524981
        46        23        24        47     9        0.000000       -0.336752         3    ;  uncertainty k = 0.267807
        46        23        24        47     9      180.000000        0.252052         4    ;  uncertainty k = 0.222344

[ dihedrals ] ; impropers
;       ai        aj        ak        al funct           phase               k        pn
         2         1         3        10     4      180.000000        5.940687         2    ;  uncertainty k = 1.379345
         2         3        10         1     4      180.000000        5.940687         2    ;  uncertainty k = 1.379345
         2        10         1         3     4      180.000000        5.940687         2    ;  uncertainty k = 1.379345
         3         2         4         5     4      180.000000       39.851311         2    ;  uncertainty k = 0.154298
         3         4         5         2     4      180.000000       39.851311         2    ;  uncertainty k = 0.154298
         3         5         2         4     4      180.000000       39.851311         2    ;  uncertainty k = 0.154298
         4         3        33        34     4      180.000000        0.222063         2    ;  uncertainty k = 0.496548
         4        33        34         3     4      180.000000        0.222063         2    ;  uncertainty k = 0.496548
         4        34         3        33     4      180.000000        0.222063         2    ;  uncertainty k = 0.496548
         5         3         6        49     4      180.000000        1.777925         2    ;  uncertainty k = 1.768443
         5         6        49         3     4      180.000000        1.777925         2    ;  uncertainty k = 1.768443
         5        49         3         6     4      180.000000        1.777925         2    ;  uncertainty k = 1.768443
        10         2         9        11     4      180.000000       55.731038         2    ;  uncertainty k = 0.039619
        10         9        11         2     4      180.000000       55.731038         2    ;  uncertainty k = 0.039619
        10        11         2         9     4      180.000000       55.731038         2    ;  uncertainty k = 0.039619
        12         6        13        17     4      180.000000        9.929011         2    ;  uncertainty k = 0.241955
        12        13        17         6     4      180.000000        9.929011         2    ;  uncertainty k = 0.241955
        12        17         6        13     4      180.000000        9.929011         2    ;  uncertainty k = 0.241955
        13        12        14        42     4      180.000000        3.862639         2    ;  uncertainty k = 0.417015
        13        14        42        12     4      180.000000        3.862639         2    ;  uncertainty k = 0.417015
        13        42        12        14     4      180.000000        3.862639         2    ;  uncertainty k = 0.417015
        14        13        15        19     4      180.000000       16.650644         2    ;  uncertainty k = 0.135759
        14        15        19        13     4      180.000000       16.650644         2    ;  uncertainty k = 0.135759
        14        19        13        15     4      180.000000       16.650644         2    ;  uncertainty k = 0.135759
        15        14        16        43     4      180.000000        3.650406         2    ;  uncertainty k = 0.288479
        15        16        43        14     4      180.000000        3.650406         2    ;  uncertainty k = 0.288479
        15        43        14        16     4      180.000000        3.650406         2    ;  uncertainty k = 0.288479
        16        15        17        44     4      180.000000        1.707090         2    ;  uncertainty k = 0.325862
        16        17        44        15     4      180.000000        1.707090         2    ;  uncertainty k = 0.325862
        16        44        15        17     4      180.000000        1.707090         2    ;  uncertainty k = 0.325862
        17        12        16        18     4      180.000000       14.734340         2    ;  uncertainty k = 0.126437
        17        16        18        12     4      180.000000       14.734340         2    ;  uncertainty k = 0.126437
        17        18        12        16     4      180.000000       14.734340         2    ;  uncertainty k = 0.126437
        19        14        20        45     4      180.000000        0.994595         2    ;  uncertainty k = 0.754516
        19        20        45        14     4      180.000000        0.994595         2    ;  uncertainty k = 0.754516
        19        45        14        20     4      180.000000        0.994595         2    ;  uncertainty k = 0.754516
        20        19        21        22     4      180.000000       48.907475         2    ;  uncertainty k = 0.023632
        20        21        22        19     4      180.000000       48.907475         2    ;  uncertainty k = 0.023632
        20        22        19        21     4      180.000000       48.907475         2    ;  uncertainty k = 0.023632
        22        20        23        29     4      180.000000       18.838186         2    ;  uncertainty k = 0.109233
        22        23        29        20     4      180.000000       18.838186         2    ;  uncertainty k = 0.109233
        22        29        20        23     4      180.000000       18.838186         2    ;  uncertainty k = 0.109233
        23        22        24        46     4      180.000000        4.232527         2    ;  uncertainty k = 0.159899
        23        24        46        22     4      180.000000        4.232527         2    ;  uncertainty k = 0.159899
        23        46        22        24     4      180.000000        4.232527         2    ;  uncertainty k = 0.159899
        24        23        25        47     4      180.000000        6.657182         2    ;  uncertainty k = 0.148063
        24        25        47        23     4      180.000000        6.657182         2    ;  uncertainty k = 0.148063
        24        47        23        25     4      180.000000        6.657182         2    ;  uncertainty k = 0.148063
        25        24        26        28     4      180.000000       10.064051         2    ;  uncertainty k = 0.216225
        25        26        28        24     4      180.000000       10.064051         2    ;  uncertainty k = 0.216225
        25        28        24        26     4      180.000000       10.064051         2    ;  uncertainty k = 0.216225
        28        25        29        48     4      180.000000       14.295601         2    ;  uncertainty k = 0.182127
        28        29        48        25     4      180.000000       14.295601         2    ;  uncertainty k = 0.182127
        28        48        25        29     4      180.000000       14.295601         2    ;  uncertainty k = 0.182127

[ pairs ]
;       ai        aj funct
         1         4     1
         1         5     1
         1         9     1
         1        11     1
         2         6     1
         2         8     1
         2        33     1
         2        34     1
         2        40     1
         2        41     1
         2        49     1
         3         7     1
         3         8     1
         3         9     1
         3        11     1
         3        12     1
         3        30     1
         3        31     1
         3        32     1
         4         6     1
         4        10     1
         4        49     1
         5         9     1
         5        10     1
         5        13     1
         5        17     1
         5        33     1
         5        34     1
         5        35     1
         5        36     1
         5        37     1
         5        38     1
         5        39     1
         6        10     1
         6        14     1
         6        16     1
         6        18     1
         6        40     1
         6        41     1
         6        42     1
         7         9     1
         7        13     1
         7        17     1
         7        38     1
         7        39     1
         7        49     1
         8        11     1
         8        13     1
         8        17     1
         8        35     1
         8        36     1
         8        37     1
         8        49     1
         9        12     1
        10        30     1
        10        31     1
        10        32     1
        10        38     1
        10        39     1
        11        40     1
        11        41     1
        12        15     1
        12        19     1
        12        35     1
        12        36     1
        12        37     1
        12        38     1
        12        39     1
        12        44     1
        12        49     1
        13        16     1
        13        18     1
        13        20     1
        13        43     1
        13        45     1
        14        17     1
        14        21     1
        14        22     1
        14        44     1
        15        18     1
        15        20     1
        15        42     1
        15        45     1
        16        19     1
        17        42     1
        17        43     1
        18        44     1
        19        23     1
        19        29     1
        19        42     1
        19        43     1
        20        24     1
        20        28     1
        20        46     1
        21        23     1
        21        29     1
        21        45     1
        22        25     1
        22        45     1
        22        47     1
        22        48     1
        23        26     1
        23        28     1
        24        27     1
        24        29     1
        24        48     1
        25        46     1
        26        29     1
        26        47     1
        26        48     1
        27        28     1
        28        47     1
        29        46     1
        38        40     1
        38        41     1
        39        40     1
        39        41     1
        43        44     1
        46        47     1
