; ITP file created by ByteFF-joint-25, 2025-07-14 11:32:22.825576

[ atomtypes ]
;name           bonded.type        at.num        mass        charge   ptype           sigma         epsilon
 c0bf                                   6      0.0000       0.00000       A     3.39775e-01     4.50862e-01    ;  uncertainty sigma = 0.000007, epsilon = 0.000770
 o1bf                                   8      0.0000       0.00000       A     3.15701e-01     3.04155e-01    ;  uncertainty sigma = 0.000016, epsilon = 0.001101
 c2bf                                   6      0.0000       0.00000       A     3.31546e-01     4.13288e-01    ;  uncertainty sigma = 0.000016, epsilon = 0.001729
 c3bf                                   6      0.0000       0.00000       A     3.31538e-01     4.13440e-01    ;  uncertainty sigma = 0.000008, epsilon = 0.001034
 n4bf                                   7      0.0000       0.00000       A     3.38390e-01     3.93325e-01    ;  uncertainty sigma = 0.000020, epsilon = 0.000402
 c5bf                                   6      0.0000       0.00000       A     3.31529e-01     4.12962e-01    ;  uncertainty sigma = 0.000009, epsilon = 0.000908
 c6bf                                   6      0.0000       0.00000       A     3.31550e-01     4.13644e-01    ;  uncertainty sigma = 0.000016, epsilon = 0.001518
 n7bf                                   7      0.0000       0.00000       A     3.38408e-01     3.93559e-01    ;  uncertainty sigma = 0.000020, epsilon = 0.000678
 c8bf                                   6      0.0000       0.00000       A     3.31512e-01     4.12533e-01    ;  uncertainty sigma = 0.000017, epsilon = 0.000770
 o9bf                                   8      0.0000       0.00000       A     3.04829e-01     6.12938e-01    ;  uncertainty sigma = 0.000026, epsilon = 0.001502
 n10bf                                  7      0.0000       0.00000       A     3.27000e-01     4.90774e-01    ;  uncertainty sigma = 0.000031, epsilon = 0.001117
 c11bf                                  6      0.0000       0.00000       A     3.31511e-01     4.13330e-01    ;  uncertainty sigma = 0.000009, epsilon = 0.001130
 c12bf                                  6      0.0000       0.00000       A     3.31527e-01     4.13334e-01    ;  uncertainty sigma = 0.000006, epsilon = 0.000435
 c13bf                                  6      0.0000       0.00000       A     3.31530e-01     4.13269e-01    ;  uncertainty sigma = 0.000003, epsilon = 0.000631
 c14bf                                  6      0.0000       0.00000       A     3.31533e-01     4.12867e-01    ;  uncertainty sigma = 0.000012, epsilon = 0.000319
 f15bf                                  9      0.0000       0.00000       A     3.03460e-01     3.47876e-01    ;  uncertainty sigma = 0.000027, epsilon = 0.001485
 c16bf                                  6      0.0000       0.00000       A     3.31372e-01     4.13837e-01    ;  uncertainty sigma = 0.000043, epsilon = 0.001321
 c17bf                                  6      0.0000       0.00000       A     3.31534e-01     4.13747e-01    ;  uncertainty sigma = 0.000008, epsilon = 0.001197
 c18bf                                  6      0.0000       0.00000       A     3.39727e-01     4.50183e-01    ;  uncertainty sigma = 0.000040, epsilon = 0.001739
 c19bf                                  6      0.0000       0.00000       A     3.39761e-01     4.50564e-01    ;  uncertainty sigma = 0.000012, epsilon = 0.001439
 c20bf                                  6      0.0000       0.00000       A     3.39764e-01     4.51711e-01    ;  uncertainty sigma = 0.000006, epsilon = 0.001436
 c21bf                                  6      0.0000       0.00000       A     3.39786e-01     4.51358e-01    ;  uncertainty sigma = 0.000025, epsilon = 0.000748
 c22bf                                  6      0.0000       0.00000       A     3.31609e-01     4.13636e-01    ;  uncertainty sigma = 0.000037, epsilon = 0.001291
 o23bf                                  8      0.0000       0.00000       A     3.04833e-01     6.12347e-01    ;  uncertainty sigma = 0.000038, epsilon = 0.004084
 n24bf                                  7      0.0000       0.00000       A     3.18438e-01     6.86480e-01    ;  uncertainty sigma = 0.000178, epsilon = 0.008457
 c25bf                                  6      0.0000       0.00000       A     3.39840e-01     4.51981e-01    ;  uncertainty sigma = 0.000017, epsilon = 0.001351
 c26bf                                  6      0.0000       0.00000       A     3.31498e-01     4.11029e-01    ;  uncertainty sigma = 0.000079, epsilon = 0.002721
 n27bf                                  7      0.0000       0.00000       A     3.36962e-01     4.68914e-01    ;  uncertainty sigma = 0.000160, epsilon = 0.004444
 n28bf                                  7      0.0000       0.00000       A     3.26683e-01     6.60554e-01    ;  uncertainty sigma = 0.000163, epsilon = 0.008184
 h29bf                                  1      0.0000       0.00000       A     2.42204e-01     8.66227e-02    ;  uncertainty sigma = 0.000019, epsilon = 0.000473
 h30bf                                  1      0.0000       0.00000       A     2.42204e-01     8.66227e-02    ;  uncertainty sigma = 0.000019, epsilon = 0.000473
 h31bf                                  1      0.0000       0.00000       A     2.42204e-01     8.66227e-02    ;  uncertainty sigma = 0.000019, epsilon = 0.000473
 h32bf                                  1      0.0000       0.00000       A     2.53590e-01     6.71067e-02    ;  uncertainty sigma = 0.000043, epsilon = 0.000735
 h33bf                                  1      0.0000       0.00000       A     2.53700e-01     6.73606e-02    ;  uncertainty sigma = 0.000029, epsilon = 0.000744
 h34bf                                  1      0.0000       0.00000       A     1.10674e-01     4.15811e-02    ;  uncertainty sigma = 0.000084, epsilon = 0.000795
 h35bf                                  1      0.0000       0.00000       A     2.62560e-01     6.69889e-02    ;  uncertainty sigma = 0.000013, epsilon = 0.000439
 h36bf                                  1      0.0000       0.00000       A     2.62566e-01     6.69934e-02    ;  uncertainty sigma = 0.000012, epsilon = 0.000403
 h37bf                                  1      0.0000       0.00000       A     2.62558e-01     6.70795e-02    ;  uncertainty sigma = 0.000012, epsilon = 0.000602
 h38bf                                  1      0.0000       0.00000       A     2.60065e-01     8.70044e-02    ;  uncertainty sigma = 0.000028, epsilon = 0.000622
 h39bf                                  1      0.0000       0.00000       A     2.60065e-01     8.70044e-02    ;  uncertainty sigma = 0.000028, epsilon = 0.000622
 h40bf                                  1      0.0000       0.00000       A     2.60065e-01     8.70044e-02    ;  uncertainty sigma = 0.000028, epsilon = 0.000622
 h41bf                                  1      0.0000       0.00000       A     2.60003e-01     8.70112e-02    ;  uncertainty sigma = 0.000036, epsilon = 0.001237
 h42bf                                  1      0.0000       0.00000       A     2.60003e-01     8.70112e-02    ;  uncertainty sigma = 0.000036, epsilon = 0.001237
 h43bf                                  1      0.0000       0.00000       A     2.60045e-01     8.71738e-02    ;  uncertainty sigma = 0.000025, epsilon = 0.001486
 h44bf                                  1      0.0000       0.00000       A     2.60045e-01     8.71738e-02    ;  uncertainty sigma = 0.000025, epsilon = 0.001486
 h45bf                                  1      0.0000       0.00000       A     2.42231e-01     8.72908e-02    ;  uncertainty sigma = 0.000043, epsilon = 0.000597
 h46bf                                  1      0.0000       0.00000       A     2.42231e-01     8.72908e-02    ;  uncertainty sigma = 0.000043, epsilon = 0.000597
 h47bf                                  1      0.0000       0.00000       A     2.42231e-01     8.72908e-02    ;  uncertainty sigma = 0.000043, epsilon = 0.000597
 h48bf                                  1      0.0000       0.00000       A     1.10576e-01     4.14814e-02    ;  uncertainty sigma = 0.000133, epsilon = 0.001943
 h49bf                                  1      0.0000       0.00000       A     1.10576e-01     4.14815e-02    ;  uncertainty sigma = 0.000133, epsilon = 0.001943
 h50bf                                  1      0.0000       0.00000       A     1.10825e-01     4.49239e-02    ;  uncertainty sigma = 0.000379, epsilon = 0.003045

[ moleculetype ]
;name             nrexcl
 MOL                   3

[ atoms ]
;       nr            type      resi   res      atom      cgnr      charge          mass ; qtot
         1            c0bf         1   UNL        c0         1     0.13023       12.0110 ; qtot    0.130
         2            o1bf         1   UNL        o1         2    -0.43706       15.9990 ; qtot   -0.307
         3            c2bf         1   UNL        c2         3     0.54651       12.0110 ; qtot    0.240
         4            c3bf         1   UNL        c3         4     0.26238       12.0110 ; qtot    0.502
         5            n4bf         1   UNL        n4         5    -0.60306       14.0070 ; qtot   -0.101
         6            c5bf         1   UNL        c5         6     0.19946       12.0110 ; qtot    0.098
         7            c6bf         1   UNL        c6         7     0.38951       12.0110 ; qtot    0.488
         8            n7bf         1   UNL        n7         8    -0.71914       14.0070 ; qtot   -0.231
         9            c8bf         1   UNL        c8         9     0.59136       12.0110 ; qtot    0.360
        10            o9bf         1   UNL        o9        10    -0.57869       15.9990 ; qtot   -0.219
        11           n10bf         1   UNL       n10        11    -0.46216       14.0070 ; qtot   -0.681
        12           c11bf         1   UNL       c11        12     0.07587       12.0110 ; qtot   -0.605
        13           c12bf         1   UNL       c12        13    -0.12622       12.0110 ; qtot   -0.731
        14           c13bf         1   UNL       c13        14    -0.11732       12.0110 ; qtot   -0.848
        15           c14bf         1   UNL       c14        15     0.11591       12.0110 ; qtot   -0.732
        16           f15bf         1   UNL       f15        16    -0.14945       18.9980 ; qtot   -0.882
        17           c16bf         1   UNL       c16        17    -0.14652       12.0110 ; qtot   -1.028
        18           c17bf         1   UNL       c17        18    -0.11409       12.0110 ; qtot   -1.142
        19           c18bf         1   UNL       c18        19     0.16845       12.0110 ; qtot   -0.974
        20           c19bf         1   UNL       c19        20    -0.11699       12.0110 ; qtot   -1.091
        21           c20bf         1   UNL       c20        21    -0.09594       12.0110 ; qtot   -1.187
        22           c21bf         1   UNL       c21        22    -0.15800       12.0110 ; qtot   -1.345
        23           c22bf         1   UNL       c22        23     0.71346       12.0110 ; qtot   -0.631
        24           o23bf         1   UNL       o23        24    -0.48981       15.9990 ; qtot   -1.121
        25           n24bf         1   UNL       n24        25    -0.45372       14.0070 ; qtot   -1.575
        26           c25bf         1   UNL       c25        26     0.05023       12.0110 ; qtot   -1.525
        27           c26bf         1   UNL       c26        27     0.48845       12.0110 ; qtot   -1.036
        28           n27bf         1   UNL       n27        28    -0.50050       14.0070 ; qtot   -1.537
        29           n28bf         1   UNL       n28        29    -0.38291       14.0070 ; qtot   -1.920
        30           h29bf         1   UNL       h29        30     0.05157        1.0080 ; qtot   -1.868
        31           h30bf         1   UNL       h30        31     0.05157        1.0080 ; qtot   -1.817
        32           h31bf         1   UNL       h31        32     0.05157        1.0080 ; qtot   -1.765
        33           h32bf         1   UNL       h32        33     0.04745        1.0080 ; qtot   -1.718
        34           h33bf         1   UNL       h33        34     0.05731        1.0080 ; qtot   -1.660
        35           h34bf         1   UNL       h34        35     0.34793        1.0080 ; qtot   -1.312
        36           h35bf         1   UNL       h35        36     0.15920        1.0080 ; qtot   -1.153
        37           h36bf         1   UNL       h36        37     0.16669        1.0080 ; qtot   -0.986
        38           h37bf         1   UNL       h37        38     0.16329        1.0080 ; qtot   -0.823
        39           h38bf         1   UNL       h38        39     0.06750        1.0080 ; qtot   -0.756
        40           h39bf         1   UNL       h39        40     0.06750        1.0080 ; qtot   -0.688
        41           h40bf         1   UNL       h40        41     0.06750        1.0080 ; qtot   -0.621
        42           h41bf         1   UNL       h41        42     0.08301        1.0080 ; qtot   -0.538
        43           h42bf         1   UNL       h42        43     0.08301        1.0080 ; qtot   -0.455
        44           h43bf         1   UNL       h43        44     0.10284        1.0080 ; qtot   -0.352
        45           h44bf         1   UNL       h44        45     0.10284        1.0080 ; qtot   -0.249
        46           h45bf         1   UNL       h45        46     0.08628        1.0080 ; qtot   -0.163
        47           h46bf         1   UNL       h46        47     0.08628        1.0080 ; qtot   -0.076
        48           h47bf         1   UNL       h47        48     0.08628        1.0080 ; qtot    0.010
        49           h48bf         1   UNL       h48        49     0.33294        1.0080 ; qtot    0.343
        50           h49bf         1   UNL       h49        50     0.33294        1.0080 ; qtot    0.676
        51           h50bf         1   UNL       h50        51     0.32426        1.0080 ; qtot    1.000

[ bonds ]
;       ai        aj funct               r               k
         1         2     1        0.142795   255880.048340    ;  uncertainty r = 0.000037, k = 4.748515
         1        30     1        0.109356   309005.560938    ;  uncertainty r = 0.000009, k = 1.137843
         1        31     1        0.109356   309005.560938    ;  uncertainty r = 0.000009, k = 1.137843
         1        32     1        0.109356   309005.560938    ;  uncertainty r = 0.000009, k = 1.137843
         2         3     1        0.134472   301313.630371    ;  uncertainty r = 0.000089, k = 7.872776
         3         4     1        0.140091   393913.334082    ;  uncertainty r = 0.000148, k = 5.892082
         3         8     1        0.131976   394101.823486    ;  uncertainty r = 0.000060, k = 6.425440
         4         5     1        0.131739   434619.639648    ;  uncertainty r = 0.000162, k = 14.171376
         4        33     1        0.109148   343886.519873    ;  uncertainty r = 0.000067, k = 2.866519
         5         6     1        0.133426   449310.679004    ;  uncertainty r = 0.000140, k = 18.294929
         6         7     1        0.138810   353774.080029    ;  uncertainty r = 0.000078, k = 20.234880
         6         9     1        0.149503   244951.212549    ;  uncertainty r = 0.000133, k = 20.899770
         7         8     1        0.132862   434797.173633    ;  uncertainty r = 0.000156, k = 15.000962
         7        34     1        0.108820   336159.067188    ;  uncertainty r = 0.000035, k = 1.832058
         9        10     1        0.123456   666741.749023    ;  uncertainty r = 0.000061, k = 4.842823
         9        11     1        0.136451   274747.401025    ;  uncertainty r = 0.000096, k = 19.567149
        11        12     1        0.140342   325096.340332    ;  uncertainty r = 0.000051, k = 11.829635
        11        35     1        0.101961   419155.004639    ;  uncertainty r = 0.000053, k = 6.161376
        12        13     1        0.140109   351911.990625    ;  uncertainty r = 0.000070, k = 3.568753
        12        18     1        0.140091   350158.663770    ;  uncertainty r = 0.000134, k = 6.810351
        13        14     1        0.138902   378821.311035    ;  uncertainty r = 0.000043, k = 4.830101
        13        36     1        0.108597   335962.840039    ;  uncertainty r = 0.000021, k = 2.800170
        14        15     1        0.138802   358748.300342    ;  uncertainty r = 0.000081, k = 6.406701
        14        37     1        0.108727   335204.413428    ;  uncertainty r = 0.000006, k = 0.932609
        15        16     1        0.136412   335839.572412    ;  uncertainty r = 0.000066, k = 5.119268
        15        17     1        0.139303   338583.790186    ;  uncertainty r = 0.000120, k = 5.435352
        17        18     1        0.139253   348185.207031    ;  uncertainty r = 0.000103, k = 4.735754
        17        19     1        0.151936   207646.386108    ;  uncertainty r = 0.000356, k = 16.785766
        18        38     1        0.108619   335255.717480    ;  uncertainty r = 0.000039, k = 2.433395
        19        20     1        0.153544   199542.618579    ;  uncertainty r = 0.000121, k = 11.274529
        19        21     1        0.153508   197198.605615    ;  uncertainty r = 0.000344, k = 13.018730
        19        29     1        0.149699   215459.911621    ;  uncertainty r = 0.000235, k = 21.255583
        20        39     1        0.109419   312012.657715    ;  uncertainty r = 0.000036, k = 2.504873
        20        40     1        0.109419   312012.657715    ;  uncertainty r = 0.000036, k = 2.504873
        20        41     1        0.109419   312012.657715    ;  uncertainty r = 0.000036, k = 2.504873
        21        22     1        0.153102   211765.253711    ;  uncertainty r = 0.000186, k = 12.494980
        21        42     1        0.109436   311381.788965    ;  uncertainty r = 0.000047, k = 2.720742
        21        43     1        0.109436   311381.788965    ;  uncertainty r = 0.000047, k = 2.720742
        22        23     1        0.150869   211235.690674    ;  uncertainty r = 0.000281, k = 14.070347
        22        44     1        0.109342   313609.135645    ;  uncertainty r = 0.000059, k = 2.756454
        22        45     1        0.109342   313609.135645    ;  uncertainty r = 0.000059, k = 2.756454
        23        24     1        0.120632   623606.404688    ;  uncertainty r = 0.000472, k = 67.975471
        23        25     1        0.144719   259473.221777    ;  uncertainty r = 0.000699, k = 32.665202
        25        26     1        0.147625   252641.049072    ;  uncertainty r = 0.000231, k = 28.664333
        25        27     1        0.136571   315852.315332    ;  uncertainty r = 0.000279, k = 74.694511
        26        46     1        0.109124   307806.849023    ;  uncertainty r = 0.000024, k = 2.336791
        26        47     1        0.109124   307806.849023    ;  uncertainty r = 0.000024, k = 2.336791
        26        48     1        0.109124   307806.849023    ;  uncertainty r = 0.000024, k = 2.336791
        27        28     1        0.134791   321962.630566    ;  uncertainty r = 0.000135, k = 72.872336
        27        29     1        0.133524   551037.600977    ;  uncertainty r = 0.000349, k = 65.892307
        28        49     1        0.101342   416981.362500    ;  uncertainty r = 0.000070, k = 7.128651
        28        50     1        0.101342   416981.362500    ;  uncertainty r = 0.000070, k = 7.128651
        29        51     1        0.101450   445291.137988    ;  uncertainty r = 0.000296, k = 16.403489

[ angles ]
;       ai        aj        ak funct           theta             cth
         1         2         3     1      109.386253      496.911991    ;  uncertainty theta = 0.002316, k = 0.103578
         2         1        30     1      108.285057      434.365737    ;  uncertainty theta = 0.001495, k = 0.035569
         2         1        31     1      108.285057      434.365737    ;  uncertainty theta = 0.001495, k = 0.035569
         2         1        32     1      108.285057      434.365737    ;  uncertainty theta = 0.001495, k = 0.035569
         2         3         4     1      119.508728      393.547732    ;  uncertainty theta = 0.008415, k = 0.362790
         2         3         8     1      118.894302      598.663901    ;  uncertainty theta = 0.005240, k = 0.112162
         3         4         5     1      119.797462      571.103742    ;  uncertainty theta = 0.003234, k = 0.097007
         3         4        33     1      123.316956      264.333007    ;  uncertainty theta = 0.005924, k = 0.066522
         3         8         7     1      115.076797      405.681179    ;  uncertainty theta = 0.009222, k = 0.215120
         4         3         8     1      120.379639      455.978974    ;  uncertainty theta = 0.005493, k = 0.221858
         4         5         6     1      120.784653      475.054588    ;  uncertainty theta = 0.005631, k = 0.196035
         5         4        33     1      118.479393      337.028587    ;  uncertainty theta = 0.004835, k = 0.225475
         5         6         7     1      121.923195      525.611936    ;  uncertainty theta = 0.004585, k = 0.116652
         5         6         9     1      116.233376      394.322145    ;  uncertainty theta = 0.005991, k = 0.221247
         6         7         8     1      121.959900      605.704099    ;  uncertainty theta = 0.003040, k = 0.195479
         6         7        34     1      120.281090      242.713530    ;  uncertainty theta = 0.006191, k = 0.102496
         6         9        10     1      121.462387      520.963862    ;  uncertainty theta = 0.002051, k = 0.123901
         6         9        11     1      111.544640      457.789363    ;  uncertainty theta = 0.003093, k = 0.109064
         7         6         9     1      121.976074      368.322622    ;  uncertainty theta = 0.006440, k = 0.125015
         8         7        34     1      119.370895      321.851595    ;  uncertainty theta = 0.004064, k = 0.182499
         9        11        12     1      116.801979      453.966139    ;  uncertainty theta = 0.005577, k = 0.052196
         9        11        35     1      116.931152      347.082515    ;  uncertainty theta = 0.004344, k = 0.137957
        10         9        11     1      122.928772      763.627307    ;  uncertainty theta = 0.001976, k = 0.061865
        11        12        13     1      119.850998      513.547024    ;  uncertainty theta = 0.004206, k = 0.153746
        11        12        18     1      119.078903      510.765873    ;  uncertainty theta = 0.006224, k = 0.047533
        12        11        35     1      113.311768      314.967525    ;  uncertainty theta = 0.005724, k = 0.101451
        12        13        14     1      118.861755      498.906695    ;  uncertainty theta = 0.003008, k = 0.116802
        12        13        36     1      118.868835      266.398193    ;  uncertainty theta = 0.001098, k = 0.060165
        12        18        17     1      122.235291      500.310885    ;  uncertainty theta = 0.002527, k = 0.117428
        12        18        38     1      118.493370      278.036715    ;  uncertainty theta = 0.002363, k = 0.083461
        13        12        18     1      120.372963      380.911332    ;  uncertainty theta = 0.008429, k = 0.197715
        13        14        15     1      119.693542      461.987568    ;  uncertainty theta = 0.002498, k = 0.231017
        13        14        37     1      121.220459      274.008012    ;  uncertainty theta = 0.002911, k = 0.017448
        14        13        36     1      120.292641      314.892701    ;  uncertainty theta = 0.001376, k = 0.079280
        14        15        16     1      118.251846      529.416199    ;  uncertainty theta = 0.002732, k = 0.198525
        14        15        17     1      124.602089      368.834290    ;  uncertainty theta = 0.006049, k = 0.304399
        15        14        37     1      119.857742      273.848118    ;  uncertainty theta = 0.001026, k = 0.039967
        15        17        18     1      121.533424      429.551449    ;  uncertainty theta = 0.004793, k = 0.104333
        15        17        19     1      117.339310      380.935560    ;  uncertainty theta = 0.008259, k = 0.164863
        16        15        17     1      115.906311      485.557171    ;  uncertainty theta = 0.002441, k = 0.063745
        17        18        38     1      117.406876      277.414184    ;  uncertainty theta = 0.003826, k = 0.109814
        17        19        20     1      110.246925      569.487754    ;  uncertainty theta = 0.006375, k = 0.192034
        17        19        21     1      109.669945      559.158376    ;  uncertainty theta = 0.006744, k = 0.133779
        17        19        29     1      107.412514      621.465476    ;  uncertainty theta = 0.012255, k = 0.211581
        18        17        19     1      118.160606      371.952659    ;  uncertainty theta = 0.007816, k = 0.185952
        19        20        39     1      107.137794      385.375761    ;  uncertainty theta = 0.001348, k = 0.102848
        19        20        40     1      107.137794      385.375761    ;  uncertainty theta = 0.001348, k = 0.102848
        19        20        41     1      107.137794      385.375761    ;  uncertainty theta = 0.001348, k = 0.102848
        19        21        22     1      110.561905      570.464804    ;  uncertainty theta = 0.005716, k = 0.076135
        19        21        42     1      106.535728      395.295715    ;  uncertainty theta = 0.001994, k = 0.082186
        19        21        43     1      106.535728      395.295715    ;  uncertainty theta = 0.001994, k = 0.082186
        19        29        27     1      123.204483      385.424186    ;  uncertainty theta = 0.016540, k = 0.475449
        19        29        51     1      114.211182      309.979329    ;  uncertainty theta = 0.008667, k = 0.223098
        20        19        21     1      109.752075      566.393039    ;  uncertainty theta = 0.003303, k = 0.073867
        20        19        29     1      107.837570      681.896747    ;  uncertainty theta = 0.005671, k = 0.139918
        21        19        29     1      107.673256      646.717463    ;  uncertainty theta = 0.007791, k = 0.199795
        21        22        23     1      110.047020      528.223297    ;  uncertainty theta = 0.004793, k = 0.187389
        21        22        44     1      108.858170      394.132276    ;  uncertainty theta = 0.001485, k = 0.113133
        21        22        45     1      108.858170      394.132276    ;  uncertainty theta = 0.001485, k = 0.113133
        22        21        42     1      108.090942      403.325955    ;  uncertainty theta = 0.000760, k = 0.077762
        22        21        43     1      108.090942      403.325955    ;  uncertainty theta = 0.000760, k = 0.077762
        22        23        24     1      125.693764      534.976202    ;  uncertainty theta = 0.009642, k = 0.357145
        22        23        25     1      115.335129      395.409962    ;  uncertainty theta = 0.008781, k = 0.262281
        23        22        44     1      105.814087      374.602772    ;  uncertainty theta = 0.006493, k = 0.155405
        23        22        45     1      105.814087      374.602740    ;  uncertainty theta = 0.006493, k = 0.155405
        23        25        26     1      114.554733      434.836609    ;  uncertainty theta = 0.015213, k = 0.157967
        23        25        27     1      122.699234      430.646576    ;  uncertainty theta = 0.014933, k = 0.172936
        24        23        25     1      121.653854      714.518489    ;  uncertainty theta = 0.003187, k = 0.110818
        25        26        46     1      107.636124      465.529757    ;  uncertainty theta = 0.001570, k = 0.169718
        25        26        47     1      107.636124      465.529757    ;  uncertainty theta = 0.001570, k = 0.169718
        25        26        48     1      107.636124      465.529757    ;  uncertainty theta = 0.001570, k = 0.169718
        25        27        28     1      120.154373      629.293047    ;  uncertainty theta = 0.009306, k = 0.317929
        25        27        29     1      123.468239      570.338012    ;  uncertainty theta = 0.017909, k = 0.573868
        26        25        27     1      114.117699      429.402727    ;  uncertainty theta = 0.009880, k = 0.289003
        27        28        49     1      115.658508      376.575418    ;  uncertainty theta = 0.003463, k = 0.190735
        27        28        50     1      115.658508      376.575418    ;  uncertainty theta = 0.003463, k = 0.190735
        27        29        51     1      115.603371      396.281480    ;  uncertainty theta = 0.021927, k = 0.255539
        28        27        29     1      122.487000      721.206402    ;  uncertainty theta = 0.019933, k = 0.309453
        30         1        31     1      109.278786      330.669080    ;  uncertainty theta = 0.002015, k = 0.025177
        30         1        32     1      109.278786      330.669080    ;  uncertainty theta = 0.002015, k = 0.025177
        31         1        32     1      109.278786      330.669080    ;  uncertainty theta = 0.002015, k = 0.025177
        39        20        40     1      105.977173      316.034497    ;  uncertainty theta = 0.001782, k = 0.018404
        39        20        41     1      105.977173      316.034497    ;  uncertainty theta = 0.001782, k = 0.018404
        40        20        41     1      105.977173      316.034497    ;  uncertainty theta = 0.001782, k = 0.018404
        42        21        43     1      106.209267      322.786956    ;  uncertainty theta = 0.003922, k = 0.114280
        44        22        45     1      106.429527      312.762268    ;  uncertainty theta = 0.004050, k = 0.139477
        46        26        47     1      107.310501      325.671628    ;  uncertainty theta = 0.003548, k = 0.054329
        46        26        48     1      107.310501      325.671628    ;  uncertainty theta = 0.003548, k = 0.054329
        47        26        48     1      107.310501      325.671628    ;  uncertainty theta = 0.003548, k = 0.054329
        49        28        50     1      112.259262      265.146444    ;  uncertainty theta = 0.011954, k = 0.229436

[ dihedrals ] ; propers for gromacs 4.5 or higher, use funct 9
;       ai        aj        ak        al funct           phase               k        pn
         1         2         3         4     9        0.000000        0.275109         1    ;  uncertainty k = 0.843775
         1         2         3         4     9      180.000000        8.567527         2    ;  uncertainty k = 0.404968
         1         2         3         4     9        0.000000        0.651292         3    ;  uncertainty k = 0.270918
         1         2         3         4     9      180.000000        0.278805         4    ;  uncertainty k = 0.159268
         1         2         3         8     9        0.000000        1.026822         1    ;  uncertainty k = 0.960205
         1         2         3         8     9      180.000000       10.169081         2    ;  uncertainty k = 0.243084
         1         2         3         8     9        0.000000        0.248884         3    ;  uncertainty k = 0.107773
         1         2         3         8     9      180.000000        0.426580         4    ;  uncertainty k = 0.163310
         2         3         4         5     9        0.000000        0.161656         1    ;  uncertainty k = 0.547654
         2         3         4         5     9      180.000000        5.979804         2    ;  uncertainty k = 0.929129
         2         3         4         5     9        0.000000        0.401462         3    ;  uncertainty k = 0.387255
         2         3         4         5     9      180.000000        1.088221         4    ;  uncertainty k = 0.428063
         2         3         4        33     9        0.000000       -0.285504         1    ;  uncertainty k = 0.817589
         2         3         4        33     9      180.000000        4.944944         2    ;  uncertainty k = 0.439480
         2         3         4        33     9        0.000000        0.551234         3    ;  uncertainty k = 0.296815
         2         3         4        33     9      180.000000        0.682876         4    ;  uncertainty k = 0.284084
         2         3         8         7     9        0.000000        1.095660         1    ;  uncertainty k = 1.438288
         2         3         8         7     9      180.000000       13.655385         2    ;  uncertainty k = 0.155872
         2         3         8         7     9        0.000000        2.467914         3    ;  uncertainty k = 0.275225
         2         3         8         7     9      180.000000        1.529399         4    ;  uncertainty k = 0.202379
         3         2         1        30     9        0.000000        1.381278         1    ;  uncertainty k = 0.206037
         3         2         1        30     9      180.000000       -0.323983         2    ;  uncertainty k = 0.111687
         3         2         1        30     9        0.000000        0.312198         3    ;  uncertainty k = 0.078013
         3         2         1        30     9      180.000000        0.413924         4    ;  uncertainty k = 0.049987
         3         2         1        31     9        0.000000        1.381278         1    ;  uncertainty k = 0.206037
         3         2         1        31     9      180.000000       -0.323983         2    ;  uncertainty k = 0.111687
         3         2         1        31     9        0.000000        0.312198         3    ;  uncertainty k = 0.078013
         3         2         1        31     9      180.000000        0.413924         4    ;  uncertainty k = 0.049987
         3         2         1        32     9        0.000000        1.381278         1    ;  uncertainty k = 0.206037
         3         2         1        32     9      180.000000       -0.323983         2    ;  uncertainty k = 0.111687
         3         2         1        32     9        0.000000        0.312198         3    ;  uncertainty k = 0.078013
         3         2         1        32     9      180.000000        0.413924         4    ;  uncertainty k = 0.049987
         3         4         5         6     9        0.000000        0.244075         1    ;  uncertainty k = 1.030615
         3         4         5         6     9      180.000000       15.172794         2    ;  uncertainty k = 0.364246
         3         4         5         6     9        0.000000        1.095348         3    ;  uncertainty k = 0.573190
         3         4         5         6     9      180.000000        1.585087         4    ;  uncertainty k = 0.296373
         3         8         7         6     9        0.000000       -0.078830         1    ;  uncertainty k = 1.175039
         3         8         7         6     9      180.000000       13.268419         2    ;  uncertainty k = 0.596463
         3         8         7         6     9        0.000000        0.967807         3    ;  uncertainty k = 0.583640
         3         8         7         6     9      180.000000        1.308372         4    ;  uncertainty k = 0.348667
         3         8         7        34     9        0.000000        0.560937         1    ;  uncertainty k = 0.559578
         3         8         7        34     9      180.000000       15.445073         2    ;  uncertainty k = 0.589105
         3         8         7        34     9        0.000000        2.103971         3    ;  uncertainty k = 0.871128
         3         8         7        34     9      180.000000        1.550223         4    ;  uncertainty k = 0.431779
         4         3         8         7     9        0.000000        0.013840         1    ;  uncertainty k = 0.808721
         4         3         8         7     9      180.000000        8.881691         2    ;  uncertainty k = 0.728547
         4         3         8         7     9        0.000000        1.669722         3    ;  uncertainty k = 0.475993
         4         3         8         7     9      180.000000        1.035665         4    ;  uncertainty k = 0.134088
         4         5         6         7     9        0.000000       -0.432302         1    ;  uncertainty k = 0.697067
         4         5         6         7     9      180.000000       11.179325         2    ;  uncertainty k = 0.368894
         4         5         6         7     9        0.000000        1.585695         3    ;  uncertainty k = 0.279010
         4         5         6         7     9      180.000000        1.144647         4    ;  uncertainty k = 0.264824
         4         5         6         9     9        0.000000        0.282493         1    ;  uncertainty k = 1.661029
         4         5         6         9     9      180.000000       13.516553         2    ;  uncertainty k = 0.686091
         4         5         6         9     9        0.000000        2.464690         3    ;  uncertainty k = 0.318011
         4         5         6         9     9      180.000000        1.447031         4    ;  uncertainty k = 0.443488
         5         4         3         8     9        0.000000       -0.737653         1    ;  uncertainty k = 0.253143
         5         4         3         8     9      180.000000        7.196018         2    ;  uncertainty k = 0.860500
         5         4         3         8     9        0.000000       -0.721575         3    ;  uncertainty k = 0.377360
         5         4         3         8     9      180.000000        1.019707         4    ;  uncertainty k = 0.583623
         5         6         7         8     9        0.000000       -0.402749         1    ;  uncertainty k = 0.236641
         5         6         7         8     9      180.000000       12.043383         2    ;  uncertainty k = 0.929581
         5         6         7         8     9        0.000000       -0.302456         3    ;  uncertainty k = 0.232107
         5         6         7         8     9      180.000000        1.246841         4    ;  uncertainty k = 0.487866
         5         6         7        34     9        0.000000       -0.211361         1    ;  uncertainty k = 0.461512
         5         6         7        34     9      180.000000        5.738048         2    ;  uncertainty k = 1.172620
         5         6         7        34     9        0.000000        0.881556         3    ;  uncertainty k = 0.236380
         5         6         7        34     9      180.000000        1.387547         4    ;  uncertainty k = 0.267866
         5         6         9        10     9        0.000000       -3.674156         1    ;  uncertainty k = 1.802642
         5         6         9        10     9      180.000000        4.850866         2    ;  uncertainty k = 0.864770
         5         6         9        10     9        0.000000        0.765586         3    ;  uncertainty k = 0.374761
         5         6         9        10     9      180.000000        0.008963         4    ;  uncertainty k = 0.103061
         5         6         9        11     9        0.000000        2.672971         1    ;  uncertainty k = 1.459150
         5         6         9        11     9      180.000000        4.211630         2    ;  uncertainty k = 0.306344
         5         6         9        11     9        0.000000        0.360256         3    ;  uncertainty k = 0.436214
         5         6         9        11     9      180.000000        0.120957         4    ;  uncertainty k = 0.101391
         6         5         4        33     9        0.000000        0.260774         1    ;  uncertainty k = 0.312008
         6         5         4        33     9      180.000000       16.616188         2    ;  uncertainty k = 0.365002
         6         5         4        33     9        0.000000        2.423025         3    ;  uncertainty k = 0.609442
         6         5         4        33     9      180.000000        1.585309         4    ;  uncertainty k = 0.237079
         6         9        11        12     9        0.000000        3.819759         1    ;  uncertainty k = 1.291080
         6         9        11        12     9      180.000000       12.042944         2    ;  uncertainty k = 0.215263
         6         9        11        12     9        0.000000        2.119954         3    ;  uncertainty k = 0.219692
         6         9        11        12     9      180.000000       -1.532275         4    ;  uncertainty k = 0.346457
         6         9        11        35     9        0.000000        0.752030         1    ;  uncertainty k = 1.322685
         6         9        11        35     9      180.000000        5.559647         2    ;  uncertainty k = 0.536257
         6         9        11        35     9        0.000000        2.123519         3    ;  uncertainty k = 0.382680
         6         9        11        35     9      180.000000        0.249902         4    ;  uncertainty k = 0.169055
         7         6         9        10     9        0.000000       -0.336719         1    ;  uncertainty k = 1.020029
         7         6         9        10     9      180.000000        3.844186         2    ;  uncertainty k = 0.830722
         7         6         9        10     9        0.000000        0.275673         3    ;  uncertainty k = 0.354119
         7         6         9        10     9      180.000000       -0.048057         4    ;  uncertainty k = 0.070291
         7         6         9        11     9        0.000000       -2.564909         1    ;  uncertainty k = 1.301260
         7         6         9        11     9      180.000000        3.064770         2    ;  uncertainty k = 0.442400
         7         6         9        11     9        0.000000       -0.056556         3    ;  uncertainty k = 0.617828
         7         6         9        11     9      180.000000       -0.030454         4    ;  uncertainty k = 0.365561
         8         3         4        33     9        0.000000       -0.312604         1    ;  uncertainty k = 0.921707
         8         3         4        33     9      180.000000        4.126589         2    ;  uncertainty k = 0.974182
         8         3         4        33     9        0.000000        0.688680         3    ;  uncertainty k = 0.353362
         8         3         4        33     9      180.000000        0.980083         4    ;  uncertainty k = 0.220265
         8         7         6         9     9        0.000000        0.441186         1    ;  uncertainty k = 0.619039
         8         7         6         9     9      180.000000        8.036127         2    ;  uncertainty k = 0.680293
         8         7         6         9     9        0.000000        0.915074         3    ;  uncertainty k = 0.277174
         8         7         6         9     9      180.000000        1.577696         4    ;  uncertainty k = 0.118797
         9         6         7        34     9        0.000000       -0.046601         1    ;  uncertainty k = 1.801172
         9         6         7        34     9      180.000000        6.073022         2    ;  uncertainty k = 0.532848
         9         6         7        34     9        0.000000        0.588814         3    ;  uncertainty k = 0.187458
         9         6         7        34     9      180.000000        0.695730         4    ;  uncertainty k = 0.393673
         9        11        12        13     9        0.000000        1.263761         1    ;  uncertainty k = 0.268971
         9        11        12        13     9      180.000000        4.683159         2    ;  uncertainty k = 0.117071
         9        11        12        13     9        0.000000        1.109868         3    ;  uncertainty k = 0.163578
         9        11        12        13     9      180.000000        0.093991         4    ;  uncertainty k = 0.036783
         9        11        12        18     9        0.000000        1.260742         1    ;  uncertainty k = 0.548056
         9        11        12        18     9      180.000000        4.893731         2    ;  uncertainty k = 0.159859
         9        11        12        18     9        0.000000        0.957674         3    ;  uncertainty k = 0.120518
         9        11        12        18     9      180.000000        0.073431         4    ;  uncertainty k = 0.061984
        10         9        11        12     9        0.000000        3.162341         1    ;  uncertainty k = 0.741360
        10         9        11        12     9      180.000000       14.134915         2    ;  uncertainty k = 0.181448
        10         9        11        12     9        0.000000        0.796237         3    ;  uncertainty k = 0.146316
        10         9        11        12     9      180.000000       -0.664239         4    ;  uncertainty k = 0.312937
        10         9        11        35     9        0.000000        1.050285         1    ;  uncertainty k = 1.220904
        10         9        11        35     9      180.000000       12.958130         2    ;  uncertainty k = 0.549285
        10         9        11        35     9        0.000000        2.401442         3    ;  uncertainty k = 0.461747
        10         9        11        35     9      180.000000        0.061402         4    ;  uncertainty k = 0.236225
        11        12        13        14     9        0.000000        0.110203         1    ;  uncertainty k = 0.158333
        11        12        13        14     9      180.000000       10.405058         2    ;  uncertainty k = 0.522118
        11        12        13        14     9        0.000000        1.072378         3    ;  uncertainty k = 0.483821
        11        12        13        14     9      180.000000        1.656021         4    ;  uncertainty k = 0.187518
        11        12        13        36     9        0.000000       -0.229461         1    ;  uncertainty k = 0.206010
        11        12        13        36     9      180.000000        8.531853         2    ;  uncertainty k = 0.486383
        11        12        13        36     9        0.000000        0.836717         3    ;  uncertainty k = 0.232983
        11        12        13        36     9      180.000000        1.178061         4    ;  uncertainty k = 0.202611
        11        12        18        17     9        0.000000        0.246533         1    ;  uncertainty k = 0.267503
        11        12        18        17     9      180.000000        9.140980         2    ;  uncertainty k = 0.541059
        11        12        18        17     9        0.000000        1.217325         3    ;  uncertainty k = 0.449645
        11        12        18        17     9      180.000000        1.648495         4    ;  uncertainty k = 0.329787
        11        12        18        38     9        0.000000        0.019039         1    ;  uncertainty k = 0.307404
        11        12        18        38     9      180.000000        8.555444         2    ;  uncertainty k = 0.503038
        11        12        18        38     9        0.000000        0.812609         3    ;  uncertainty k = 0.169875
        11        12        18        38     9      180.000000        1.272543         4    ;  uncertainty k = 0.243259
        12        13        14        15     9        0.000000       -0.123277         1    ;  uncertainty k = 0.282287
        12        13        14        15     9      180.000000       14.299148         2    ;  uncertainty k = 0.354275
        12        13        14        15     9        0.000000       -0.775678         3    ;  uncertainty k = 0.544841
        12        13        14        15     9      180.000000        0.810870         4    ;  uncertainty k = 0.283587
        12        13        14        37     9        0.000000        0.083183         1    ;  uncertainty k = 0.373341
        12        13        14        37     9      180.000000        8.009089         2    ;  uncertainty k = 0.383737
        12        13        14        37     9        0.000000        1.305775         3    ;  uncertainty k = 0.314181
        12        13        14        37     9      180.000000        1.773328         4    ;  uncertainty k = 0.114454
        12        18        17        15     9        0.000000       -0.150601         1    ;  uncertainty k = 0.170297
        12        18        17        15     9      180.000000       11.403383         2    ;  uncertainty k = 0.327896
        12        18        17        15     9        0.000000        0.059287         3    ;  uncertainty k = 0.444271
        12        18        17        15     9      180.000000        1.065185         4    ;  uncertainty k = 0.361772
        12        18        17        19     9        0.000000        0.196864         1    ;  uncertainty k = 0.259118
        12        18        17        19     9      180.000000        8.056278         2    ;  uncertainty k = 0.442422
        12        18        17        19     9        0.000000        1.536999         3    ;  uncertainty k = 0.265047
        12        18        17        19     9      180.000000        1.944923         4    ;  uncertainty k = 0.219197
        13        12        11        35     9        0.000000        0.548491         1    ;  uncertainty k = 1.211318
        13        12        11        35     9      180.000000        3.576069         2    ;  uncertainty k = 0.148098
        13        12        11        35     9        0.000000        0.731548         3    ;  uncertainty k = 0.149533
        13        12        11        35     9      180.000000        0.631622         4    ;  uncertainty k = 0.165003
        13        12        18        17     9        0.000000       -0.010315         1    ;  uncertainty k = 0.340613
        13        12        18        17     9      180.000000        7.949864         2    ;  uncertainty k = 0.451218
        13        12        18        17     9        0.000000        0.228806         3    ;  uncertainty k = 0.292854
        13        12        18        17     9      180.000000        1.318635         4    ;  uncertainty k = 0.280763
        13        12        18        38     9        0.000000        0.144856         1    ;  uncertainty k = 0.249364
        13        12        18        38     9      180.000000        6.805706         2    ;  uncertainty k = 0.526284
        13        12        18        38     9        0.000000        1.312745         3    ;  uncertainty k = 0.254049
        13        12        18        38     9      180.000000        1.539192         4    ;  uncertainty k = 0.174338
        13        14        15        16     9        0.000000       -0.082344         1    ;  uncertainty k = 0.302605
        13        14        15        16     9      180.000000       12.733004         2    ;  uncertainty k = 0.538024
        13        14        15        16     9        0.000000        1.382698         3    ;  uncertainty k = 0.358209
        13        14        15        16     9      180.000000        1.579546         4    ;  uncertainty k = 0.274126
        13        14        15        17     9        0.000000        0.029899         1    ;  uncertainty k = 0.115710
        13        14        15        17     9      180.000000        7.965077         2    ;  uncertainty k = 0.470996
        13        14        15        17     9        0.000000        0.187080         3    ;  uncertainty k = 0.306529
        13        14        15        17     9      180.000000        1.323606         4    ;  uncertainty k = 0.180828
        14        13        12        18     9        0.000000       -0.171354         1    ;  uncertainty k = 0.174808
        14        13        12        18     9      180.000000        9.718538         2    ;  uncertainty k = 0.402884
        14        13        12        18     9        0.000000       -0.057607         3    ;  uncertainty k = 0.164669
        14        13        12        18     9      180.000000        1.216978         4    ;  uncertainty k = 0.258779
        14        15        17        18     9        0.000000       -0.380058         1    ;  uncertainty k = 0.363856
        14        15        17        18     9      180.000000        6.653525         2    ;  uncertainty k = 0.460543
        14        15        17        18     9        0.000000        0.216808         3    ;  uncertainty k = 0.343422
        14        15        17        18     9      180.000000        1.208056         4    ;  uncertainty k = 0.326578
        14        15        17        19     9        0.000000        0.587980         1    ;  uncertainty k = 0.570259
        14        15        17        19     9      180.000000        6.565546         2    ;  uncertainty k = 0.118015
        14        15        17        19     9        0.000000        1.125495         3    ;  uncertainty k = 0.165124
        14        15        17        19     9      180.000000        1.638938         4    ;  uncertainty k = 0.202891
        15        14        13        36     9        0.000000        0.020241         1    ;  uncertainty k = 0.314023
        15        14        13        36     9      180.000000        8.062501         2    ;  uncertainty k = 0.265987
        15        14        13        36     9        0.000000        1.338631         3    ;  uncertainty k = 0.339125
        15        14        13        36     9      180.000000        1.801139         4    ;  uncertainty k = 0.131335
        15        17        18        38     9        0.000000        0.197538         1    ;  uncertainty k = 0.138491
        15        17        18        38     9      180.000000        8.378786         2    ;  uncertainty k = 0.254516
        15        17        18        38     9        0.000000        1.488710         3    ;  uncertainty k = 0.300180
        15        17        18        38     9      180.000000        1.716653         4    ;  uncertainty k = 0.069673
        15        17        19        20     9        0.000000       -0.078865         1    ;  uncertainty k = 0.342803
        15        17        19        20     9      180.000000        2.707416         2    ;  uncertainty k = 0.431466
        15        17        19        20     9        0.000000        0.605139         3    ;  uncertainty k = 0.122736
        15        17        19        20     9      180.000000        0.225734         4    ;  uncertainty k = 0.054459
        15        17        19        21     9        0.000000       -0.488620         1    ;  uncertainty k = 0.470814
        15        17        19        21     9      180.000000        3.238692         2    ;  uncertainty k = 0.495351
        15        17        19        21     9        0.000000        0.516380         3    ;  uncertainty k = 0.144704
        15        17        19        21     9      180.000000        0.244991         4    ;  uncertainty k = 0.090416
        15        17        19        29     9        0.000000       -0.054006         1    ;  uncertainty k = 1.686709
        15        17        19        29     9      180.000000        2.263002         2    ;  uncertainty k = 1.198012
        15        17        19        29     9        0.000000        0.553929         3    ;  uncertainty k = 0.392540
        15        17        19        29     9      180.000000        0.190259         4    ;  uncertainty k = 0.031587
        16        15        14        37     9        0.000000       -0.329096         1    ;  uncertainty k = 0.370432
        16        15        14        37     9      180.000000        9.331347         2    ;  uncertainty k = 0.322703
        16        15        14        37     9        0.000000        0.817192         3    ;  uncertainty k = 0.174442
        16        15        14        37     9      180.000000        1.068788         4    ;  uncertainty k = 0.119318
        16        15        17        18     9        0.000000        0.054053         1    ;  uncertainty k = 0.305416
        16        15        17        18     9      180.000000       11.303663         2    ;  uncertainty k = 0.415714
        16        15        17        18     9        0.000000        1.459365         3    ;  uncertainty k = 0.210148
        16        15        17        18     9      180.000000        1.436572         4    ;  uncertainty k = 0.223069
        16        15        17        19     9        0.000000        0.115112         1    ;  uncertainty k = 0.284948
        16        15        17        19     9      180.000000       10.269330         2    ;  uncertainty k = 0.372706
        16        15        17        19     9        0.000000        1.015671         3    ;  uncertainty k = 0.265811
        16        15        17        19     9      180.000000        1.292633         4    ;  uncertainty k = 0.165754
        17        15        14        37     9        0.000000       -0.020564         1    ;  uncertainty k = 0.383080
        17        15        14        37     9      180.000000        5.475933         2    ;  uncertainty k = 0.710188
        17        15        14        37     9        0.000000        1.205988         3    ;  uncertainty k = 0.247085
        17        15        14        37     9      180.000000        1.435549         4    ;  uncertainty k = 0.153298
        17        19        20        39     9        0.000000        0.754707         1    ;  uncertainty k = 0.434330
        17        19        20        39     9      180.000000       -0.572772         2    ;  uncertainty k = 0.310509
        17        19        20        39     9        0.000000        0.807842         3    ;  uncertainty k = 0.143751
        17        19        20        39     9      180.000000       -0.028051         4    ;  uncertainty k = 0.103953
        17        19        20        40     9        0.000000        0.754707         1    ;  uncertainty k = 0.434330
        17        19        20        40     9      180.000000       -0.572772         2    ;  uncertainty k = 0.310509
        17        19        20        40     9        0.000000        0.807842         3    ;  uncertainty k = 0.143751
        17        19        20        40     9      180.000000       -0.028051         4    ;  uncertainty k = 0.103953
        17        19        20        41     9        0.000000        0.754707         1    ;  uncertainty k = 0.434330
        17        19        20        41     9      180.000000       -0.572772         2    ;  uncertainty k = 0.310509
        17        19        20        41     9        0.000000        0.807842         3    ;  uncertainty k = 0.143751
        17        19        20        41     9      180.000000       -0.028051         4    ;  uncertainty k = 0.103953
        17        19        21        22     9        0.000000       -1.130576         1    ;  uncertainty k = 0.906408
        17        19        21        22     9      180.000000        0.314191         2    ;  uncertainty k = 0.545103
        17        19        21        22     9        0.000000        0.486814         3    ;  uncertainty k = 0.346118
        17        19        21        22     9      180.000000       -0.077411         4    ;  uncertainty k = 0.084340
        17        19        21        42     9        0.000000        0.646505         1    ;  uncertainty k = 0.241710
        17        19        21        42     9      180.000000       -0.113619         2    ;  uncertainty k = 0.429909
        17        19        21        42     9        0.000000        0.511031         3    ;  uncertainty k = 0.295737
        17        19        21        42     9      180.000000       -0.113116         4    ;  uncertainty k = 0.066532
        17        19        21        43     9        0.000000        0.646505         1    ;  uncertainty k = 0.241710
        17        19        21        43     9      180.000000       -0.113619         2    ;  uncertainty k = 0.429909
        17        19        21        43     9        0.000000        0.511031         3    ;  uncertainty k = 0.295737
        17        19        21        43     9      180.000000       -0.113116         4    ;  uncertainty k = 0.066532
        17        19        29        27     9        0.000000       -0.159078         1    ;  uncertainty k = 1.167087
        17        19        29        27     9      180.000000       -0.403354         2    ;  uncertainty k = 0.649313
        17        19        29        27     9        0.000000       -0.035675         3    ;  uncertainty k = 0.149917
        17        19        29        27     9      180.000000        0.145270         4    ;  uncertainty k = 0.333430
        17        19        29        51     9        0.000000        2.738643         1    ;  uncertainty k = 1.095361
        17        19        29        51     9      180.000000       -2.160755         2    ;  uncertainty k = 1.226842
        17        19        29        51     9        0.000000        0.013102         3    ;  uncertainty k = 0.217215
        17        19        29        51     9      180.000000        0.072551         4    ;  uncertainty k = 0.117205
        18        12        11        35     9        0.000000        1.053870         1    ;  uncertainty k = 1.341875
        18        12        11        35     9      180.000000        3.700028         2    ;  uncertainty k = 0.177630
        18        12        11        35     9        0.000000        0.689936         3    ;  uncertainty k = 0.086210
        18        12        11        35     9      180.000000        0.568404         4    ;  uncertainty k = 0.107348
        18        12        13        36     9        0.000000        0.192828         1    ;  uncertainty k = 0.336672
        18        12        13        36     9      180.000000        6.961246         2    ;  uncertainty k = 0.446270
        18        12        13        36     9        0.000000        1.228742         3    ;  uncertainty k = 0.336489
        18        12        13        36     9      180.000000        1.523697         4    ;  uncertainty k = 0.125957
        18        17        19        20     9        0.000000       -0.513927         1    ;  uncertainty k = 0.689948
        18        17        19        20     9      180.000000        2.798233         2    ;  uncertainty k = 0.345728
        18        17        19        20     9        0.000000        0.076159         3    ;  uncertainty k = 0.194004
        18        17        19        20     9      180.000000        0.208707         4    ;  uncertainty k = 0.159212
        18        17        19        21     9        0.000000       -0.432635         1    ;  uncertainty k = 0.300895
        18        17        19        21     9      180.000000        2.918250         2    ;  uncertainty k = 0.384588
        18        17        19        21     9        0.000000        0.020662         3    ;  uncertainty k = 0.296215
        18        17        19        21     9      180.000000        0.282038         4    ;  uncertainty k = 0.042213
        18        17        19        29     9        0.000000       -0.114865         1    ;  uncertainty k = 1.293515
        18        17        19        29     9      180.000000        2.916773         2    ;  uncertainty k = 0.421429
        18        17        19        29     9        0.000000       -0.007829         3    ;  uncertainty k = 0.274605
        18        17        19        29     9      180.000000        0.251942         4    ;  uncertainty k = 0.145613
        19        17        18        38     9        0.000000        0.134607         1    ;  uncertainty k = 0.159981
        19        17        18        38     9      180.000000        7.780478         2    ;  uncertainty k = 0.231734
        19        17        18        38     9        0.000000        0.658027         3    ;  uncertainty k = 0.368604
        19        17        18        38     9      180.000000        1.076312         4    ;  uncertainty k = 0.148581
        19        21        22        23     9        0.000000        6.284547         1    ;  uncertainty k = 2.303714
        19        21        22        23     9      180.000000        0.738778         2    ;  uncertainty k = 2.227115
        19        21        22        23     9        0.000000        0.250042         3    ;  uncertainty k = 0.841620
        19        21        22        23     9      180.000000       -0.400585         4    ;  uncertainty k = 0.150070
        19        21        22        44     9        0.000000        0.253966         1    ;  uncertainty k = 0.498435
        19        21        22        44     9      180.000000       -0.695175         2    ;  uncertainty k = 0.524386
        19        21        22        44     9        0.000000        0.574502         3    ;  uncertainty k = 0.379673
        19        21        22        44     9      180.000000       -0.101683         4    ;  uncertainty k = 0.105008
        19        21        22        45     9        0.000000        0.253966         1    ;  uncertainty k = 0.498435
        19        21        22        45     9      180.000000       -0.695175         2    ;  uncertainty k = 0.524386
        19        21        22        45     9        0.000000        0.574502         3    ;  uncertainty k = 0.379673
        19        21        22        45     9      180.000000       -0.101683         4    ;  uncertainty k = 0.105008
        19        29        27        25     9        0.000000       13.173743         1    ;  uncertainty k = 1.581312
        19        29        27        25     9      180.000000        3.974282         2    ;  uncertainty k = 2.192058
        19        29        27        25     9        0.000000       -0.391199         3    ;  uncertainty k = 0.699426
        19        29        27        25     9      180.000000        0.096404         4    ;  uncertainty k = 0.258751
        19        29        27        28     9        0.000000        6.232872         1    ;  uncertainty k = 2.095374
        19        29        27        28     9      180.000000        7.845573         2    ;  uncertainty k = 1.279283
        19        29        27        28     9        0.000000        0.444476         3    ;  uncertainty k = 0.400532
        19        29        27        28     9      180.000000       -0.533349         4    ;  uncertainty k = 0.394875
        20        19        21        22     9        0.000000       -2.542885         1    ;  uncertainty k = 1.347727
        20        19        21        22     9      180.000000        1.424771         2    ;  uncertainty k = 0.658006
        20        19        21        22     9        0.000000        0.253997         3    ;  uncertainty k = 0.328828
        20        19        21        22     9      180.000000       -0.106043         4    ;  uncertainty k = 0.131544
        20        19        21        42     9        0.000000       -0.972447         1    ;  uncertainty k = 0.364718
        20        19        21        42     9      180.000000        0.267195         2    ;  uncertainty k = 0.300814
        20        19        21        42     9        0.000000        0.370641         3    ;  uncertainty k = 0.079448
        20        19        21        42     9      180.000000       -0.070108         4    ;  uncertainty k = 0.076946
        20        19        21        43     9        0.000000       -0.972447         1    ;  uncertainty k = 0.364718
        20        19        21        43     9      180.000000        0.267195         2    ;  uncertainty k = 0.300814
        20        19        21        43     9        0.000000        0.370641         3    ;  uncertainty k = 0.079448
        20        19        21        43     9      180.000000       -0.070108         4    ;  uncertainty k = 0.076946
        20        19        29        27     9        0.000000       -2.311657         1    ;  uncertainty k = 1.839640
        20        19        29        27     9      180.000000        0.484251         2    ;  uncertainty k = 1.367911
        20        19        29        27     9        0.000000        0.179341         3    ;  uncertainty k = 0.312996
        20        19        29        27     9      180.000000        0.145678         4    ;  uncertainty k = 0.264749
        20        19        29        51     9        0.000000        0.188209         1    ;  uncertainty k = 0.907467
        20        19        29        51     9      180.000000       -0.833500         2    ;  uncertainty k = 0.486974
        20        19        29        51     9        0.000000        0.483901         3    ;  uncertainty k = 0.237091
        20        19        29        51     9      180.000000        0.216911         4    ;  uncertainty k = 0.086885
        21        19        20        39     9        0.000000       -0.850394         1    ;  uncertainty k = 0.789260
        21        19        20        39     9      180.000000       -0.412261         2    ;  uncertainty k = 0.222466
        21        19        20        39     9        0.000000        0.707021         3    ;  uncertainty k = 0.150825
        21        19        20        39     9      180.000000       -0.094141         4    ;  uncertainty k = 0.065682
        21        19        20        40     9        0.000000       -0.850394         1    ;  uncertainty k = 0.789260
        21        19        20        40     9      180.000000       -0.412261         2    ;  uncertainty k = 0.222466
        21        19        20        40     9        0.000000        0.707021         3    ;  uncertainty k = 0.150825
        21        19        20        40     9      180.000000       -0.094141         4    ;  uncertainty k = 0.065682
        21        19        20        41     9        0.000000       -0.850394         1    ;  uncertainty k = 0.789260
        21        19        20        41     9      180.000000       -0.412261         2    ;  uncertainty k = 0.222466
        21        19        20        41     9        0.000000        0.707021         3    ;  uncertainty k = 0.150825
        21        19        20        41     9      180.000000       -0.094141         4    ;  uncertainty k = 0.065682
        21        19        29        27     9        0.000000        6.121980         1    ;  uncertainty k = 2.553136
        21        19        29        27     9      180.000000        1.690279         2    ;  uncertainty k = 1.138500
        21        19        29        27     9        0.000000       -0.631740         3    ;  uncertainty k = 0.476919
        21        19        29        27     9      180.000000       -0.251151         4    ;  uncertainty k = 0.270463
        21        19        29        51     9        0.000000       -0.728195         1    ;  uncertainty k = 1.383284
        21        19        29        51     9      180.000000       -2.231857         2    ;  uncertainty k = 1.093814
        21        19        29        51     9        0.000000        0.045356         3    ;  uncertainty k = 0.363652
        21        19        29        51     9      180.000000        0.232165         4    ;  uncertainty k = 0.105805
        21        22        23        24     9        0.000000       -1.417162         1    ;  uncertainty k = 1.398150
        21        22        23        24     9      180.000000        2.175254         2    ;  uncertainty k = 0.912134
        21        22        23        24     9        0.000000        1.502621         3    ;  uncertainty k = 0.366532
        21        22        23        24     9      180.000000        0.044903         4    ;  uncertainty k = 0.298946
        21        22        23        25     9        0.000000        0.848909         1    ;  uncertainty k = 2.158624
        21        22        23        25     9      180.000000        5.868864         2    ;  uncertainty k = 0.876714
        21        22        23        25     9        0.000000       -0.258448         3    ;  uncertainty k = 0.459098
        21        22        23        25     9      180.000000       -0.331676         4    ;  uncertainty k = 0.414137
        22        21        19        29     9        0.000000        5.738310         1    ;  uncertainty k = 2.360440
        22        21        19        29     9      180.000000        2.367061         2    ;  uncertainty k = 1.555549
        22        21        19        29     9        0.000000        0.679973         3    ;  uncertainty k = 0.584878
        22        21        19        29     9      180.000000       -0.412176         4    ;  uncertainty k = 0.213283
        22        23        25        26     9        0.000000        2.998794         1    ;  uncertainty k = 1.459781
        22        23        25        26     9      180.000000        4.736239         2    ;  uncertainty k = 0.796592
        22        23        25        26     9        0.000000        0.588787         3    ;  uncertainty k = 0.538971
        22        23        25        26     9      180.000000        0.468451         4    ;  uncertainty k = 0.286843
        22        23        25        27     9        0.000000        9.076438         1    ;  uncertainty k = 2.183991
        22        23        25        27     9      180.000000       -2.227939         2    ;  uncertainty k = 3.017096
        22        23        25        27     9        0.000000       -0.812393         3    ;  uncertainty k = 0.675845
        22        23        25        27     9      180.000000        0.479154         4    ;  uncertainty k = 0.258438
        23        22        21        42     9        0.000000        0.036044         1    ;  uncertainty k = 0.236513
        23        22        21        42     9      180.000000       -0.592541         2    ;  uncertainty k = 0.216383
        23        22        21        42     9        0.000000        0.426773         3    ;  uncertainty k = 0.148983
        23        22        21        42     9      180.000000       -0.037879         4    ;  uncertainty k = 0.118444
        23        22        21        43     9        0.000000        0.036044         1    ;  uncertainty k = 0.236513
        23        22        21        43     9      180.000000       -0.592541         2    ;  uncertainty k = 0.216383
        23        22        21        43     9        0.000000        0.426773         3    ;  uncertainty k = 0.148983
        23        22        21        43     9      180.000000       -0.037879         4    ;  uncertainty k = 0.118444
        23        25        26        46     9        0.000000       -0.143881         1    ;  uncertainty k = 0.460663
        23        25        26        46     9      180.000000       -0.517501         2    ;  uncertainty k = 0.259321
        23        25        26        46     9        0.000000        0.428361         3    ;  uncertainty k = 0.205180
        23        25        26        46     9      180.000000        0.421241         4    ;  uncertainty k = 0.045065
        23        25        26        47     9        0.000000       -0.143881         1    ;  uncertainty k = 0.460663
        23        25        26        47     9      180.000000       -0.517501         2    ;  uncertainty k = 0.259321
        23        25        26        47     9        0.000000        0.428361         3    ;  uncertainty k = 0.205180
        23        25        26        47     9      180.000000        0.421241         4    ;  uncertainty k = 0.045065
        23        25        26        48     9        0.000000       -0.143881         1    ;  uncertainty k = 0.460663
        23        25        26        48     9      180.000000       -0.517501         2    ;  uncertainty k = 0.259321
        23        25        26        48     9        0.000000        0.428361         3    ;  uncertainty k = 0.205180
        23        25        26        48     9      180.000000        0.421241         4    ;  uncertainty k = 0.045065
        23        25        27        28     9        0.000000        2.488482         1    ;  uncertainty k = 2.538625
        23        25        27        28     9      180.000000        3.788045         2    ;  uncertainty k = 1.317540
        23        25        27        28     9        0.000000       -0.103364         3    ;  uncertainty k = 0.521658
        23        25        27        28     9      180.000000       -0.063596         4    ;  uncertainty k = 0.395872
        23        25        27        29     9        0.000000       14.249511         1    ;  uncertainty k = 1.624853
        23        25        27        29     9      180.000000        1.429591         2    ;  uncertainty k = 1.832466
        23        25        27        29     9        0.000000       -1.712452         3    ;  uncertainty k = 0.396967
        23        25        27        29     9      180.000000        0.238758         4    ;  uncertainty k = 0.810791
        24        23        22        44     9        0.000000        0.494339         1    ;  uncertainty k = 0.928789
        24        23        22        44     9      180.000000        4.564391         2    ;  uncertainty k = 0.661122
        24        23        22        44     9        0.000000        0.415769         3    ;  uncertainty k = 0.100891
        24        23        22        44     9      180.000000        0.351612         4    ;  uncertainty k = 0.126070
        24        23        22        45     9        0.000000        0.494339         1    ;  uncertainty k = 0.928789
        24        23        22        45     9      180.000000        4.564391         2    ;  uncertainty k = 0.661122
        24        23        22        45     9        0.000000        0.415769         3    ;  uncertainty k = 0.100891
        24        23        22        45     9      180.000000        0.351612         4    ;  uncertainty k = 0.126070
        24        23        25        26     9        0.000000        2.489498         1    ;  uncertainty k = 2.825471
        24        23        25        26     9      180.000000       12.245925         2    ;  uncertainty k = 0.282254
        24        23        25        26     9        0.000000        0.974939         3    ;  uncertainty k = 0.597414
        24        23        25        26     9      180.000000        0.326276         4    ;  uncertainty k = 0.333660
        24        23        25        27     9        0.000000        7.306871         1    ;  uncertainty k = 1.274711
        24        23        25        27     9      180.000000        7.400646         2    ;  uncertainty k = 0.953585
        24        23        25        27     9        0.000000        0.980085         3    ;  uncertainty k = 0.408671
        24        23        25        27     9      180.000000        0.382118         4    ;  uncertainty k = 0.238422
        25        23        22        44     9        0.000000       -2.240674         1    ;  uncertainty k = 0.699631
        25        23        22        44     9      180.000000        2.160440         2    ;  uncertainty k = 0.404875
        25        23        22        44     9        0.000000        0.224491         3    ;  uncertainty k = 0.276679
        25        23        22        44     9      180.000000        0.096463         4    ;  uncertainty k = 0.069084
        25        23        22        45     9        0.000000       -2.240674         1    ;  uncertainty k = 0.699631
        25        23        22        45     9      180.000000        2.160440         2    ;  uncertainty k = 0.404875
        25        23        22        45     9        0.000000        0.224491         3    ;  uncertainty k = 0.276679
        25        23        22        45     9      180.000000        0.096463         4    ;  uncertainty k = 0.069084
        25        27        28        49     9        0.000000        8.480673         1    ;  uncertainty k = 3.014674
        25        27        28        49     9      180.000000        9.189303         2    ;  uncertainty k = 0.650779
        25        27        28        49     9        0.000000        0.969832         3    ;  uncertainty k = 0.701973
        25        27        28        49     9      180.000000       -1.138735         4    ;  uncertainty k = 0.488312
        25        27        28        50     9        0.000000        8.480673         1    ;  uncertainty k = 3.014674
        25        27        28        50     9      180.000000        9.189303         2    ;  uncertainty k = 0.650779
        25        27        28        50     9        0.000000        0.969832         3    ;  uncertainty k = 0.701973
        25        27        28        50     9      180.000000       -1.138735         4    ;  uncertainty k = 0.488312
        25        27        29        51     9        0.000000        3.189851         1    ;  uncertainty k = 2.808647
        25        27        29        51     9      180.000000        9.352453         2    ;  uncertainty k = 1.341893
        25        27        29        51     9        0.000000        1.212715         3    ;  uncertainty k = 1.346302
        25        27        29        51     9      180.000000       -1.082983         4    ;  uncertainty k = 0.440481
        26        25        27        28     9        0.000000        0.951551         1    ;  uncertainty k = 1.698477
        26        25        27        28     9      180.000000       11.021387         2    ;  uncertainty k = 0.551114
        26        25        27        28     9        0.000000        0.637397         3    ;  uncertainty k = 0.915553
        26        25        27        28     9      180.000000       -0.314852         4    ;  uncertainty k = 0.319935
        26        25        27        29     9        0.000000        2.577939         1    ;  uncertainty k = 4.018393
        26        25        27        29     9      180.000000        9.754566         2    ;  uncertainty k = 0.895509
        26        25        27        29     9        0.000000       -0.135377         3    ;  uncertainty k = 0.697927
        26        25        27        29     9      180.000000       -0.464172         4    ;  uncertainty k = 0.479429
        27        25        26        46     9        0.000000        0.004731         1    ;  uncertainty k = 0.659060
        27        25        26        46     9      180.000000       -0.904791         2    ;  uncertainty k = 0.615565
        27        25        26        46     9        0.000000        0.112158         3    ;  uncertainty k = 0.248691
        27        25        26        46     9      180.000000        0.272116         4    ;  uncertainty k = 0.100229
        27        25        26        47     9        0.000000        0.004731         1    ;  uncertainty k = 0.659060
        27        25        26        47     9      180.000000       -0.904791         2    ;  uncertainty k = 0.615565
        27        25        26        47     9        0.000000        0.112158         3    ;  uncertainty k = 0.248691
        27        25        26        47     9      180.000000        0.272116         4    ;  uncertainty k = 0.100229
        27        25        26        48     9        0.000000        0.004731         1    ;  uncertainty k = 0.659060
        27        25        26        48     9      180.000000       -0.904791         2    ;  uncertainty k = 0.615565
        27        25        26        48     9        0.000000        0.112158         3    ;  uncertainty k = 0.248691
        27        25        26        48     9      180.000000        0.272116         4    ;  uncertainty k = 0.100229
        28        27        29        51     9        0.000000        2.736626         1    ;  uncertainty k = 3.841035
        28        27        29        51     9      180.000000       10.698322         2    ;  uncertainty k = 0.431065
        28        27        29        51     9        0.000000        1.592982         3    ;  uncertainty k = 0.915921
        28        27        29        51     9      180.000000       -0.612913         4    ;  uncertainty k = 0.270695
        29        19        20        39     9        0.000000       -1.066568         1    ;  uncertainty k = 0.311888
        29        19        20        39     9      180.000000       -1.494515         2    ;  uncertainty k = 0.784918
        29        19        20        39     9        0.000000        0.848349         3    ;  uncertainty k = 0.173252
        29        19        20        39     9      180.000000       -0.198133         4    ;  uncertainty k = 0.183842
        29        19        20        40     9        0.000000       -1.066568         1    ;  uncertainty k = 0.311888
        29        19        20        40     9      180.000000       -1.494515         2    ;  uncertainty k = 0.784918
        29        19        20        40     9        0.000000        0.848349         3    ;  uncertainty k = 0.173252
        29        19        20        40     9      180.000000       -0.198133         4    ;  uncertainty k = 0.183842
        29        19        20        41     9        0.000000       -1.066568         1    ;  uncertainty k = 0.311888
        29        19        20        41     9      180.000000       -1.494515         2    ;  uncertainty k = 0.784918
        29        19        20        41     9        0.000000        0.848349         3    ;  uncertainty k = 0.173252
        29        19        20        41     9      180.000000       -0.198133         4    ;  uncertainty k = 0.183842
        29        19        21        42     9        0.000000       -0.742191         1    ;  uncertainty k = 0.580061
        29        19        21        42     9      180.000000       -0.978353         2    ;  uncertainty k = 0.467689
        29        19        21        42     9        0.000000        0.178180         3    ;  uncertainty k = 0.122198
        29        19        21        42     9      180.000000       -0.092352         4    ;  uncertainty k = 0.215306
        29        19        21        43     9        0.000000       -0.742191         1    ;  uncertainty k = 0.580061
        29        19        21        43     9      180.000000       -0.978353         2    ;  uncertainty k = 0.467689
        29        19        21        43     9        0.000000        0.178180         3    ;  uncertainty k = 0.122198
        29        19        21        43     9      180.000000       -0.092352         4    ;  uncertainty k = 0.215306
        29        27        28        49     9        0.000000        5.763904         1    ;  uncertainty k = 3.279143
        29        27        28        49     9      180.000000        9.379462         2    ;  uncertainty k = 0.551623
        29        27        28        49     9        0.000000        1.122058         3    ;  uncertainty k = 0.481670
        29        27        28        49     9      180.000000       -0.826898         4    ;  uncertainty k = 0.491887
        29        27        28        50     9        0.000000        5.763904         1    ;  uncertainty k = 3.279143
        29        27        28        50     9      180.000000        9.379462         2    ;  uncertainty k = 0.551623
        29        27        28        50     9        0.000000        1.122058         3    ;  uncertainty k = 0.481670
        29        27        28        50     9      180.000000       -0.826898         4    ;  uncertainty k = 0.491887
        36        13        14        37     9        0.000000       -0.151065         1    ;  uncertainty k = 0.356800
        36        13        14        37     9      180.000000        8.243468         2    ;  uncertainty k = 0.386385
        36        13        14        37     9        0.000000       -0.422441         3    ;  uncertainty k = 0.250217
        36        13        14        37     9      180.000000        0.148095         4    ;  uncertainty k = 0.223354
        42        21        22        44     9        0.000000        0.454761         1    ;  uncertainty k = 0.266660
        42        21        22        44     9      180.000000        0.193618         2    ;  uncertainty k = 0.263884
        42        21        22        44     9        0.000000        0.597288         3    ;  uncertainty k = 0.266352
        42        21        22        44     9      180.000000        0.079620         4    ;  uncertainty k = 0.049652
        42        21        22        45     9        0.000000        0.454761         1    ;  uncertainty k = 0.266660
        42        21        22        45     9      180.000000        0.193618         2    ;  uncertainty k = 0.263884
        42        21        22        45     9        0.000000        0.597288         3    ;  uncertainty k = 0.266352
        42        21        22        45     9      180.000000        0.079620         4    ;  uncertainty k = 0.049652
        43        21        22        44     9        0.000000        0.454761         1    ;  uncertainty k = 0.266660
        43        21        22        44     9      180.000000        0.193618         2    ;  uncertainty k = 0.263884
        43        21        22        44     9        0.000000        0.597288         3    ;  uncertainty k = 0.266352
        43        21        22        44     9      180.000000        0.079620         4    ;  uncertainty k = 0.049652
        43        21        22        45     9        0.000000        0.454761         1    ;  uncertainty k = 0.266660
        43        21        22        45     9      180.000000        0.193618         2    ;  uncertainty k = 0.263884
        43        21        22        45     9        0.000000        0.597288         3    ;  uncertainty k = 0.266352
        43        21        22        45     9      180.000000        0.079620         4    ;  uncertainty k = 0.049652

[ dihedrals ] ; impropers
;       ai        aj        ak        al funct           phase               k        pn
         3         2         4         8     4      180.000000       30.812177         2    ;  uncertainty k = 0.075587
         3         4         8         2     4      180.000000       30.812177         2    ;  uncertainty k = 0.075587
         3         8         2         4     4      180.000000       30.812177         2    ;  uncertainty k = 0.075587
         4         3         5        33     4      180.000000        9.825555         2    ;  uncertainty k = 0.181858
         4         5        33         3     4      180.000000        9.825555         2    ;  uncertainty k = 0.181858
         4        33         3         5     4      180.000000        9.825555         2    ;  uncertainty k = 0.181858
         6         5         7         9     4      180.000000       12.529771         2    ;  uncertainty k = 0.275801
         6         7         9         5     4      180.000000       12.529771         2    ;  uncertainty k = 0.275801
         6         9         5         7     4      180.000000       12.529771         2    ;  uncertainty k = 0.275801
         7         6         8        34     4      180.000000       13.883756         2    ;  uncertainty k = 0.042303
         7         8        34         6     4      180.000000       13.883756         2    ;  uncertainty k = 0.042303
         7        34         6         8     4      180.000000       13.883756         2    ;  uncertainty k = 0.042303
         9         6        10        11     4      180.000000       49.281929         2    ;  uncertainty k = 0.035704
         9        10        11         6     4      180.000000       49.281929         2    ;  uncertainty k = 0.035704
         9        11         6        10     4      180.000000       49.281929         2    ;  uncertainty k = 0.035704
        11         9        12        35     4      180.000000        1.003610         2    ;  uncertainty k = 0.759118
        11        12        35         9     4      180.000000        1.003610         2    ;  uncertainty k = 0.759118
        11        35         9        12     4      180.000000        1.003610         2    ;  uncertainty k = 0.759118
        12        11        13        18     4      180.000000       16.736642         2    ;  uncertainty k = 0.134595
        12        13        18        11     4      180.000000       16.736642         2    ;  uncertainty k = 0.134595
        12        18        11        13     4      180.000000       16.736642         2    ;  uncertainty k = 0.134595
        13        12        14        36     4      180.000000        3.650407         2    ;  uncertainty k = 0.288479
        13        14        36        12     4      180.000000        3.650407         2    ;  uncertainty k = 0.288479
        13        36        12        14     4      180.000000        3.650407         2    ;  uncertainty k = 0.288479
        14        13        15        37     4      180.000000        1.707093         2    ;  uncertainty k = 0.325861
        14        15        37        13     4      180.000000        1.707093         2    ;  uncertainty k = 0.325861
        14        37        13        15     4      180.000000        1.707093         2    ;  uncertainty k = 0.325861
        15        14        16        17     4      180.000000       14.734340         2    ;  uncertainty k = 0.126437
        15        16        17        14     4      180.000000       14.734340         2    ;  uncertainty k = 0.126437
        15        17        14        16     4      180.000000       14.734340         2    ;  uncertainty k = 0.126437
        17        15        18        19     4      180.000000        9.929011         2    ;  uncertainty k = 0.241955
        17        18        19        15     4      180.000000        9.929011         2    ;  uncertainty k = 0.241955
        17        19        15        18     4      180.000000        9.929011         2    ;  uncertainty k = 0.241955
        18        12        17        38     4      180.000000        3.862638         2    ;  uncertainty k = 0.417014
        18        17        38        12     4      180.000000        3.862638         2    ;  uncertainty k = 0.417014
        18        38        12        17     4      180.000000        3.862638         2    ;  uncertainty k = 0.417014
        23        22        24        25     4      180.000000       55.731038         2    ;  uncertainty k = 0.039619
        23        24        25        22     4      180.000000       55.731038         2    ;  uncertainty k = 0.039619
        23        25        22        24     4      180.000000       55.731038         2    ;  uncertainty k = 0.039619
        25        23        26        27     4      180.000000        5.940686         2    ;  uncertainty k = 1.379346
        25        26        27        23     4      180.000000        5.940686         2    ;  uncertainty k = 1.379346
        25        27        23        26     4      180.000000        5.940686         2    ;  uncertainty k = 1.379346
        27        25        28        29     4      180.000000       39.851311         2    ;  uncertainty k = 0.154298
        27        28        29        25     4      180.000000       39.851311         2    ;  uncertainty k = 0.154298
        27        29        25        28     4      180.000000       39.851311         2    ;  uncertainty k = 0.154298
        28        27        49        50     4      180.000000        0.222063         2    ;  uncertainty k = 0.496548
        28        49        50        27     4      180.000000        0.222063         2    ;  uncertainty k = 0.496548
        28        50        27        49     4      180.000000        0.222063         2    ;  uncertainty k = 0.496548
        29        19        27        51     4      180.000000        1.777921         2    ;  uncertainty k = 1.768446
        29        27        51        19     4      180.000000        1.777921         2    ;  uncertainty k = 1.768446
        29        51        19        27     4      180.000000        1.777921         2    ;  uncertainty k = 1.768446

[ pairs ]
;       ai        aj funct
         1         4     1
         1         8     1
         2         5     1
         2         7     1
         2        33     1
         3         6     1
         3        30     1
         3        31     1
         3        32     1
         3        34     1
         4         7     1
         4         9     1
         5         8     1
         5        10     1
         5        11     1
         5        34     1
         6        12     1
         6        33     1
         6        35     1
         7        10     1
         7        11     1
         8         9     1
         8        33     1
         9        13     1
         9        18     1
         9        34     1
        10        12     1
        10        35     1
        11        14     1
        11        17     1
        11        36     1
        11        38     1
        12        15     1
        12        19     1
        12        37     1
        13        16     1
        13        17     1
        13        35     1
        13        38     1
        14        18     1
        14        19     1
        15        20     1
        15        21     1
        15        29     1
        15        36     1
        15        38     1
        16        18     1
        16        19     1
        16        37     1
        17        22     1
        17        27     1
        17        37     1
        17        39     1
        17        40     1
        17        41     1
        17        42     1
        17        43     1
        17        51     1
        18        20     1
        18        21     1
        18        29     1
        18        35     1
        18        36     1
        19        23     1
        19        25     1
        19        28     1
        19        38     1
        19        44     1
        19        45     1
        20        22     1
        20        27     1
        20        42     1
        20        43     1
        20        51     1
        21        24     1
        21        25     1
        21        27     1
        21        39     1
        21        40     1
        21        41     1
        21        51     1
        22        26     1
        22        27     1
        22        29     1
        23        28     1
        23        29     1
        23        42     1
        23        43     1
        23        46     1
        23        47     1
        23        48     1
        24        26     1
        24        27     1
        24        44     1
        24        45     1
        25        44     1
        25        45     1
        25        49     1
        25        50     1
        25        51     1
        26        28     1
        26        29     1
        27        46     1
        27        47     1
        27        48     1
        28        51     1
        29        39     1
        29        40     1
        29        41     1
        29        42     1
        29        43     1
        29        49     1
        29        50     1
        36        37     1
        42        44     1
        42        45     1
        43        44     1
        43        45     1
