; ITP file created by ByteFF-joint-25, 2025-07-14 11:32:19.718759

[ atomtypes ]
;name           bonded.type        at.num        mass        charge   ptype           sigma         epsilon
 c0bf                                   6      0.0000       0.00000       A     3.39840e-01     4.51981e-01    ;  uncertainty sigma = 0.000017, epsilon = 0.001351
 n1bf                                   7      0.0000       0.00000       A     3.18438e-01     6.86480e-01    ;  uncertainty sigma = 0.000178, epsilon = 0.008457
 c2bf                                   6      0.0000       0.00000       A     3.31498e-01     4.11029e-01    ;  uncertainty sigma = 0.000079, epsilon = 0.002721
 n3bf                                   7      0.0000       0.00000       A     3.36962e-01     4.68913e-01    ;  uncertainty sigma = 0.000160, epsilon = 0.004444
 n4bf                                   7      0.0000       0.00000       A     3.26683e-01     6.60554e-01    ;  uncertainty sigma = 0.000163, epsilon = 0.008183
 c5bf                                   6      0.0000       0.00000       A     3.39727e-01     4.50183e-01    ;  uncertainty sigma = 0.000040, epsilon = 0.001738
 c6bf                                   6      0.0000       0.00000       A     3.39761e-01     4.50564e-01    ;  uncertainty sigma = 0.000012, epsilon = 0.001439
 c7bf                                   6      0.0000       0.00000       A     3.39764e-01     4.51711e-01    ;  uncertainty sigma = 0.000006, epsilon = 0.001436
 c8bf                                   6      0.0000       0.00000       A     3.39786e-01     4.51358e-01    ;  uncertainty sigma = 0.000025, epsilon = 0.000748
 c9bf                                   6      0.0000       0.00000       A     3.31609e-01     4.13636e-01    ;  uncertainty sigma = 0.000037, epsilon = 0.001290
 o10bf                                  8      0.0000       0.00000       A     3.04833e-01     6.12347e-01    ;  uncertainty sigma = 0.000038, epsilon = 0.004084
 c11bf                                  6      0.0000       0.00000       A     3.31372e-01     4.13836e-01    ;  uncertainty sigma = 0.000043, epsilon = 0.001321
 c12bf                                  6      0.0000       0.00000       A     3.31534e-01     4.13747e-01    ;  uncertainty sigma = 0.000008, epsilon = 0.001197
 c13bf                                  6      0.0000       0.00000       A     3.31511e-01     4.13330e-01    ;  uncertainty sigma = 0.000009, epsilon = 0.001130
 c14bf                                  6      0.0000       0.00000       A     3.31527e-01     4.13334e-01    ;  uncertainty sigma = 0.000006, epsilon = 0.000435
 c15bf                                  6      0.0000       0.00000       A     3.31530e-01     4.13270e-01    ;  uncertainty sigma = 0.000003, epsilon = 0.000631
 c16bf                                  6      0.0000       0.00000       A     3.31533e-01     4.12867e-01    ;  uncertainty sigma = 0.000012, epsilon = 0.000319
 f17bf                                  9      0.0000       0.00000       A     3.03460e-01     3.47877e-01    ;  uncertainty sigma = 0.000027, epsilon = 0.001485
 n18bf                                  7      0.0000       0.00000       A     3.27000e-01     4.90774e-01    ;  uncertainty sigma = 0.000031, epsilon = 0.001117
 c19bf                                  6      0.0000       0.00000       A     3.31512e-01     4.12533e-01    ;  uncertainty sigma = 0.000017, epsilon = 0.000770
 o20bf                                  8      0.0000       0.00000       A     3.04829e-01     6.12938e-01    ;  uncertainty sigma = 0.000026, epsilon = 0.001502
 c21bf                                  6      0.0000       0.00000       A     3.31529e-01     4.12962e-01    ;  uncertainty sigma = 0.000009, epsilon = 0.000908
 c22bf                                  6      0.0000       0.00000       A     3.31550e-01     4.13644e-01    ;  uncertainty sigma = 0.000016, epsilon = 0.001519
 n23bf                                  7      0.0000       0.00000       A     3.38407e-01     3.93616e-01    ;  uncertainty sigma = 0.000019, epsilon = 0.000775
 c24bf                                  6      0.0000       0.00000       A     3.31551e-01     4.13002e-01    ;  uncertainty sigma = 0.000008, epsilon = 0.002041
 c25bf                                  6      0.0000       0.00000       A     3.31535e-01     4.13520e-01    ;  uncertainty sigma = 0.000009, epsilon = 0.001032
 n26bf                                  7      0.0000       0.00000       A     3.38390e-01     3.93325e-01    ;  uncertainty sigma = 0.000020, epsilon = 0.000401
 o27bf                                  8      0.0000       0.00000       A     3.15652e-01     3.03838e-01    ;  uncertainty sigma = 0.000023, epsilon = 0.001259
 c28bf                                  6      0.0000       0.00000       A     3.39782e-01     4.51037e-01    ;  uncertainty sigma = 0.000009, epsilon = 0.000707
 c29bf                                  6      0.0000       0.00000       A     3.39756e-01     4.51387e-01    ;  uncertainty sigma = 0.000018, epsilon = 0.001124
 f30bf                                  9      0.0000       0.00000       A     3.03411e-01     3.48276e-01    ;  uncertainty sigma = 0.000012, epsilon = 0.000500
 f31bf                                  9      0.0000       0.00000       A     3.03411e-01     3.48276e-01    ;  uncertainty sigma = 0.000012, epsilon = 0.000500
 f32bf                                  9      0.0000       0.00000       A     3.03411e-01     3.48276e-01    ;  uncertainty sigma = 0.000012, epsilon = 0.000500
 h33bf                                  1      0.0000       0.00000       A     2.42231e-01     8.72909e-02    ;  uncertainty sigma = 0.000043, epsilon = 0.000597
 h34bf                                  1      0.0000       0.00000       A     2.42231e-01     8.72909e-02    ;  uncertainty sigma = 0.000043, epsilon = 0.000597
 h35bf                                  1      0.0000       0.00000       A     2.42231e-01     8.72909e-02    ;  uncertainty sigma = 0.000043, epsilon = 0.000597
 h36bf                                  1      0.0000       0.00000       A     1.10576e-01     4.14815e-02    ;  uncertainty sigma = 0.000133, epsilon = 0.001943
 h37bf                                  1      0.0000       0.00000       A     1.10576e-01     4.14815e-02    ;  uncertainty sigma = 0.000133, epsilon = 0.001943
 h38bf                                  1      0.0000       0.00000       A     2.60065e-01     8.70043e-02    ;  uncertainty sigma = 0.000028, epsilon = 0.000622
 h39bf                                  1      0.0000       0.00000       A     2.60065e-01     8.70043e-02    ;  uncertainty sigma = 0.000028, epsilon = 0.000622
 h40bf                                  1      0.0000       0.00000       A     2.60065e-01     8.70043e-02    ;  uncertainty sigma = 0.000028, epsilon = 0.000622
 h41bf                                  1      0.0000       0.00000       A     2.60003e-01     8.70111e-02    ;  uncertainty sigma = 0.000036, epsilon = 0.001237
 h42bf                                  1      0.0000       0.00000       A     2.60003e-01     8.70111e-02    ;  uncertainty sigma = 0.000036, epsilon = 0.001237
 h43bf                                  1      0.0000       0.00000       A     2.60045e-01     8.71738e-02    ;  uncertainty sigma = 0.000025, epsilon = 0.001486
 h44bf                                  1      0.0000       0.00000       A     2.60045e-01     8.71738e-02    ;  uncertainty sigma = 0.000025, epsilon = 0.001486
 h45bf                                  1      0.0000       0.00000       A     2.62558e-01     6.70793e-02    ;  uncertainty sigma = 0.000012, epsilon = 0.000602
 h46bf                                  1      0.0000       0.00000       A     2.62560e-01     6.69889e-02    ;  uncertainty sigma = 0.000013, epsilon = 0.000439
 h47bf                                  1      0.0000       0.00000       A     2.62566e-01     6.69934e-02    ;  uncertainty sigma = 0.000012, epsilon = 0.000403
 h48bf                                  1      0.0000       0.00000       A     1.10674e-01     4.15810e-02    ;  uncertainty sigma = 0.000084, epsilon = 0.000795
 h49bf                                  1      0.0000       0.00000       A     2.53700e-01     6.73606e-02    ;  uncertainty sigma = 0.000029, epsilon = 0.000744
 h50bf                                  1      0.0000       0.00000       A     2.53590e-01     6.71067e-02    ;  uncertainty sigma = 0.000043, epsilon = 0.000735
 h51bf                                  1      0.0000       0.00000       A     2.42152e-01     8.67812e-02    ;  uncertainty sigma = 0.000040, epsilon = 0.000729
 h52bf                                  1      0.0000       0.00000       A     2.42152e-01     8.67813e-02    ;  uncertainty sigma = 0.000040, epsilon = 0.000729
 h53bf                                  1      0.0000       0.00000       A     1.10825e-01     4.49240e-02    ;  uncertainty sigma = 0.000379, epsilon = 0.003045

[ moleculetype ]
;name             nrexcl
 MOL                   3

[ atoms ]
;       nr            type      resi   res      atom      cgnr      charge          mass ; qtot
         1            c0bf         1   UNL        c0         1     0.05023       12.0110 ; qtot    0.050
         2            n1bf         1   UNL        n1         2    -0.45372       14.0070 ; qtot   -0.403
         3            c2bf         1   UNL        c2         3     0.48845       12.0110 ; qtot    0.085
         4            n3bf         1   UNL        n3         4    -0.50050       14.0070 ; qtot   -0.416
         5            n4bf         1   UNL        n4         5    -0.38291       14.0070 ; qtot   -0.798
         6            c5bf         1   UNL        c5         6     0.16845       12.0110 ; qtot   -0.630
         7            c6bf         1   UNL        c6         7    -0.11699       12.0110 ; qtot   -0.747
         8            c7bf         1   UNL        c7         8    -0.09594       12.0110 ; qtot   -0.843
         9            c8bf         1   UNL        c8         9    -0.15800       12.0110 ; qtot   -1.001
        10            c9bf         1   UNL        c9        10     0.71346       12.0110 ; qtot   -0.287
        11           o10bf         1   UNL       o10        11    -0.48981       15.9990 ; qtot   -0.777
        12           c11bf         1   UNL       c11        12    -0.14652       12.0110 ; qtot   -0.924
        13           c12bf         1   UNL       c12        13    -0.11409       12.0110 ; qtot   -1.038
        14           c13bf         1   UNL       c13        14     0.07587       12.0110 ; qtot   -0.962
        15           c14bf         1   UNL       c14        15    -0.12622       12.0110 ; qtot   -1.088
        16           c15bf         1   UNL       c15        16    -0.11732       12.0110 ; qtot   -1.206
        17           c16bf         1   UNL       c16        17     0.11591       12.0110 ; qtot   -1.090
        18           f17bf         1   UNL       f17        18    -0.14945       18.9980 ; qtot   -1.239
        19           n18bf         1   UNL       n18        19    -0.46216       14.0070 ; qtot   -1.701
        20           c19bf         1   UNL       c19        20     0.59136       12.0110 ; qtot   -1.110
        21           o20bf         1   UNL       o20        21    -0.57869       15.9990 ; qtot   -1.689
        22           c21bf         1   UNL       c21        22     0.19946       12.0110 ; qtot   -1.489
        23           c22bf         1   UNL       c22        23     0.39065       12.0110 ; qtot   -1.098
        24           n23bf         1   UNL       n23        24    -0.71368       14.0070 ; qtot   -1.812
        25           c24bf         1   UNL       c24        25     0.54824       12.0110 ; qtot   -1.264
        26           c25bf         1   UNL       c25        26     0.27468       12.0110 ; qtot   -0.989
        27           n26bf         1   UNL       n26        27    -0.60304       14.0070 ; qtot   -1.592
        28           o27bf         1   UNL       o27        28    -0.41486       15.9990 ; qtot   -2.007
        29           c28bf         1   UNL       c28        29     0.08190       12.0110 ; qtot   -1.925
        30           c29bf         1   UNL       c29        30     0.64267       12.0110 ; qtot   -1.283
        31           f30bf         1   UNL       f30        31    -0.22529       18.9980 ; qtot   -1.508
        32           f31bf         1   UNL       f31        32    -0.22529       18.9980 ; qtot   -1.733
        33           f32bf         1   UNL       f32        33    -0.22529       18.9980 ; qtot   -1.958
        34           h33bf         1   UNL       h33        34     0.08628        1.0080 ; qtot   -1.872
        35           h34bf         1   UNL       h34        35     0.08628        1.0080 ; qtot   -1.786
        36           h35bf         1   UNL       h35        36     0.08628        1.0080 ; qtot   -1.700
        37           h36bf         1   UNL       h36        37     0.33294        1.0080 ; qtot   -1.367
        38           h37bf         1   UNL       h37        38     0.33294        1.0080 ; qtot   -1.034
        39           h38bf         1   UNL       h38        39     0.06750        1.0080 ; qtot   -0.966
        40           h39bf         1   UNL       h39        40     0.06750        1.0080 ; qtot   -0.899
        41           h40bf         1   UNL       h40        41     0.06750        1.0080 ; qtot   -0.831
        42           h41bf         1   UNL       h41        42     0.08301        1.0080 ; qtot   -0.748
        43           h42bf         1   UNL       h42        43     0.08301        1.0080 ; qtot   -0.665
        44           h43bf         1   UNL       h43        44     0.10284        1.0080 ; qtot   -0.562
        45           h44bf         1   UNL       h44        45     0.10284        1.0080 ; qtot   -0.460
        46           h45bf         1   UNL       h45        46     0.16329        1.0080 ; qtot   -0.296
        47           h46bf         1   UNL       h46        47     0.15920        1.0080 ; qtot   -0.137
        48           h47bf         1   UNL       h47        48     0.16669        1.0080 ; qtot    0.030
        49           h48bf         1   UNL       h48        49     0.34793        1.0080 ; qtot    0.378
        50           h49bf         1   UNL       h49        50     0.05731        1.0080 ; qtot    0.435
        51           h50bf         1   UNL       h50        51     0.04926        1.0080 ; qtot    0.484
        52           h51bf         1   UNL       h51        52     0.09580        1.0080 ; qtot    0.580
        53           h52bf         1   UNL       h52        53     0.09580        1.0080 ; qtot    0.676
        54           h53bf         1   UNL       h53        54     0.32424        1.0080 ; qtot    1.000

[ bonds ]
;       ai        aj funct               r               k
         1         2     1        0.147625   252641.074609    ;  uncertainty r = 0.000231, k = 28.664330
         1        34     1        0.109124   307806.849023    ;  uncertainty r = 0.000024, k = 2.336780
         1        35     1        0.109124   307806.849023    ;  uncertainty r = 0.000024, k = 2.336780
         1        36     1        0.109124   307806.849023    ;  uncertainty r = 0.000024, k = 2.336780
         2         3     1        0.136571   315852.315332    ;  uncertainty r = 0.000279, k = 74.694399
         2        10     1        0.144720   259473.119629    ;  uncertainty r = 0.000699, k = 32.665451
         3         4     1        0.134791   321962.630566    ;  uncertainty r = 0.000135, k = 72.872311
         3         5     1        0.133524   551037.754199    ;  uncertainty r = 0.000349, k = 65.892201
         4        37     1        0.101342   416981.362500    ;  uncertainty r = 0.000070, k = 7.128664
         4        38     1        0.101342   416981.362500    ;  uncertainty r = 0.000070, k = 7.128664
         5         6     1        0.149699   215459.911621    ;  uncertainty r = 0.000235, k = 21.255699
         5        54     1        0.101450   445291.086914    ;  uncertainty r = 0.000296, k = 16.403459
         6         7     1        0.153544   199542.618579    ;  uncertainty r = 0.000121, k = 11.274554
         6         8     1        0.153508   197198.580078    ;  uncertainty r = 0.000344, k = 13.018727
         6        12     1        0.151936   207646.424414    ;  uncertainty r = 0.000356, k = 16.785752
         7        39     1        0.109419   312012.657715    ;  uncertainty r = 0.000036, k = 2.504848
         7        40     1        0.109419   312012.657715    ;  uncertainty r = 0.000036, k = 2.504848
         7        41     1        0.109419   312012.657715    ;  uncertainty r = 0.000036, k = 2.504848
         8         9     1        0.153102   211765.228174    ;  uncertainty r = 0.000186, k = 12.495007
         8        42     1        0.109436   311381.763428    ;  uncertainty r = 0.000047, k = 2.720739
         8        43     1        0.109436   311381.763428    ;  uncertainty r = 0.000047, k = 2.720739
         9        10     1        0.150869   211235.677905    ;  uncertainty r = 0.000281, k = 14.070386
         9        44     1        0.109342   313609.135645    ;  uncertainty r = 0.000059, k = 2.756480
         9        45     1        0.109342   313609.135645    ;  uncertainty r = 0.000059, k = 2.756480
        10        11     1        0.120632   623606.302539    ;  uncertainty r = 0.000472, k = 67.975514
        12        13     1        0.139253   348185.258105    ;  uncertainty r = 0.000103, k = 4.735757
        12        17     1        0.139303   338583.739111    ;  uncertainty r = 0.000120, k = 5.435327
        13        14     1        0.140091   350158.663770    ;  uncertainty r = 0.000134, k = 6.810363
        13        46     1        0.108619   335255.717480    ;  uncertainty r = 0.000039, k = 2.433389
        14        15     1        0.140109   351912.067236    ;  uncertainty r = 0.000070, k = 3.568780
        14        19     1        0.140342   325096.416943    ;  uncertainty r = 0.000051, k = 11.829612
        15        16     1        0.138902   378821.362109    ;  uncertainty r = 0.000043, k = 4.830101
        15        47     1        0.108597   335962.814502    ;  uncertainty r = 0.000021, k = 2.800175
        16        17     1        0.138802   358748.300342    ;  uncertainty r = 0.000081, k = 6.406726
        16        48     1        0.108727   335204.438965    ;  uncertainty r = 0.000006, k = 0.932601
        17        18     1        0.136412   335839.521338    ;  uncertainty r = 0.000066, k = 5.119223
        19        20     1        0.136451   274747.477637    ;  uncertainty r = 0.000096, k = 19.567053
        19        49     1        0.101961   419155.004639    ;  uncertainty r = 0.000053, k = 6.161381
        20        21     1        0.123456   666741.749023    ;  uncertainty r = 0.000061, k = 4.842820
        20        22     1        0.149503   244951.187012    ;  uncertainty r = 0.000133, k = 20.899772
        22        23     1        0.138810   353774.080029    ;  uncertainty r = 0.000078, k = 20.234856
        22        27     1        0.133426   449310.627930    ;  uncertainty r = 0.000140, k = 18.294940
        23        24     1        0.132809   433907.103223    ;  uncertainty r = 0.000157, k = 14.555683
        23        50     1        0.108820   336159.041650    ;  uncertainty r = 0.000035, k = 1.832041
        24        25     1        0.131717   397252.081299    ;  uncertainty r = 0.000099, k = 8.658433
        25        26     1        0.139447   396232.307910    ;  uncertainty r = 0.000242, k = 8.193121
        25        28     1        0.135474   299667.482764    ;  uncertainty r = 0.000070, k = 6.420436
        26        27     1        0.131738   433834.526758    ;  uncertainty r = 0.000165, k = 13.706079
        26        51     1        0.109143   343830.261621    ;  uncertainty r = 0.000068, k = 3.095741
        28        29     1        0.139992   260938.132520    ;  uncertainty r = 0.000073, k = 7.051748
        29        30     1        0.151846   206261.470361    ;  uncertainty r = 0.000128, k = 5.197010
        29        52     1        0.109429   313079.981201    ;  uncertainty r = 0.000042, k = 3.110651
        29        53     1        0.109429   313079.981201    ;  uncertainty r = 0.000042, k = 3.110651
        30        31     1        0.134832   295855.379688    ;  uncertainty r = 0.000102, k = 4.776596
        30        32     1        0.134832   295855.379688    ;  uncertainty r = 0.000102, k = 4.776596
        30        33     1        0.134832   295855.379688    ;  uncertainty r = 0.000102, k = 4.776596

[ angles ]
;       ai        aj        ak funct           theta             cth
         1         2         3     1      114.117699      429.402727    ;  uncertainty theta = 0.009880, k = 0.289003
         1         2        10     1      114.554733      434.836609    ;  uncertainty theta = 0.015213, k = 0.157967
         2         1        34     1      107.636124      465.529757    ;  uncertainty theta = 0.001570, k = 0.169718
         2         1        35     1      107.636124      465.529757    ;  uncertainty theta = 0.001570, k = 0.169718
         2         1        36     1      107.636124      465.529757    ;  uncertainty theta = 0.001570, k = 0.169718
         2         3         4     1      120.154373      629.293110    ;  uncertainty theta = 0.009306, k = 0.317929
         2         3         5     1      123.468224      570.338140    ;  uncertainty theta = 0.017909, k = 0.573868
         2        10         9     1      115.335144      395.409866    ;  uncertainty theta = 0.008781, k = 0.262282
         2        10        11     1      121.653854      714.518425    ;  uncertainty theta = 0.003187, k = 0.110818
         3         2        10     1      122.699234      430.646576    ;  uncertainty theta = 0.014933, k = 0.172936
         3         4        37     1      115.658508      376.575386    ;  uncertainty theta = 0.003463, k = 0.190735
         3         4        38     1      115.658508      376.575386    ;  uncertainty theta = 0.003463, k = 0.190735
         3         5         6     1      123.204468      385.424186    ;  uncertainty theta = 0.016540, k = 0.475449
         3         5        54     1      115.603371      396.281480    ;  uncertainty theta = 0.021927, k = 0.255538
         4         3         5     1      122.487000      721.206466    ;  uncertainty theta = 0.019933, k = 0.309454
         5         6         7     1      107.837570      681.896747    ;  uncertainty theta = 0.005671, k = 0.139918
         5         6         8     1      107.673256      646.717527    ;  uncertainty theta = 0.007791, k = 0.199795
         5         6        12     1      107.412514      621.465476    ;  uncertainty theta = 0.012255, k = 0.211581
         6         5        54     1      114.211166      309.979361    ;  uncertainty theta = 0.008667, k = 0.223098
         6         7        39     1      107.137794      385.375729    ;  uncertainty theta = 0.001348, k = 0.102848
         6         7        40     1      107.137794      385.375729    ;  uncertainty theta = 0.001348, k = 0.102848
         6         7        41     1      107.137794      385.375729    ;  uncertainty theta = 0.001348, k = 0.102848
         6         8         9     1      110.561913      570.464804    ;  uncertainty theta = 0.005716, k = 0.076135
         6         8        42     1      106.535728      395.295747    ;  uncertainty theta = 0.001994, k = 0.082186
         6         8        43     1      106.535728      395.295747    ;  uncertainty theta = 0.001994, k = 0.082186
         6        12        13     1      118.160622      371.952659    ;  uncertainty theta = 0.007816, k = 0.185952
         6        12        17     1      117.339310      380.935592    ;  uncertainty theta = 0.008259, k = 0.164863
         7         6         8     1      109.752075      566.393039    ;  uncertainty theta = 0.003303, k = 0.073867
         7         6        12     1      110.246925      569.487690    ;  uncertainty theta = 0.006375, k = 0.192033
         8         6        12     1      109.669945      559.158376    ;  uncertainty theta = 0.006744, k = 0.133779
         8         9        10     1      110.047020      528.223297    ;  uncertainty theta = 0.004793, k = 0.187389
         8         9        44     1      108.858170      394.132276    ;  uncertainty theta = 0.001485, k = 0.113133
         8         9        45     1      108.858170      394.132276    ;  uncertainty theta = 0.001485, k = 0.113133
         9         8        42     1      108.090942      403.325891    ;  uncertainty theta = 0.000760, k = 0.077762
         9         8        43     1      108.090942      403.325891    ;  uncertainty theta = 0.000760, k = 0.077762
         9        10        11     1      125.693771      534.976074    ;  uncertainty theta = 0.009642, k = 0.357145
        10         9        44     1      105.814087      374.602772    ;  uncertainty theta = 0.006493, k = 0.155405
        10         9        45     1      105.814087      374.602772    ;  uncertainty theta = 0.006493, k = 0.155405
        12        13        14     1      122.235275      500.310885    ;  uncertainty theta = 0.002527, k = 0.117427
        12        13        46     1      117.406876      277.414216    ;  uncertainty theta = 0.003826, k = 0.109813
        12        17        16     1      124.602089      368.834258    ;  uncertainty theta = 0.006049, k = 0.304399
        12        17        18     1      115.906311      485.557139    ;  uncertainty theta = 0.002441, k = 0.063746
        13        12        17     1      121.533424      429.551385    ;  uncertainty theta = 0.004793, k = 0.104333
        13        14        15     1      120.372963      380.911268    ;  uncertainty theta = 0.008429, k = 0.197715
        13        14        19     1      119.078903      510.765873    ;  uncertainty theta = 0.006224, k = 0.047533
        14        13        46     1      118.493370      278.036715    ;  uncertainty theta = 0.002363, k = 0.083462
        14        15        16     1      118.861755      498.906663    ;  uncertainty theta = 0.003008, k = 0.116802
        14        15        47     1      118.868835      266.398225    ;  uncertainty theta = 0.001098, k = 0.060165
        14        19        20     1      116.801979      453.966139    ;  uncertainty theta = 0.005577, k = 0.052196
        14        19        49     1      113.311768      314.967557    ;  uncertainty theta = 0.005724, k = 0.101450
        15        14        19     1      119.850998      513.547024    ;  uncertainty theta = 0.004206, k = 0.153745
        15        16        17     1      119.693542      461.987600    ;  uncertainty theta = 0.002498, k = 0.231018
        15        16        48     1      121.220444      274.008044    ;  uncertainty theta = 0.002911, k = 0.017448
        16        15        47     1      120.292641      314.892669    ;  uncertainty theta = 0.001376, k = 0.079280
        16        17        18     1      118.251846      529.416199    ;  uncertainty theta = 0.002732, k = 0.198525
        17        16        48     1      119.857742      273.848118    ;  uncertainty theta = 0.001026, k = 0.039967
        19        20        21     1      122.928757      763.627180    ;  uncertainty theta = 0.001976, k = 0.061866
        19        20        22     1      111.544640      457.789299    ;  uncertainty theta = 0.003093, k = 0.109064
        20        19        49     1      116.931152      347.082451    ;  uncertainty theta = 0.004344, k = 0.137958
        20        22        23     1      121.976074      368.322654    ;  uncertainty theta = 0.006440, k = 0.125014
        20        22        27     1      116.233383      394.322145    ;  uncertainty theta = 0.005991, k = 0.221246
        21        20        22     1      121.462402      520.963926    ;  uncertainty theta = 0.002051, k = 0.123901
        22        23        24     1      121.936569      606.516946    ;  uncertainty theta = 0.003428, k = 0.186871
        22        23        50     1      120.281090      242.713466    ;  uncertainty theta = 0.006191, k = 0.102496
        22        27        26     1      120.774231      476.888663    ;  uncertainty theta = 0.005204, k = 0.200613
        23        22        27     1      121.923195      525.611936    ;  uncertainty theta = 0.004585, k = 0.116652
        23        24        25     1      114.997879      403.947113    ;  uncertainty theta = 0.009495, k = 0.173648
        24        23        50     1      119.325340      321.627124    ;  uncertainty theta = 0.003766, k = 0.192304
        24        25        26     1      120.527809      454.805033    ;  uncertainty theta = 0.006400, k = 0.191737
        24        25        28     1      118.876404      582.522405    ;  uncertainty theta = 0.003166, k = 0.155666
        25        26        27     1      119.644920      565.351253    ;  uncertainty theta = 0.002785, k = 0.088577
        25        26        51     1      122.972672      264.069289    ;  uncertainty theta = 0.006591, k = 0.083364
        25        28        29     1      108.883347      492.001333    ;  uncertainty theta = 0.004482, k = 0.145839
        26        25        28     1      118.668640      403.281648    ;  uncertainty theta = 0.011208, k = 0.186133
        27        26        51     1      118.557945      337.041451    ;  uncertainty theta = 0.004957, k = 0.210468
        28        29        30     1      102.797157      468.691826    ;  uncertainty theta = 0.004217, k = 0.144067
        28        29        52     1      107.322937      403.068477    ;  uncertainty theta = 0.002306, k = 0.063659
        28        29        53     1      107.322937      403.068477    ;  uncertainty theta = 0.002306, k = 0.063659
        29        30        31     1      113.173218      595.834070    ;  uncertainty theta = 0.004108, k = 0.085474
        29        30        32     1      113.173218      595.834070    ;  uncertainty theta = 0.004108, k = 0.085474
        29        30        33     1      113.173218      595.834070    ;  uncertainty theta = 0.004108, k = 0.085474
        30        29        52     1      108.705444      414.357539    ;  uncertainty theta = 0.001480, k = 0.098024
        30        29        53     1      108.705444      414.357539    ;  uncertainty theta = 0.001480, k = 0.098024
        31        30        32     1      109.017136      786.943454    ;  uncertainty theta = 0.002615, k = 0.019884
        31        30        33     1      109.017136      786.943454    ;  uncertainty theta = 0.002615, k = 0.019884
        32        30        33     1      109.017136      786.943454    ;  uncertainty theta = 0.002615, k = 0.019884
        34         1        35     1      107.310486      325.671628    ;  uncertainty theta = 0.003548, k = 0.054329
        34         1        36     1      107.310486      325.671628    ;  uncertainty theta = 0.003548, k = 0.054329
        35         1        36     1      107.310486      325.671628    ;  uncertainty theta = 0.003548, k = 0.054329
        37         4        38     1      112.259262      265.146396    ;  uncertainty theta = 0.011954, k = 0.229436
        39         7        40     1      105.977173      316.034561    ;  uncertainty theta = 0.001782, k = 0.018403
        39         7        41     1      105.977173      316.034561    ;  uncertainty theta = 0.001782, k = 0.018403
        40         7        41     1      105.977173      316.034561    ;  uncertainty theta = 0.001782, k = 0.018403
        42         8        43     1      106.209267      322.786892    ;  uncertainty theta = 0.003922, k = 0.114280
        44         9        45     1      106.429520      312.762236    ;  uncertainty theta = 0.004050, k = 0.139477
        52        29        53     1      109.661987      325.289146    ;  uncertainty theta = 0.004618, k = 0.082725

[ dihedrals ] ; propers for gromacs 4.5 or higher, use funct 9
;       ai        aj        ak        al funct           phase               k        pn
         1         2         3         4     9        0.000000        0.951551         1    ;  uncertainty k = 1.698473
         1         2         3         4     9      180.000000       11.021390         2    ;  uncertainty k = 0.551113
         1         2         3         4     9        0.000000        0.637398         3    ;  uncertainty k = 0.915553
         1         2         3         4     9      180.000000       -0.314852         4    ;  uncertainty k = 0.319934
         1         2         3         5     9        0.000000        2.577941         1    ;  uncertainty k = 4.018395
         1         2         3         5     9      180.000000        9.754567         2    ;  uncertainty k = 0.895511
         1         2         3         5     9        0.000000       -0.135377         3    ;  uncertainty k = 0.697927
         1         2         3         5     9      180.000000       -0.464172         4    ;  uncertainty k = 0.479429
         1         2        10         9     9        0.000000        2.998792         1    ;  uncertainty k = 1.459777
         1         2        10         9     9      180.000000        4.736235         2    ;  uncertainty k = 0.796593
         1         2        10         9     9        0.000000        0.588787         3    ;  uncertainty k = 0.538972
         1         2        10         9     9      180.000000        0.468451         4    ;  uncertainty k = 0.286842
         1         2        10        11     9        0.000000        2.489503         1    ;  uncertainty k = 2.825473
         1         2        10        11     9      180.000000       12.245924         2    ;  uncertainty k = 0.282254
         1         2        10        11     9        0.000000        0.974939         3    ;  uncertainty k = 0.597413
         1         2        10        11     9      180.000000        0.326277         4    ;  uncertainty k = 0.333660
         2         3         4        37     9        0.000000        8.480672         1    ;  uncertainty k = 3.014674
         2         3         4        37     9      180.000000        9.189303         2    ;  uncertainty k = 0.650778
         2         3         4        37     9        0.000000        0.969831         3    ;  uncertainty k = 0.701973
         2         3         4        37     9      180.000000       -1.138735         4    ;  uncertainty k = 0.488312
         2         3         4        38     9        0.000000        8.480672         1    ;  uncertainty k = 3.014674
         2         3         4        38     9      180.000000        9.189303         2    ;  uncertainty k = 0.650778
         2         3         4        38     9        0.000000        0.969831         3    ;  uncertainty k = 0.701973
         2         3         4        38     9      180.000000       -1.138735         4    ;  uncertainty k = 0.488312
         2         3         5         6     9        0.000000       13.173742         1    ;  uncertainty k = 1.581313
         2         3         5         6     9      180.000000        3.974279         2    ;  uncertainty k = 2.192057
         2         3         5         6     9        0.000000       -0.391199         3    ;  uncertainty k = 0.699426
         2         3         5         6     9      180.000000        0.096404         4    ;  uncertainty k = 0.258751
         2         3         5        54     9        0.000000        3.189848         1    ;  uncertainty k = 2.808644
         2         3         5        54     9      180.000000        9.352453         2    ;  uncertainty k = 1.341893
         2         3         5        54     9        0.000000        1.212714         3    ;  uncertainty k = 1.346302
         2         3         5        54     9      180.000000       -1.082983         4    ;  uncertainty k = 0.440482
         2        10         9         8     9        0.000000        0.848915         1    ;  uncertainty k = 2.158626
         2        10         9         8     9      180.000000        5.868864         2    ;  uncertainty k = 0.876716
         2        10         9         8     9        0.000000       -0.258448         3    ;  uncertainty k = 0.459098
         2        10         9         8     9      180.000000       -0.331677         4    ;  uncertainty k = 0.414136
         2        10         9        44     9        0.000000       -2.240675         1    ;  uncertainty k = 0.699631
         2        10         9        44     9      180.000000        2.160439         2    ;  uncertainty k = 0.404874
         2        10         9        44     9        0.000000        0.224490         3    ;  uncertainty k = 0.276680
         2        10         9        44     9      180.000000        0.096463         4    ;  uncertainty k = 0.069084
         2        10         9        45     9        0.000000       -2.240675         1    ;  uncertainty k = 0.699631
         2        10         9        45     9      180.000000        2.160439         2    ;  uncertainty k = 0.404874
         2        10         9        45     9        0.000000        0.224490         3    ;  uncertainty k = 0.276680
         2        10         9        45     9      180.000000        0.096463         4    ;  uncertainty k = 0.069084
         3         2         1        34     9        0.000000        0.004730         1    ;  uncertainty k = 0.659060
         3         2         1        34     9      180.000000       -0.904790         2    ;  uncertainty k = 0.615566
         3         2         1        34     9        0.000000        0.112158         3    ;  uncertainty k = 0.248692
         3         2         1        34     9      180.000000        0.272116         4    ;  uncertainty k = 0.100229
         3         2         1        35     9        0.000000        0.004730         1    ;  uncertainty k = 0.659060
         3         2         1        35     9      180.000000       -0.904790         2    ;  uncertainty k = 0.615566
         3         2         1        35     9        0.000000        0.112158         3    ;  uncertainty k = 0.248692
         3         2         1        35     9      180.000000        0.272116         4    ;  uncertainty k = 0.100229
         3         2         1        36     9        0.000000        0.004730         1    ;  uncertainty k = 0.659060
         3         2         1        36     9      180.000000       -0.904790         2    ;  uncertainty k = 0.615566
         3         2         1        36     9        0.000000        0.112158         3    ;  uncertainty k = 0.248692
         3         2         1        36     9      180.000000        0.272116         4    ;  uncertainty k = 0.100229
         3         2        10         9     9        0.000000        9.076439         1    ;  uncertainty k = 2.183994
         3         2        10         9     9      180.000000       -2.227940         2    ;  uncertainty k = 3.017098
         3         2        10         9     9        0.000000       -0.812394         3    ;  uncertainty k = 0.675846
         3         2        10         9     9      180.000000        0.479154         4    ;  uncertainty k = 0.258438
         3         2        10        11     9        0.000000        7.306875         1    ;  uncertainty k = 1.274709
         3         2        10        11     9      180.000000        7.400645         2    ;  uncertainty k = 0.953584
         3         2        10        11     9        0.000000        0.980084         3    ;  uncertainty k = 0.408672
         3         2        10        11     9      180.000000        0.382119         4    ;  uncertainty k = 0.238421
         3         5         6         7     9        0.000000       -2.311657         1    ;  uncertainty k = 1.839640
         3         5         6         7     9      180.000000        0.484251         2    ;  uncertainty k = 1.367911
         3         5         6         7     9        0.000000        0.179340         3    ;  uncertainty k = 0.312996
         3         5         6         7     9      180.000000        0.145678         4    ;  uncertainty k = 0.264749
         3         5         6         8     9        0.000000        6.121982         1    ;  uncertainty k = 2.553139
         3         5         6         8     9      180.000000        1.690279         2    ;  uncertainty k = 1.138502
         3         5         6         8     9        0.000000       -0.631741         3    ;  uncertainty k = 0.476919
         3         5         6         8     9      180.000000       -0.251151         4    ;  uncertainty k = 0.270463
         3         5         6        12     9        0.000000       -0.159080         1    ;  uncertainty k = 1.167092
         3         5         6        12     9      180.000000       -0.403352         2    ;  uncertainty k = 0.649315
         3         5         6        12     9        0.000000       -0.035675         3    ;  uncertainty k = 0.149916
         3         5         6        12     9      180.000000        0.145270         4    ;  uncertainty k = 0.333430
         4         3         2        10     9        0.000000        2.488486         1    ;  uncertainty k = 2.538627
         4         3         2        10     9      180.000000        3.788044         2    ;  uncertainty k = 1.317538
         4         3         2        10     9        0.000000       -0.103364         3    ;  uncertainty k = 0.521658
         4         3         2        10     9      180.000000       -0.063596         4    ;  uncertainty k = 0.395872
         4         3         5         6     9        0.000000        6.232866         1    ;  uncertainty k = 2.095378
         4         3         5         6     9      180.000000        7.845572         2    ;  uncertainty k = 1.279283
         4         3         5         6     9        0.000000        0.444476         3    ;  uncertainty k = 0.400532
         4         3         5         6     9      180.000000       -0.533349         4    ;  uncertainty k = 0.394875
         4         3         5        54     9        0.000000        2.736624         1    ;  uncertainty k = 3.841034
         4         3         5        54     9      180.000000       10.698326         2    ;  uncertainty k = 0.431066
         4         3         5        54     9        0.000000        1.592982         3    ;  uncertainty k = 0.915922
         4         3         5        54     9      180.000000       -0.612913         4    ;  uncertainty k = 0.270695
         5         3         2        10     9        0.000000       14.249517         1    ;  uncertainty k = 1.624851
         5         3         2        10     9      180.000000        1.429594         2    ;  uncertainty k = 1.832467
         5         3         2        10     9        0.000000       -1.712453         3    ;  uncertainty k = 0.396966
         5         3         2        10     9      180.000000        0.238758         4    ;  uncertainty k = 0.810790
         5         3         4        37     9        0.000000        5.763904         1    ;  uncertainty k = 3.279140
         5         3         4        37     9      180.000000        9.379464         2    ;  uncertainty k = 0.551621
         5         3         4        37     9        0.000000        1.122057         3    ;  uncertainty k = 0.481671
         5         3         4        37     9      180.000000       -0.826898         4    ;  uncertainty k = 0.491887
         5         3         4        38     9        0.000000        5.763904         1    ;  uncertainty k = 3.279140
         5         3         4        38     9      180.000000        9.379464         2    ;  uncertainty k = 0.551621
         5         3         4        38     9        0.000000        1.122057         3    ;  uncertainty k = 0.481671
         5         3         4        38     9      180.000000       -0.826898         4    ;  uncertainty k = 0.491887
         5         6         7        39     9        0.000000       -1.066568         1    ;  uncertainty k = 0.311888
         5         6         7        39     9      180.000000       -1.494514         2    ;  uncertainty k = 0.784918
         5         6         7        39     9        0.000000        0.848349         3    ;  uncertainty k = 0.173252
         5         6         7        39     9      180.000000       -0.198133         4    ;  uncertainty k = 0.183842
         5         6         7        40     9        0.000000       -1.066568         1    ;  uncertainty k = 0.311888
         5         6         7        40     9      180.000000       -1.494514         2    ;  uncertainty k = 0.784918
         5         6         7        40     9        0.000000        0.848349         3    ;  uncertainty k = 0.173252
         5         6         7        40     9      180.000000       -0.198133         4    ;  uncertainty k = 0.183842
         5         6         7        41     9        0.000000       -1.066568         1    ;  uncertainty k = 0.311888
         5         6         7        41     9      180.000000       -1.494514         2    ;  uncertainty k = 0.784918
         5         6         7        41     9        0.000000        0.848349         3    ;  uncertainty k = 0.173252
         5         6         7        41     9      180.000000       -0.198133         4    ;  uncertainty k = 0.183842
         5         6         8         9     9        0.000000        5.738306         1    ;  uncertainty k = 2.360436
         5         6         8         9     9      180.000000        2.367061         2    ;  uncertainty k = 1.555548
         5         6         8         9     9        0.000000        0.679972         3    ;  uncertainty k = 0.584877
         5         6         8         9     9      180.000000       -0.412176         4    ;  uncertainty k = 0.213282
         5         6         8        42     9        0.000000       -0.742189         1    ;  uncertainty k = 0.580060
         5         6         8        42     9      180.000000       -0.978354         2    ;  uncertainty k = 0.467690
         5         6         8        42     9        0.000000        0.178179         3    ;  uncertainty k = 0.122199
         5         6         8        42     9      180.000000       -0.092352         4    ;  uncertainty k = 0.215306
         5         6         8        43     9        0.000000       -0.742189         1    ;  uncertainty k = 0.580060
         5         6         8        43     9      180.000000       -0.978354         2    ;  uncertainty k = 0.467690
         5         6         8        43     9        0.000000        0.178179         3    ;  uncertainty k = 0.122199
         5         6         8        43     9      180.000000       -0.092352         4    ;  uncertainty k = 0.215306
         5         6        12        13     9        0.000000       -0.114864         1    ;  uncertainty k = 1.293514
         5         6        12        13     9      180.000000        2.916773         2    ;  uncertainty k = 0.421430
         5         6        12        13     9        0.000000       -0.007830         3    ;  uncertainty k = 0.274605
         5         6        12        13     9      180.000000        0.251943         4    ;  uncertainty k = 0.145613
         5         6        12        17     9        0.000000       -0.054006         1    ;  uncertainty k = 1.686711
         5         6        12        17     9      180.000000        2.263003         2    ;  uncertainty k = 1.198011
         5         6        12        17     9        0.000000        0.553929         3    ;  uncertainty k = 0.392540
         5         6        12        17     9      180.000000        0.190259         4    ;  uncertainty k = 0.031587
         6         8         9        10     9        0.000000        6.284549         1    ;  uncertainty k = 2.303713
         6         8         9        10     9      180.000000        0.738779         2    ;  uncertainty k = 2.227119
         6         8         9        10     9        0.000000        0.250042         3    ;  uncertainty k = 0.841620
         6         8         9        10     9      180.000000       -0.400584         4    ;  uncertainty k = 0.150071
         6         8         9        44     9        0.000000        0.253965         1    ;  uncertainty k = 0.498435
         6         8         9        44     9      180.000000       -0.695175         2    ;  uncertainty k = 0.524386
         6         8         9        44     9        0.000000        0.574503         3    ;  uncertainty k = 0.379673
         6         8         9        44     9      180.000000       -0.101683         4    ;  uncertainty k = 0.105009
         6         8         9        45     9        0.000000        0.253965         1    ;  uncertainty k = 0.498435
         6         8         9        45     9      180.000000       -0.695175         2    ;  uncertainty k = 0.524386
         6         8         9        45     9        0.000000        0.574503         3    ;  uncertainty k = 0.379673
         6         8         9        45     9      180.000000       -0.101683         4    ;  uncertainty k = 0.105009
         6        12        13        14     9        0.000000        0.196862         1    ;  uncertainty k = 0.259118
         6        12        13        14     9      180.000000        8.056278         2    ;  uncertainty k = 0.442424
         6        12        13        14     9        0.000000        1.537000         3    ;  uncertainty k = 0.265047
         6        12        13        14     9      180.000000        1.944923         4    ;  uncertainty k = 0.219197
         6        12        13        46     9        0.000000        0.134606         1    ;  uncertainty k = 0.159981
         6        12        13        46     9      180.000000        7.780478         2    ;  uncertainty k = 0.231732
         6        12        13        46     9        0.000000        0.658026         3    ;  uncertainty k = 0.368605
         6        12        13        46     9      180.000000        1.076312         4    ;  uncertainty k = 0.148581
         6        12        17        16     9        0.000000        0.587979         1    ;  uncertainty k = 0.570259
         6        12        17        16     9      180.000000        6.565547         2    ;  uncertainty k = 0.118016
         6        12        17        16     9        0.000000        1.125495         3    ;  uncertainty k = 0.165124
         6        12        17        16     9      180.000000        1.638939         4    ;  uncertainty k = 0.202891
         6        12        17        18     9        0.000000        0.115111         1    ;  uncertainty k = 0.284947
         6        12        17        18     9      180.000000       10.269329         2    ;  uncertainty k = 0.372705
         6        12        17        18     9        0.000000        1.015671         3    ;  uncertainty k = 0.265813
         6        12        17        18     9      180.000000        1.292632         4    ;  uncertainty k = 0.165754
         7         6         5        54     9        0.000000        0.188212         1    ;  uncertainty k = 0.907464
         7         6         5        54     9      180.000000       -0.833502         2    ;  uncertainty k = 0.486975
         7         6         5        54     9        0.000000        0.483901         3    ;  uncertainty k = 0.237092
         7         6         5        54     9      180.000000        0.216911         4    ;  uncertainty k = 0.086885
         7         6         8         9     9        0.000000       -2.542885         1    ;  uncertainty k = 1.347726
         7         6         8         9     9      180.000000        1.424770         2    ;  uncertainty k = 0.658004
         7         6         8         9     9        0.000000        0.253998         3    ;  uncertainty k = 0.328828
         7         6         8         9     9      180.000000       -0.106043         4    ;  uncertainty k = 0.131544
         7         6         8        42     9        0.000000       -0.972446         1    ;  uncertainty k = 0.364717
         7         6         8        42     9      180.000000        0.267196         2    ;  uncertainty k = 0.300813
         7         6         8        42     9        0.000000        0.370641         3    ;  uncertainty k = 0.079448
         7         6         8        42     9      180.000000       -0.070108         4    ;  uncertainty k = 0.076946
         7         6         8        43     9        0.000000       -0.972446         1    ;  uncertainty k = 0.364717
         7         6         8        43     9      180.000000        0.267196         2    ;  uncertainty k = 0.300813
         7         6         8        43     9        0.000000        0.370641         3    ;  uncertainty k = 0.079448
         7         6         8        43     9      180.000000       -0.070108         4    ;  uncertainty k = 0.076946
         7         6        12        13     9        0.000000       -0.513928         1    ;  uncertainty k = 0.689948
         7         6        12        13     9      180.000000        2.798233         2    ;  uncertainty k = 0.345727
         7         6        12        13     9        0.000000        0.076159         3    ;  uncertainty k = 0.194004
         7         6        12        13     9      180.000000        0.208707         4    ;  uncertainty k = 0.159213
         7         6        12        17     9        0.000000       -0.078864         1    ;  uncertainty k = 0.342801
         7         6        12        17     9      180.000000        2.707417         2    ;  uncertainty k = 0.431466
         7         6        12        17     9        0.000000        0.605138         3    ;  uncertainty k = 0.122737
         7         6        12        17     9      180.000000        0.225734         4    ;  uncertainty k = 0.054459
         8         6         5        54     9        0.000000       -0.728195         1    ;  uncertainty k = 1.383285
         8         6         5        54     9      180.000000       -2.231858         2    ;  uncertainty k = 1.093815
         8         6         5        54     9        0.000000        0.045356         3    ;  uncertainty k = 0.363652
         8         6         5        54     9      180.000000        0.232165         4    ;  uncertainty k = 0.105805
         8         6         7        39     9        0.000000       -0.850394         1    ;  uncertainty k = 0.789261
         8         6         7        39     9      180.000000       -0.412261         2    ;  uncertainty k = 0.222465
         8         6         7        39     9        0.000000        0.707021         3    ;  uncertainty k = 0.150824
         8         6         7        39     9      180.000000       -0.094141         4    ;  uncertainty k = 0.065682
         8         6         7        40     9        0.000000       -0.850394         1    ;  uncertainty k = 0.789261
         8         6         7        40     9      180.000000       -0.412261         2    ;  uncertainty k = 0.222465
         8         6         7        40     9        0.000000        0.707021         3    ;  uncertainty k = 0.150824
         8         6         7        40     9      180.000000       -0.094141         4    ;  uncertainty k = 0.065682
         8         6         7        41     9        0.000000       -0.850394         1    ;  uncertainty k = 0.789261
         8         6         7        41     9      180.000000       -0.412261         2    ;  uncertainty k = 0.222465
         8         6         7        41     9        0.000000        0.707021         3    ;  uncertainty k = 0.150824
         8         6         7        41     9      180.000000       -0.094141         4    ;  uncertainty k = 0.065682
         8         6        12        13     9        0.000000       -0.432638         1    ;  uncertainty k = 0.300896
         8         6        12        13     9      180.000000        2.918252         2    ;  uncertainty k = 0.384587
         8         6        12        13     9        0.000000        0.020662         3    ;  uncertainty k = 0.296216
         8         6        12        13     9      180.000000        0.282039         4    ;  uncertainty k = 0.042213
         8         6        12        17     9        0.000000       -0.488621         1    ;  uncertainty k = 0.470815
         8         6        12        17     9      180.000000        3.238693         2    ;  uncertainty k = 0.495350
         8         6        12        17     9        0.000000        0.516380         3    ;  uncertainty k = 0.144705
         8         6        12        17     9      180.000000        0.244990         4    ;  uncertainty k = 0.090416
         8         9        10        11     9        0.000000       -1.417159         1    ;  uncertainty k = 1.398150
         8         9        10        11     9      180.000000        2.175251         2    ;  uncertainty k = 0.912133
         8         9        10        11     9        0.000000        1.502620         3    ;  uncertainty k = 0.366532
         8         9        10        11     9      180.000000        0.044903         4    ;  uncertainty k = 0.298947
         9         8         6        12     9        0.000000       -1.130574         1    ;  uncertainty k = 0.906407
         9         8         6        12     9      180.000000        0.314191         2    ;  uncertainty k = 0.545103
         9         8         6        12     9        0.000000        0.486814         3    ;  uncertainty k = 0.346118
         9         8         6        12     9      180.000000       -0.077411         4    ;  uncertainty k = 0.084341
        10         2         1        34     9        0.000000       -0.143880         1    ;  uncertainty k = 0.460664
        10         2         1        34     9      180.000000       -0.517503         2    ;  uncertainty k = 0.259321
        10         2         1        34     9        0.000000        0.428362         3    ;  uncertainty k = 0.205180
        10         2         1        34     9      180.000000        0.421241         4    ;  uncertainty k = 0.045065
        10         2         1        35     9        0.000000       -0.143880         1    ;  uncertainty k = 0.460664
        10         2         1        35     9      180.000000       -0.517503         2    ;  uncertainty k = 0.259321
        10         2         1        35     9        0.000000        0.428362         3    ;  uncertainty k = 0.205180
        10         2         1        35     9      180.000000        0.421241         4    ;  uncertainty k = 0.045065
        10         2         1        36     9        0.000000       -0.143880         1    ;  uncertainty k = 0.460664
        10         2         1        36     9      180.000000       -0.517503         2    ;  uncertainty k = 0.259321
        10         2         1        36     9        0.000000        0.428362         3    ;  uncertainty k = 0.205180
        10         2         1        36     9      180.000000        0.421241         4    ;  uncertainty k = 0.045065
        10         9         8        42     9        0.000000        0.036041         1    ;  uncertainty k = 0.236511
        10         9         8        42     9      180.000000       -0.592542         2    ;  uncertainty k = 0.216384
        10         9         8        42     9        0.000000        0.426773         3    ;  uncertainty k = 0.148982
        10         9         8        42     9      180.000000       -0.037879         4    ;  uncertainty k = 0.118443
        10         9         8        43     9        0.000000        0.036041         1    ;  uncertainty k = 0.236511
        10         9         8        43     9      180.000000       -0.592542         2    ;  uncertainty k = 0.216384
        10         9         8        43     9        0.000000        0.426773         3    ;  uncertainty k = 0.148982
        10         9         8        43     9      180.000000       -0.037879         4    ;  uncertainty k = 0.118443
        11        10         9        44     9        0.000000        0.494340         1    ;  uncertainty k = 0.928791
        11        10         9        44     9      180.000000        4.564392         2    ;  uncertainty k = 0.661122
        11        10         9        44     9        0.000000        0.415769         3    ;  uncertainty k = 0.100891
        11        10         9        44     9      180.000000        0.351611         4    ;  uncertainty k = 0.126070
        11        10         9        45     9        0.000000        0.494340         1    ;  uncertainty k = 0.928791
        11        10         9        45     9      180.000000        4.564392         2    ;  uncertainty k = 0.661122
        11        10         9        45     9        0.000000        0.415769         3    ;  uncertainty k = 0.100891
        11        10         9        45     9      180.000000        0.351611         4    ;  uncertainty k = 0.126070
        12         6         5        54     9        0.000000        2.738643         1    ;  uncertainty k = 1.095359
        12         6         5        54     9      180.000000       -2.160755         2    ;  uncertainty k = 1.226842
        12         6         5        54     9        0.000000        0.013103         3    ;  uncertainty k = 0.217215
        12         6         5        54     9      180.000000        0.072551         4    ;  uncertainty k = 0.117205
        12         6         7        39     9        0.000000        0.754706         1    ;  uncertainty k = 0.434329
        12         6         7        39     9      180.000000       -0.572774         2    ;  uncertainty k = 0.310508
        12         6         7        39     9        0.000000        0.807842         3    ;  uncertainty k = 0.143751
        12         6         7        39     9      180.000000       -0.028051         4    ;  uncertainty k = 0.103952
        12         6         7        40     9        0.000000        0.754706         1    ;  uncertainty k = 0.434329
        12         6         7        40     9      180.000000       -0.572774         2    ;  uncertainty k = 0.310508
        12         6         7        40     9        0.000000        0.807842         3    ;  uncertainty k = 0.143751
        12         6         7        40     9      180.000000       -0.028051         4    ;  uncertainty k = 0.103952
        12         6         7        41     9        0.000000        0.754706         1    ;  uncertainty k = 0.434329
        12         6         7        41     9      180.000000       -0.572774         2    ;  uncertainty k = 0.310508
        12         6         7        41     9        0.000000        0.807842         3    ;  uncertainty k = 0.143751
        12         6         7        41     9      180.000000       -0.028051         4    ;  uncertainty k = 0.103952
        12         6         8        42     9        0.000000        0.646506         1    ;  uncertainty k = 0.241710
        12         6         8        42     9      180.000000       -0.113620         2    ;  uncertainty k = 0.429908
        12         6         8        42     9        0.000000        0.511031         3    ;  uncertainty k = 0.295736
        12         6         8        42     9      180.000000       -0.113116         4    ;  uncertainty k = 0.066532
        12         6         8        43     9        0.000000        0.646506         1    ;  uncertainty k = 0.241710
        12         6         8        43     9      180.000000       -0.113620         2    ;  uncertainty k = 0.429908
        12         6         8        43     9        0.000000        0.511031         3    ;  uncertainty k = 0.295736
        12         6         8        43     9      180.000000       -0.113116         4    ;  uncertainty k = 0.066532
        12        13        14        15     9        0.000000       -0.010316         1    ;  uncertainty k = 0.340612
        12        13        14        15     9      180.000000        7.949865         2    ;  uncertainty k = 0.451219
        12        13        14        15     9        0.000000        0.228806         3    ;  uncertainty k = 0.292855
        12        13        14        15     9      180.000000        1.318635         4    ;  uncertainty k = 0.280762
        12        13        14        19     9        0.000000        0.246532         1    ;  uncertainty k = 0.267502
        12        13        14        19     9      180.000000        9.140983         2    ;  uncertainty k = 0.541060
        12        13        14        19     9        0.000000        1.217325         3    ;  uncertainty k = 0.449645
        12        13        14        19     9      180.000000        1.648496         4    ;  uncertainty k = 0.329787
        12        17        16        15     9        0.000000        0.029899         1    ;  uncertainty k = 0.115710
        12        17        16        15     9      180.000000        7.965079         2    ;  uncertainty k = 0.470995
        12        17        16        15     9        0.000000        0.187080         3    ;  uncertainty k = 0.306529
        12        17        16        15     9      180.000000        1.323606         4    ;  uncertainty k = 0.180828
        12        17        16        48     9        0.000000       -0.020563         1    ;  uncertainty k = 0.383082
        12        17        16        48     9      180.000000        5.475933         2    ;  uncertainty k = 0.710188
        12        17        16        48     9        0.000000        1.205988         3    ;  uncertainty k = 0.247086
        12        17        16        48     9      180.000000        1.435550         4    ;  uncertainty k = 0.153297
        13        12        17        16     9        0.000000       -0.380058         1    ;  uncertainty k = 0.363857
        13        12        17        16     9      180.000000        6.653526         2    ;  uncertainty k = 0.460543
        13        12        17        16     9        0.000000        0.216808         3    ;  uncertainty k = 0.343422
        13        12        17        16     9      180.000000        1.208057         4    ;  uncertainty k = 0.326578
        13        12        17        18     9        0.000000        0.054053         1    ;  uncertainty k = 0.305417
        13        12        17        18     9      180.000000       11.303664         2    ;  uncertainty k = 0.415713
        13        12        17        18     9        0.000000        1.459364         3    ;  uncertainty k = 0.210148
        13        12        17        18     9      180.000000        1.436573         4    ;  uncertainty k = 0.223069
        13        14        15        16     9        0.000000       -0.171353         1    ;  uncertainty k = 0.174808
        13        14        15        16     9      180.000000        9.718540         2    ;  uncertainty k = 0.402886
        13        14        15        16     9        0.000000       -0.057607         3    ;  uncertainty k = 0.164669
        13        14        15        16     9      180.000000        1.216978         4    ;  uncertainty k = 0.258779
        13        14        15        47     9        0.000000        0.192829         1    ;  uncertainty k = 0.336673
        13        14        15        47     9      180.000000        6.961247         2    ;  uncertainty k = 0.446270
        13        14        15        47     9        0.000000        1.228741         3    ;  uncertainty k = 0.336490
        13        14        15        47     9      180.000000        1.523698         4    ;  uncertainty k = 0.125957
        13        14        19        20     9        0.000000        1.260739         1    ;  uncertainty k = 0.548056
        13        14        19        20     9      180.000000        4.893731         2    ;  uncertainty k = 0.159861
        13        14        19        20     9        0.000000        0.957674         3    ;  uncertainty k = 0.120518
        13        14        19        20     9      180.000000        0.073432         4    ;  uncertainty k = 0.061983
        13        14        19        49     9        0.000000        1.053870         1    ;  uncertainty k = 1.341874
        13        14        19        49     9      180.000000        3.700027         2    ;  uncertainty k = 0.177630
        13        14        19        49     9        0.000000        0.689937         3    ;  uncertainty k = 0.086210
        13        14        19        49     9      180.000000        0.568404         4    ;  uncertainty k = 0.107348
        14        13        12        17     9        0.000000       -0.150602         1    ;  uncertainty k = 0.170297
        14        13        12        17     9      180.000000       11.403379         2    ;  uncertainty k = 0.327897
        14        13        12        17     9        0.000000        0.059286         3    ;  uncertainty k = 0.444270
        14        13        12        17     9      180.000000        1.065184         4    ;  uncertainty k = 0.361772
        14        15        16        17     9        0.000000       -0.123278         1    ;  uncertainty k = 0.282288
        14        15        16        17     9      180.000000       14.299147         2    ;  uncertainty k = 0.354274
        14        15        16        17     9        0.000000       -0.775677         3    ;  uncertainty k = 0.544842
        14        15        16        17     9      180.000000        0.810871         4    ;  uncertainty k = 0.283586
        14        15        16        48     9        0.000000        0.083183         1    ;  uncertainty k = 0.373342
        14        15        16        48     9      180.000000        8.009087         2    ;  uncertainty k = 0.383735
        14        15        16        48     9        0.000000        1.305775         3    ;  uncertainty k = 0.314181
        14        15        16        48     9      180.000000        1.773327         4    ;  uncertainty k = 0.114454
        14        19        20        21     9        0.000000        3.162340         1    ;  uncertainty k = 0.741359
        14        19        20        21     9      180.000000       14.134913         2    ;  uncertainty k = 0.181448
        14        19        20        21     9        0.000000        0.796236         3    ;  uncertainty k = 0.146316
        14        19        20        21     9      180.000000       -0.664239         4    ;  uncertainty k = 0.312938
        14        19        20        22     9        0.000000        3.819760         1    ;  uncertainty k = 1.291083
        14        19        20        22     9      180.000000       12.042942         2    ;  uncertainty k = 0.215263
        14        19        20        22     9        0.000000        2.119953         3    ;  uncertainty k = 0.219692
        14        19        20        22     9      180.000000       -1.532274         4    ;  uncertainty k = 0.346456
        15        14        13        46     9        0.000000        0.144855         1    ;  uncertainty k = 0.249365
        15        14        13        46     9      180.000000        6.805708         2    ;  uncertainty k = 0.526283
        15        14        13        46     9        0.000000        1.312746         3    ;  uncertainty k = 0.254047
        15        14        13        46     9      180.000000        1.539192         4    ;  uncertainty k = 0.174338
        15        14        19        20     9        0.000000        1.263760         1    ;  uncertainty k = 0.268968
        15        14        19        20     9      180.000000        4.683158         2    ;  uncertainty k = 0.117069
        15        14        19        20     9        0.000000        1.109866         3    ;  uncertainty k = 0.163578
        15        14        19        20     9      180.000000        0.093991         4    ;  uncertainty k = 0.036783
        15        14        19        49     9        0.000000        0.548492         1    ;  uncertainty k = 1.211318
        15        14        19        49     9      180.000000        3.576070         2    ;  uncertainty k = 0.148098
        15        14        19        49     9        0.000000        0.731547         3    ;  uncertainty k = 0.149533
        15        14        19        49     9      180.000000        0.631621         4    ;  uncertainty k = 0.165002
        15        16        17        18     9        0.000000       -0.082345         1    ;  uncertainty k = 0.302604
        15        16        17        18     9      180.000000       12.733004         2    ;  uncertainty k = 0.538024
        15        16        17        18     9        0.000000        1.382698         3    ;  uncertainty k = 0.358209
        15        16        17        18     9      180.000000        1.579546         4    ;  uncertainty k = 0.274125
        16        15        14        19     9        0.000000        0.110204         1    ;  uncertainty k = 0.158331
        16        15        14        19     9      180.000000       10.405060         2    ;  uncertainty k = 0.522120
        16        15        14        19     9        0.000000        1.072378         3    ;  uncertainty k = 0.483821
        16        15        14        19     9      180.000000        1.656021         4    ;  uncertainty k = 0.187519
        17        12        13        46     9        0.000000        0.197539         1    ;  uncertainty k = 0.138491
        17        12        13        46     9      180.000000        8.378787         2    ;  uncertainty k = 0.254516
        17        12        13        46     9        0.000000        1.488710         3    ;  uncertainty k = 0.300180
        17        12        13        46     9      180.000000        1.716653         4    ;  uncertainty k = 0.069674
        17        16        15        47     9        0.000000        0.020242         1    ;  uncertainty k = 0.314023
        17        16        15        47     9      180.000000        8.062499         2    ;  uncertainty k = 0.265987
        17        16        15        47     9        0.000000        1.338631         3    ;  uncertainty k = 0.339125
        17        16        15        47     9      180.000000        1.801138         4    ;  uncertainty k = 0.131335
        18        17        16        48     9        0.000000       -0.329096         1    ;  uncertainty k = 0.370432
        18        17        16        48     9      180.000000        9.331346         2    ;  uncertainty k = 0.322702
        18        17        16        48     9        0.000000        0.817192         3    ;  uncertainty k = 0.174442
        18        17        16        48     9      180.000000        1.068788         4    ;  uncertainty k = 0.119318
        19        14        13        46     9        0.000000        0.019037         1    ;  uncertainty k = 0.307403
        19        14        13        46     9      180.000000        8.555443         2    ;  uncertainty k = 0.503037
        19        14        13        46     9        0.000000        0.812608         3    ;  uncertainty k = 0.169875
        19        14        13        46     9      180.000000        1.272543         4    ;  uncertainty k = 0.243258
        19        14        15        47     9        0.000000       -0.229461         1    ;  uncertainty k = 0.206011
        19        14        15        47     9      180.000000        8.531854         2    ;  uncertainty k = 0.486384
        19        14        15        47     9        0.000000        0.836718         3    ;  uncertainty k = 0.232982
        19        14        15        47     9      180.000000        1.178062         4    ;  uncertainty k = 0.202612
        19        20        22        23     9        0.000000       -2.564909         1    ;  uncertainty k = 1.301259
        19        20        22        23     9      180.000000        3.064771         2    ;  uncertainty k = 0.442401
        19        20        22        23     9        0.000000       -0.056556         3    ;  uncertainty k = 0.617828
        19        20        22        23     9      180.000000       -0.030455         4    ;  uncertainty k = 0.365561
        19        20        22        27     9        0.000000        2.672970         1    ;  uncertainty k = 1.459146
        19        20        22        27     9      180.000000        4.211630         2    ;  uncertainty k = 0.306343
        19        20        22        27     9        0.000000        0.360257         3    ;  uncertainty k = 0.436213
        19        20        22        27     9      180.000000        0.120956         4    ;  uncertainty k = 0.101391
        20        22        23        24     9        0.000000        0.458216         1    ;  uncertainty k = 0.610833
        20        22        23        24     9      180.000000        8.068359         2    ;  uncertainty k = 0.680207
        20        22        23        24     9        0.000000        0.930492         3    ;  uncertainty k = 0.285415
        20        22        23        24     9      180.000000        1.581250         4    ;  uncertainty k = 0.125066
        20        22        23        50     9        0.000000       -0.046600         1    ;  uncertainty k = 1.801172
        20        22        23        50     9      180.000000        6.073023         2    ;  uncertainty k = 0.532847
        20        22        23        50     9        0.000000        0.588815         3    ;  uncertainty k = 0.187458
        20        22        23        50     9      180.000000        0.695730         4    ;  uncertainty k = 0.393673
        20        22        27        26     9        0.000000        0.314359         1    ;  uncertainty k = 1.730827
        20        22        27        26     9      180.000000       13.546231         2    ;  uncertainty k = 0.704290
        20        22        27        26     9        0.000000        2.441120         3    ;  uncertainty k = 0.311819
        20        22        27        26     9      180.000000        1.438713         4    ;  uncertainty k = 0.440261
        21        20        19        49     9        0.000000        1.050284         1    ;  uncertainty k = 1.220905
        21        20        19        49     9      180.000000       12.958127         2    ;  uncertainty k = 0.549285
        21        20        19        49     9        0.000000        2.401442         3    ;  uncertainty k = 0.461747
        21        20        19        49     9      180.000000        0.061402         4    ;  uncertainty k = 0.236225
        21        20        22        23     9        0.000000       -0.336718         1    ;  uncertainty k = 1.020027
        21        20        22        23     9      180.000000        3.844186         2    ;  uncertainty k = 0.830721
        21        20        22        23     9        0.000000        0.275673         3    ;  uncertainty k = 0.354119
        21        20        22        23     9      180.000000       -0.048058         4    ;  uncertainty k = 0.070290
        21        20        22        27     9        0.000000       -3.674158         1    ;  uncertainty k = 1.802639
        21        20        22        27     9      180.000000        4.850867         2    ;  uncertainty k = 0.864770
        21        20        22        27     9        0.000000        0.765587         3    ;  uncertainty k = 0.374762
        21        20        22        27     9      180.000000        0.008963         4    ;  uncertainty k = 0.103061
        22        20        19        49     9        0.000000        0.752030         1    ;  uncertainty k = 1.322686
        22        20        19        49     9      180.000000        5.559646         2    ;  uncertainty k = 0.536258
        22        20        19        49     9        0.000000        2.123519         3    ;  uncertainty k = 0.382679
        22        20        19        49     9      180.000000        0.249903         4    ;  uncertainty k = 0.169055
        22        23        24        25     9        0.000000       -0.111358         1    ;  uncertainty k = 1.196121
        22        23        24        25     9      180.000000       13.306975         2    ;  uncertainty k = 0.661367
        22        23        24        25     9        0.000000        1.035013         3    ;  uncertainty k = 0.638815
        22        23        24        25     9      180.000000        1.290596         4    ;  uncertainty k = 0.305316
        22        27        26        25     9        0.000000        0.259970         1    ;  uncertainty k = 1.113808
        22        27        26        25     9      180.000000       15.149895         2    ;  uncertainty k = 0.454718
        22        27        26        25     9        0.000000        1.076467         3    ;  uncertainty k = 0.587859
        22        27        26        25     9      180.000000        1.613854         4    ;  uncertainty k = 0.321011
        22        27        26        51     9        0.000000        0.258703         1    ;  uncertainty k = 0.279783
        22        27        26        51     9      180.000000       16.639773         2    ;  uncertainty k = 0.353796
        22        27        26        51     9        0.000000        2.406439         3    ;  uncertainty k = 0.611486
        22        27        26        51     9      180.000000        1.563586         4    ;  uncertainty k = 0.230585
        23        22        27        26     9        0.000000       -0.461239         1    ;  uncertainty k = 0.695677
        23        22        27        26     9      180.000000       11.275020         2    ;  uncertainty k = 0.361533
        23        22        27        26     9        0.000000        1.580582         3    ;  uncertainty k = 0.276124
        23        22        27        26     9      180.000000        1.138585         4    ;  uncertainty k = 0.256678
        23        24        25        26     9        0.000000        0.020493         1    ;  uncertainty k = 0.719807
        23        24        25        26     9      180.000000        9.605231         2    ;  uncertainty k = 0.777301
        23        24        25        26     9        0.000000        1.575246         3    ;  uncertainty k = 0.374886
        23        24        25        26     9      180.000000        1.120236         4    ;  uncertainty k = 0.128050
        23        24        25        28     9        0.000000        1.015583         1    ;  uncertainty k = 1.384664
        23        24        25        28     9      180.000000       14.539928         2    ;  uncertainty k = 0.098956
        23        24        25        28     9        0.000000        2.608454         3    ;  uncertainty k = 0.323928
        23        24        25        28     9      180.000000        1.616050         4    ;  uncertainty k = 0.223591
        24        23        22        27     9        0.000000       -0.404234         1    ;  uncertainty k = 0.231683
        24        23        22        27     9      180.000000       12.091496         2    ;  uncertainty k = 0.927261
        24        23        22        27     9        0.000000       -0.298527         3    ;  uncertainty k = 0.248932
        24        23        22        27     9      180.000000        1.239550         4    ;  uncertainty k = 0.497269
        24        25        26        27     9        0.000000       -0.844061         1    ;  uncertainty k = 0.220742
        24        25        26        27     9      180.000000        7.714325         2    ;  uncertainty k = 0.963792
        24        25        26        27     9        0.000000       -0.761282         3    ;  uncertainty k = 0.344483
        24        25        26        27     9      180.000000        1.001666         4    ;  uncertainty k = 0.643966
        24        25        26        51     9        0.000000       -0.239238         1    ;  uncertainty k = 0.992756
        24        25        26        51     9      180.000000        4.446165         2    ;  uncertainty k = 0.907581
        24        25        26        51     9        0.000000        0.658533         3    ;  uncertainty k = 0.196697
        24        25        26        51     9      180.000000        1.000246         4    ;  uncertainty k = 0.215489
        24        25        28        29     9        0.000000        1.592549         1    ;  uncertainty k = 0.884611
        24        25        28        29     9      180.000000        9.619940         2    ;  uncertainty k = 0.320065
        24        25        28        29     9        0.000000        0.446619         3    ;  uncertainty k = 0.251395
        24        25        28        29     9      180.000000        0.143818         4    ;  uncertainty k = 0.064816
        25        24        23        50     9        0.000000        0.559492         1    ;  uncertainty k = 0.473844
        25        24        23        50     9      180.000000       15.652655         2    ;  uncertainty k = 0.583753
        25        24        23        50     9        0.000000        2.077550         3    ;  uncertainty k = 0.853101
        25        24        23        50     9      180.000000        1.511772         4    ;  uncertainty k = 0.427910
        25        28        29        30     9        0.000000       -0.882696         1    ;  uncertainty k = 0.742883
        25        28        29        30     9      180.000000       -0.026979         2    ;  uncertainty k = 0.250644
        25        28        29        30     9        0.000000       -0.462806         3    ;  uncertainty k = 0.379263
        25        28        29        30     9      180.000000        0.658751         4    ;  uncertainty k = 0.183616
        25        28        29        52     9        0.000000        1.782363         1    ;  uncertainty k = 0.921562
        25        28        29        52     9      180.000000        0.435680         2    ;  uncertainty k = 0.246184
        25        28        29        52     9        0.000000        0.020042         3    ;  uncertainty k = 0.230415
        25        28        29        52     9      180.000000        0.339340         4    ;  uncertainty k = 0.060597
        25        28        29        53     9        0.000000        1.782363         1    ;  uncertainty k = 0.921562
        25        28        29        53     9      180.000000        0.435680         2    ;  uncertainty k = 0.246184
        25        28        29        53     9        0.000000        0.020042         3    ;  uncertainty k = 0.230415
        25        28        29        53     9      180.000000        0.339340         4    ;  uncertainty k = 0.060597
        26        25        28        29     9        0.000000        0.516886         1    ;  uncertainty k = 1.177638
        26        25        28        29     9      180.000000        7.007019         2    ;  uncertainty k = 0.503060
        26        25        28        29     9        0.000000        0.805426         3    ;  uncertainty k = 0.376840
        26        25        28        29     9      180.000000        0.097939         4    ;  uncertainty k = 0.146797
        27        22        23        50     9        0.000000       -0.211362         1    ;  uncertainty k = 0.461513
        27        22        23        50     9      180.000000        5.738048         2    ;  uncertainty k = 1.172620
        27        22        23        50     9        0.000000        0.881556         3    ;  uncertainty k = 0.236380
        27        22        23        50     9      180.000000        1.387547         4    ;  uncertainty k = 0.267866
        27        26        25        28     9        0.000000        0.164333         1    ;  uncertainty k = 0.621271
        27        26        25        28     9      180.000000        6.511387         2    ;  uncertainty k = 0.955397
        27        26        25        28     9        0.000000        0.452900         3    ;  uncertainty k = 0.425249
        27        26        25        28     9      180.000000        1.133799         4    ;  uncertainty k = 0.475820
        28        25        26        51     9        0.000000       -0.292570         1    ;  uncertainty k = 0.898687
        28        25        26        51     9      180.000000        5.041762         2    ;  uncertainty k = 0.252473
        28        25        26        51     9        0.000000        0.530876         3    ;  uncertainty k = 0.257191
        28        25        26        51     9      180.000000        0.667289         4    ;  uncertainty k = 0.270280
        28        29        30        31     9        0.000000        1.495116         1    ;  uncertainty k = 1.012738
        28        29        30        31     9      180.000000       -1.159843         2    ;  uncertainty k = 0.561897
        28        29        30        31     9        0.000000        1.013969         3    ;  uncertainty k = 0.171328
        28        29        30        31     9      180.000000        0.260818         4    ;  uncertainty k = 0.189879
        28        29        30        32     9        0.000000        1.495116         1    ;  uncertainty k = 1.012738
        28        29        30        32     9      180.000000       -1.159843         2    ;  uncertainty k = 0.561897
        28        29        30        32     9        0.000000        1.013969         3    ;  uncertainty k = 0.171328
        28        29        30        32     9      180.000000        0.260818         4    ;  uncertainty k = 0.189879
        28        29        30        33     9        0.000000        1.495116         1    ;  uncertainty k = 1.012738
        28        29        30        33     9      180.000000       -1.159843         2    ;  uncertainty k = 0.561897
        28        29        30        33     9        0.000000        1.013969         3    ;  uncertainty k = 0.171328
        28        29        30        33     9      180.000000        0.260818         4    ;  uncertainty k = 0.189879
        31        30        29        52     9        0.000000       -0.760227         1    ;  uncertainty k = 0.346427
        31        30        29        52     9      180.000000       -0.130906         2    ;  uncertainty k = 0.274801
        31        30        29        52     9        0.000000        0.310449         3    ;  uncertainty k = 0.061534
        31        30        29        52     9      180.000000       -0.168515         4    ;  uncertainty k = 0.095920
        31        30        29        53     9        0.000000       -0.760227         1    ;  uncertainty k = 0.346427
        31        30        29        53     9      180.000000       -0.130906         2    ;  uncertainty k = 0.274801
        31        30        29        53     9        0.000000        0.310449         3    ;  uncertainty k = 0.061534
        31        30        29        53     9      180.000000       -0.168515         4    ;  uncertainty k = 0.095920
        32        30        29        52     9        0.000000       -0.760227         1    ;  uncertainty k = 0.346427
        32        30        29        52     9      180.000000       -0.130906         2    ;  uncertainty k = 0.274801
        32        30        29        52     9        0.000000        0.310449         3    ;  uncertainty k = 0.061534
        32        30        29        52     9      180.000000       -0.168515         4    ;  uncertainty k = 0.095920
        32        30        29        53     9        0.000000       -0.760227         1    ;  uncertainty k = 0.346427
        32        30        29        53     9      180.000000       -0.130906         2    ;  uncertainty k = 0.274801
        32        30        29        53     9        0.000000        0.310449         3    ;  uncertainty k = 0.061534
        32        30        29        53     9      180.000000       -0.168515         4    ;  uncertainty k = 0.095920
        33        30        29        52     9        0.000000       -0.760227         1    ;  uncertainty k = 0.346427
        33        30        29        52     9      180.000000       -0.130906         2    ;  uncertainty k = 0.274801
        33        30        29        52     9        0.000000        0.310449         3    ;  uncertainty k = 0.061534
        33        30        29        52     9      180.000000       -0.168515         4    ;  uncertainty k = 0.095920
        33        30        29        53     9        0.000000       -0.760227         1    ;  uncertainty k = 0.346427
        33        30        29        53     9      180.000000       -0.130906         2    ;  uncertainty k = 0.274801
        33        30        29        53     9        0.000000        0.310449         3    ;  uncertainty k = 0.061534
        33        30        29        53     9      180.000000       -0.168515         4    ;  uncertainty k = 0.095920
        42         8         9        44     9        0.000000        0.454762         1    ;  uncertainty k = 0.266662
        42         8         9        44     9      180.000000        0.193619         2    ;  uncertainty k = 0.263883
        42         8         9        44     9        0.000000        0.597288         3    ;  uncertainty k = 0.266351
        42         8         9        44     9      180.000000        0.079620         4    ;  uncertainty k = 0.049651
        42         8         9        45     9        0.000000        0.454762         1    ;  uncertainty k = 0.266662
        42         8         9        45     9      180.000000        0.193619         2    ;  uncertainty k = 0.263883
        42         8         9        45     9        0.000000        0.597288         3    ;  uncertainty k = 0.266351
        42         8         9        45     9      180.000000        0.079620         4    ;  uncertainty k = 0.049651
        43         8         9        44     9        0.000000        0.454762         1    ;  uncertainty k = 0.266662
        43         8         9        44     9      180.000000        0.193619         2    ;  uncertainty k = 0.263883
        43         8         9        44     9        0.000000        0.597288         3    ;  uncertainty k = 0.266351
        43         8         9        44     9      180.000000        0.079620         4    ;  uncertainty k = 0.049651
        43         8         9        45     9        0.000000        0.454762         1    ;  uncertainty k = 0.266662
        43         8         9        45     9      180.000000        0.193619         2    ;  uncertainty k = 0.263883
        43         8         9        45     9        0.000000        0.597288         3    ;  uncertainty k = 0.266351
        43         8         9        45     9      180.000000        0.079620         4    ;  uncertainty k = 0.049651
        47        15        16        48     9        0.000000       -0.151064         1    ;  uncertainty k = 0.356802
        47        15        16        48     9      180.000000        8.243470         2    ;  uncertainty k = 0.386386
        47        15        16        48     9        0.000000       -0.422441         3    ;  uncertainty k = 0.250218
        47        15        16        48     9      180.000000        0.148095         4    ;  uncertainty k = 0.223354

[ dihedrals ] ; impropers
;       ai        aj        ak        al funct           phase               k        pn
         2         1         3        10     4      180.000000        5.940687         2    ;  uncertainty k = 1.379345
         2         3        10         1     4      180.000000        5.940687         2    ;  uncertainty k = 1.379345
         2        10         1         3     4      180.000000        5.940687         2    ;  uncertainty k = 1.379345
         3         2         4         5     4      180.000000       39.851311         2    ;  uncertainty k = 0.154298
         3         4         5         2     4      180.000000       39.851311         2    ;  uncertainty k = 0.154298
         3         5         2         4     4      180.000000       39.851311         2    ;  uncertainty k = 0.154298
         4         3        37        38     4      180.000000        0.222063         2    ;  uncertainty k = 0.496548
         4        37        38         3     4      180.000000        0.222063         2    ;  uncertainty k = 0.496548
         4        38         3        37     4      180.000000        0.222063         2    ;  uncertainty k = 0.496548
         5         3         6        54     4      180.000000        1.777925         2    ;  uncertainty k = 1.768443
         5         6        54         3     4      180.000000        1.777925         2    ;  uncertainty k = 1.768443
         5        54         3         6     4      180.000000        1.777925         2    ;  uncertainty k = 1.768443
        10         2         9        11     4      180.000000       55.731038         2    ;  uncertainty k = 0.039619
        10         9        11         2     4      180.000000       55.731038         2    ;  uncertainty k = 0.039619
        10        11         2         9     4      180.000000       55.731038         2    ;  uncertainty k = 0.039619
        12         6        13        17     4      180.000000        9.929011         2    ;  uncertainty k = 0.241955
        12        13        17         6     4      180.000000        9.929011         2    ;  uncertainty k = 0.241955
        12        17         6        13     4      180.000000        9.929011         2    ;  uncertainty k = 0.241955
        13        12        14        46     4      180.000000        3.862639         2    ;  uncertainty k = 0.417015
        13        14        46        12     4      180.000000        3.862639         2    ;  uncertainty k = 0.417015
        13        46        12        14     4      180.000000        3.862639         2    ;  uncertainty k = 0.417015
        14        13        15        19     4      180.000000       16.736636         2    ;  uncertainty k = 0.134596
        14        15        19        13     4      180.000000       16.736636         2    ;  uncertainty k = 0.134596
        14        19        13        15     4      180.000000       16.736636         2    ;  uncertainty k = 0.134596
        15        14        16        47     4      180.000000        3.650406         2    ;  uncertainty k = 0.288479
        15        16        47        14     4      180.000000        3.650406         2    ;  uncertainty k = 0.288479
        15        47        14        16     4      180.000000        3.650406         2    ;  uncertainty k = 0.288479
        16        15        17        48     4      180.000000        1.707090         2    ;  uncertainty k = 0.325862
        16        17        48        15     4      180.000000        1.707090         2    ;  uncertainty k = 0.325862
        16        48        15        17     4      180.000000        1.707090         2    ;  uncertainty k = 0.325862
        17        12        16        18     4      180.000000       14.734340         2    ;  uncertainty k = 0.126437
        17        16        18        12     4      180.000000       14.734340         2    ;  uncertainty k = 0.126437
        17        18        12        16     4      180.000000       14.734340         2    ;  uncertainty k = 0.126437
        19        14        20        49     4      180.000000        1.003611         2    ;  uncertainty k = 0.759120
        19        20        49        14     4      180.000000        1.003611         2    ;  uncertainty k = 0.759120
        19        49        14        20     4      180.000000        1.003611         2    ;  uncertainty k = 0.759120
        20        19        21        22     4      180.000000       49.281923         2    ;  uncertainty k = 0.035704
        20        21        22        19     4      180.000000       49.281923         2    ;  uncertainty k = 0.035704
        20        22        19        21     4      180.000000       49.281923         2    ;  uncertainty k = 0.035704
        22        20        23        27     4      180.000000       12.529772         2    ;  uncertainty k = 0.275801
        22        23        27        20     4      180.000000       12.529772         2    ;  uncertainty k = 0.275801
        22        27        20        23     4      180.000000       12.529772         2    ;  uncertainty k = 0.275801
        23        22        24        50     4      180.000000       13.936807         2    ;  uncertainty k = 0.045568
        23        24        50        22     4      180.000000       13.936807         2    ;  uncertainty k = 0.045568
        23        50        22        24     4      180.000000       13.936807         2    ;  uncertainty k = 0.045568
        25        24        26        28     4      180.000000       29.449908         2    ;  uncertainty k = 0.029280
        25        26        28        24     4      180.000000       29.449908         2    ;  uncertainty k = 0.029280
        25        28        24        26     4      180.000000       29.449908         2    ;  uncertainty k = 0.029280
        26        25        27        51     4      180.000000        9.621464         2    ;  uncertainty k = 0.149597
        26        27        51        25     4      180.000000        9.621464         2    ;  uncertainty k = 0.149597
        26        51        25        27     4      180.000000        9.621464         2    ;  uncertainty k = 0.149597

[ pairs ]
;       ai        aj funct
         1         4     1
         1         5     1
         1         9     1
         1        11     1
         2         6     1
         2         8     1
         2        37     1
         2        38     1
         2        44     1
         2        45     1
         2        54     1
         3         7     1
         3         8     1
         3         9     1
         3        11     1
         3        12     1
         3        34     1
         3        35     1
         3        36     1
         4         6     1
         4        10     1
         4        54     1
         5         9     1
         5        10     1
         5        13     1
         5        17     1
         5        37     1
         5        38     1
         5        39     1
         5        40     1
         5        41     1
         5        42     1
         5        43     1
         6        10     1
         6        14     1
         6        16     1
         6        18     1
         6        44     1
         6        45     1
         6        46     1
         7         9     1
         7        13     1
         7        17     1
         7        42     1
         7        43     1
         7        54     1
         8        11     1
         8        13     1
         8        17     1
         8        39     1
         8        40     1
         8        41     1
         8        54     1
         9        12     1
        10        34     1
        10        35     1
        10        36     1
        10        42     1
        10        43     1
        11        44     1
        11        45     1
        12        15     1
        12        19     1
        12        39     1
        12        40     1
        12        41     1
        12        42     1
        12        43     1
        12        48     1
        12        54     1
        13        16     1
        13        18     1
        13        20     1
        13        47     1
        13        49     1
        14        17     1
        14        21     1
        14        22     1
        14        48     1
        15        18     1
        15        20     1
        15        46     1
        15        49     1
        16        19     1
        17        46     1
        17        47     1
        18        48     1
        19        23     1
        19        27     1
        19        46     1
        19        47     1
        20        24     1
        20        26     1
        20        50     1
        21        23     1
        21        27     1
        21        49     1
        22        25     1
        22        49     1
        22        51     1
        23        26     1
        23        28     1
        24        27     1
        24        29     1
        24        51     1
        25        30     1
        25        50     1
        25        52     1
        25        53     1
        26        29     1
        27        28     1
        27        50     1
        28        31     1
        28        32     1
        28        33     1
        28        51     1
        31        52     1
        31        53     1
        32        52     1
        32        53     1
        33        52     1
        33        53     1
        42        44     1
        42        45     1
        43        44     1
        43        45     1
        47        48     1
