; ITP file created by ByteFF-joint-25, 2025-07-14 11:32:19.387830

[ atomtypes ]
;name           bonded.type        at.num        mass        charge   ptype           sigma         epsilon
 c0bf                                   6      0.0000       0.00000       A     3.39732e-01     4.51240e-01    ;  uncertainty sigma = 0.000013, epsilon = 0.001269
 n1bf                                   7      0.0000       0.00000       A     3.18099e-01     6.83564e-01    ;  uncertainty sigma = 0.000071, epsilon = 0.006492
 c2bf                                   6      0.0000       0.00000       A     3.31513e-01     4.12139e-01    ;  uncertainty sigma = 0.000056, epsilon = 0.001615
 n3bf                                   7      0.0000       0.00000       A     3.36545e-01     4.71525e-01    ;  uncertainty sigma = 0.000086, epsilon = 0.005555
 n4bf                                   7      0.0000       0.00000       A     3.27634e-01     6.54915e-01    ;  uncertainty sigma = 0.000107, epsilon = 0.008004
 c5bf                                   6      0.0000       0.00000       A     3.39753e-01     4.52739e-01    ;  uncertainty sigma = 0.000042, epsilon = 0.001595
 c6bf                                   6      0.0000       0.00000       A     3.39744e-01     4.50534e-01    ;  uncertainty sigma = 0.000020, epsilon = 0.000972
 c7bf                                   6      0.0000       0.00000       A     3.31542e-01     4.13673e-01    ;  uncertainty sigma = 0.000009, epsilon = 0.000631
 o8bf                                   8      0.0000       0.00000       A     3.04810e-01     6.12222e-01    ;  uncertainty sigma = 0.000062, epsilon = 0.002116
 c9bf                                   6      0.0000       0.00000       A     3.31491e-01     4.13511e-01    ;  uncertainty sigma = 0.000025, epsilon = 0.000549
 c10bf                                  6      0.0000       0.00000       A     3.31538e-01     4.14259e-01    ;  uncertainty sigma = 0.000011, epsilon = 0.001415
 c11bf                                  6      0.0000       0.00000       A     3.31511e-01     4.13240e-01    ;  uncertainty sigma = 0.000009, epsilon = 0.001104
 c12bf                                  6      0.0000       0.00000       A     3.31527e-01     4.13349e-01    ;  uncertainty sigma = 0.000006, epsilon = 0.000428
 c13bf                                  6      0.0000       0.00000       A     3.31529e-01     4.13207e-01    ;  uncertainty sigma = 0.000002, epsilon = 0.000645
 c14bf                                  6      0.0000       0.00000       A     3.31537e-01     4.12958e-01    ;  uncertainty sigma = 0.000011, epsilon = 0.000445
 f15bf                                  9      0.0000       0.00000       A     3.03466e-01     3.47837e-01    ;  uncertainty sigma = 0.000024, epsilon = 0.001425
 n16bf                                  7      0.0000       0.00000       A     3.26994e-01     4.90797e-01    ;  uncertainty sigma = 0.000028, epsilon = 0.000954
 c17bf                                  6      0.0000       0.00000       A     3.31530e-01     4.12721e-01    ;  uncertainty sigma = 0.000022, epsilon = 0.000898
 o18bf                                  8      0.0000       0.00000       A     3.04834e-01     6.12910e-01    ;  uncertainty sigma = 0.000023, epsilon = 0.001454
 c19bf                                  6      0.0000       0.00000       A     3.31527e-01     4.13142e-01    ;  uncertainty sigma = 0.000011, epsilon = 0.000750
 c20bf                                  6      0.0000       0.00000       A     3.31541e-01     4.13392e-01    ;  uncertainty sigma = 0.000008, epsilon = 0.000789
 c21bf                                  6      0.0000       0.00000       A     3.31514e-01     4.13068e-01    ;  uncertainty sigma = 0.000010, epsilon = 0.000457
 c22bf                                  6      0.0000       0.00000       A     3.31526e-01     4.13654e-01    ;  uncertainty sigma = 0.000001, epsilon = 0.000612
 c23bf                                  6      0.0000       0.00000       A     3.47937e-01     6.68175e-01    ;  uncertainty sigma = 0.000028, epsilon = 0.001882
 n24bf                                  7      0.0000       0.00000       A     3.27336e-01     4.58760e-01    ;  uncertainty sigma = 0.000024, epsilon = 0.000711
 c25bf                                  6      0.0000       0.00000       A     3.31518e-01     4.13237e-01    ;  uncertainty sigma = 0.000011, epsilon = 0.000869
 n26bf                                  7      0.0000       0.00000       A     3.38406e-01     3.93383e-01    ;  uncertainty sigma = 0.000014, epsilon = 0.001237
 h27bf                                  1      0.0000       0.00000       A     2.42208e-01     8.66970e-02    ;  uncertainty sigma = 0.000028, epsilon = 0.000664
 h28bf                                  1      0.0000       0.00000       A     2.42208e-01     8.66970e-02    ;  uncertainty sigma = 0.000028, epsilon = 0.000664
 h29bf                                  1      0.0000       0.00000       A     2.42208e-01     8.66970e-02    ;  uncertainty sigma = 0.000028, epsilon = 0.000664
 h30bf                                  1      0.0000       0.00000       A     1.10696e-01     4.12786e-02    ;  uncertainty sigma = 0.000128, epsilon = 0.001559
 h31bf                                  1      0.0000       0.00000       A     1.10696e-01     4.12786e-02    ;  uncertainty sigma = 0.000128, epsilon = 0.001559
 h32bf                                  1      0.0000       0.00000       A     2.60006e-01     8.67799e-02    ;  uncertainty sigma = 0.000022, epsilon = 0.000839
 h33bf                                  1      0.0000       0.00000       A     2.60006e-01     8.67799e-02    ;  uncertainty sigma = 0.000022, epsilon = 0.000839
 h34bf                                  1      0.0000       0.00000       A     2.60006e-01     8.67799e-02    ;  uncertainty sigma = 0.000022, epsilon = 0.000839
 h35bf                                  1      0.0000       0.00000       A     2.62574e-01     6.70744e-02    ;  uncertainty sigma = 0.000008, epsilon = 0.000594
 h36bf                                  1      0.0000       0.00000       A     2.62560e-01     6.69889e-02    ;  uncertainty sigma = 0.000013, epsilon = 0.000439
 h37bf                                  1      0.0000       0.00000       A     2.62564e-01     6.69923e-02    ;  uncertainty sigma = 0.000012, epsilon = 0.000408
 h38bf                                  1      0.0000       0.00000       A     1.10674e-01     4.15810e-02    ;  uncertainty sigma = 0.000084, epsilon = 0.000795
 h39bf                                  1      0.0000       0.00000       A     2.62566e-01     6.71123e-02    ;  uncertainty sigma = 0.000016, epsilon = 0.000623
 h40bf                                  1      0.0000       0.00000       A     2.62538e-01     6.71584e-02    ;  uncertainty sigma = 0.000013, epsilon = 0.000724
 h41bf                                  1      0.0000       0.00000       A     2.53641e-01     6.71894e-02    ;  uncertainty sigma = 0.000016, epsilon = 0.000600
 h42bf                                  1      0.0000       0.00000       A     1.10603e-01     4.03330e-02    ;  uncertainty sigma = 0.000168, epsilon = 0.001487

[ moleculetype ]
;name             nrexcl
 MOL                   3

[ atoms ]
;       nr            type      resi   res      atom      cgnr      charge          mass ; qtot
         1            c0bf         1   UNL        c0         1     0.07382       12.0110 ; qtot    0.074
         2            n1bf         1   UNL        n1         2    -0.42192       14.0070 ; qtot   -0.348
         3            c2bf         1   UNL        c2         3     0.46437       12.0110 ; qtot    0.116
         4            n3bf         1   UNL        n3         4    -0.47980       14.0070 ; qtot   -0.364
         5            n4bf         1   UNL        n4         5    -0.38521       14.0070 ; qtot   -0.749
         6            c5bf         1   UNL        c5         6     0.05406       12.0110 ; qtot   -0.695
         7            c6bf         1   UNL        c6         7    -0.10092       12.0110 ; qtot   -0.796
         8            c7bf         1   UNL        c7         8     0.70283       12.0110 ; qtot   -0.093
         9            o8bf         1   UNL        o8         9    -0.44648       15.9990 ; qtot   -0.539
        10            c9bf         1   UNL        c9        10    -0.14361       12.0110 ; qtot   -0.683
        11           c10bf         1   UNL       c10        11    -0.10356       12.0110 ; qtot   -0.786
        12           c11bf         1   UNL       c11        12     0.08423       12.0110 ; qtot   -0.702
        13           c12bf         1   UNL       c12        13    -0.12400       12.0110 ; qtot   -0.826
        14           c13bf         1   UNL       c13        14    -0.10523       12.0110 ; qtot   -0.931
        15           c14bf         1   UNL       c14        15     0.12000       12.0110 ; qtot   -0.811
        16           f15bf         1   UNL       f15        16    -0.14660       18.9980 ; qtot   -0.958
        17           n16bf         1   UNL       n16        17    -0.46394       14.0070 ; qtot   -1.422
        18           c17bf         1   UNL       c17        18     0.58131       12.0110 ; qtot   -0.841
        19           o18bf         1   UNL       o18        19    -0.58018       15.9990 ; qtot   -1.421
        20           c19bf         1   UNL       c19        20     0.36939       12.0110 ; qtot   -1.051
        21           c20bf         1   UNL       c20        21    -0.18487       12.0110 ; qtot   -1.236
        22           c21bf         1   UNL       c21        22    -0.06136       12.0110 ; qtot   -1.298
        23           c22bf         1   UNL       c22        23    -0.11268       12.0110 ; qtot   -1.410
        24           c23bf         1   UNL       c23        24     0.23485       12.0110 ; qtot   -1.176
        25           n24bf         1   UNL       n24        25    -0.34982       14.0070 ; qtot   -1.525
        26           c25bf         1   UNL       c25        26     0.43617       12.0110 ; qtot   -1.089
        27           n26bf         1   UNL       n26        27    -0.66550       14.0070 ; qtot   -1.755
        28           h27bf         1   UNL       h27        28     0.09090        1.0080 ; qtot   -1.664
        29           h28bf         1   UNL       h28        29     0.09090        1.0080 ; qtot   -1.573
        30           h29bf         1   UNL       h29        30     0.09090        1.0080 ; qtot   -1.482
        31           h30bf         1   UNL       h30        31     0.33566        1.0080 ; qtot   -1.146
        32           h31bf         1   UNL       h31        32     0.33566        1.0080 ; qtot   -0.811
        33           h32bf         1   UNL       h32        33     0.07984        1.0080 ; qtot   -0.731
        34           h33bf         1   UNL       h33        34     0.07984        1.0080 ; qtot   -0.651
        35           h34bf         1   UNL       h34        35     0.07984        1.0080 ; qtot   -0.571
        36           h35bf         1   UNL       h35        36     0.16861        1.0080 ; qtot   -0.403
        37           h36bf         1   UNL       h36        37     0.15964        1.0080 ; qtot   -0.243
        38           h37bf         1   UNL       h37        38     0.16862        1.0080 ; qtot   -0.074
        39           h38bf         1   UNL       h38        39     0.34894        1.0080 ; qtot    0.275
        40           h39bf         1   UNL       h39        40     0.17612        1.0080 ; qtot    0.451
        41           h40bf         1   UNL       h40        41     0.15694        1.0080 ; qtot    0.608
        42           h41bf         1   UNL       h41        42     0.04051        1.0080 ; qtot    0.648
        43           h42bf         1   UNL       h42        43     0.35173        1.0080 ; qtot    1.000

[ bonds ]
;       ai        aj funct               r               k
         1         2     1        0.146710   261079.914551    ;  uncertainty r = 0.000135, k = 11.513988
         1        28     1        0.109172   309349.367041    ;  uncertainty r = 0.000046, k = 3.240045
         1        29     1        0.109172   309349.367041    ;  uncertainty r = 0.000046, k = 3.240045
         1        30     1        0.109172   309349.367041    ;  uncertainty r = 0.000046, k = 3.240045
         2         3     1        0.135553   282297.549561    ;  uncertainty r = 0.000187, k = 45.488185
         2         8     1        0.142536   298215.774707    ;  uncertainty r = 0.000299, k = 75.837484
         3         4     1        0.133017   314195.365527    ;  uncertainty r = 0.000190, k = 44.855063
         3         5     1        0.133523   515001.317676    ;  uncertainty r = 0.000100, k = 46.996006
         4        31     1        0.101394   420987.496533    ;  uncertainty r = 0.000069, k = 12.104678
         4        32     1        0.101394   420987.496533    ;  uncertainty r = 0.000069, k = 12.104678
         5         6     1        0.149590   224745.919629    ;  uncertainty r = 0.000280, k = 51.158402
         5        43     1        0.101521   426524.963330    ;  uncertainty r = 0.000057, k = 5.253946
         6         7     1        0.152905   202609.038062    ;  uncertainty r = 0.000113, k = 6.873477
         6         8     1        0.153207   184849.421338    ;  uncertainty r = 0.000082, k = 18.283199
         6        10     1        0.150681   211451.172803    ;  uncertainty r = 0.000218, k = 10.382569
         7        33     1        0.109357   312704.381396    ;  uncertainty r = 0.000017, k = 2.494702
         7        34     1        0.109357   312704.381396    ;  uncertainty r = 0.000017, k = 2.494702
         7        35     1        0.109357   312704.381396    ;  uncertainty r = 0.000017, k = 2.494702
         8         9     1        0.120039   624446.984180    ;  uncertainty r = 0.000099, k = 10.782084
        10        11     1        0.139215   348277.472607    ;  uncertainty r = 0.000077, k = 2.308783
        10        15     1        0.139278   348949.737012    ;  uncertainty r = 0.000129, k = 9.610132
        11        12     1        0.140032   349060.670215    ;  uncertainty r = 0.000107, k = 5.440689
        11        36     1        0.108637   334645.712549    ;  uncertainty r = 0.000048, k = 3.746401
        12        13     1        0.140121   351861.452686    ;  uncertainty r = 0.000064, k = 4.347741
        12        17     1        0.140209   326895.199854    ;  uncertainty r = 0.000055, k = 13.067710
        13        14     1        0.138924   379307.180078    ;  uncertainty r = 0.000023, k = 4.287581
        13        37     1        0.108594   335965.725732    ;  uncertainty r = 0.000020, k = 2.825587
        14        15     1        0.138788   358879.663232    ;  uncertainty r = 0.000067, k = 6.224443
        14        38     1        0.108724   335191.517188    ;  uncertainty r = 0.000006, k = 0.941914
        15        16     1        0.136344   334455.180176    ;  uncertainty r = 0.000076, k = 5.871514
        17        18     1        0.136510   278358.143994    ;  uncertainty r = 0.000045, k = 18.058144
        17        39     1        0.101970   418310.185986    ;  uncertainty r = 0.000031, k = 6.449927
        18        19     1        0.123364   656555.506836    ;  uncertainty r = 0.000023, k = 4.121463
        18        20     1        0.149761   245436.672998    ;  uncertainty r = 0.000176, k = 11.679506
        20        21     1        0.139535   336112.947168    ;  uncertainty r = 0.000065, k = 8.006229
        20        27     1        0.133701   392998.262842    ;  uncertainty r = 0.000051, k = 16.741923
        21        22     1        0.138609   377296.030566    ;  uncertainty r = 0.000068, k = 6.128317
        21        40     1        0.108622   336669.273096    ;  uncertainty r = 0.000021, k = 1.964158
        22        23     1        0.140111   378146.314160    ;  uncertainty r = 0.000065, k = 4.503755
        22        41     1        0.108622   331908.594092    ;  uncertainty r = 0.000021, k = 1.207920
        23        24     1        0.143604   324344.757666    ;  uncertainty r = 0.000012, k = 4.416308
        23        26     1        0.140676   364469.583252    ;  uncertainty r = 0.000052, k = 9.268356
        24        25     1        0.116674  1126027.886914    ;  uncertainty r = 0.000026, k = 2.140194
        26        27     1        0.132818   389852.244189    ;  uncertainty r = 0.000110, k = 8.811052
        26        42     1        0.108935   335128.414990    ;  uncertainty r = 0.000025, k = 2.177972

[ angles ]
;       ai        aj        ak funct           theta             cth
         1         2         3     1      118.608437      371.860853    ;  uncertainty theta = 0.007072, k = 0.458606
         1         2         8     1      119.198807      397.228555    ;  uncertainty theta = 0.008340, k = 0.319605
         2         1        28     1      107.395668      471.434000    ;  uncertainty theta = 0.002532, k = 0.225057
         2         1        29     1      107.395668      471.434000    ;  uncertainty theta = 0.002532, k = 0.225057
         2         1        30     1      107.395668      471.434000    ;  uncertainty theta = 0.002532, k = 0.225057
         2         3         4     1      125.853745      534.882225    ;  uncertainty theta = 0.010760, k = 0.302799
         2         3         5     1      113.323959      704.901724    ;  uncertainty theta = 0.008360, k = 0.287490
         2         8         6     1      109.736252      470.059529    ;  uncertainty theta = 0.002580, k = 0.550625
         2         8         9     1      125.416885      647.490982    ;  uncertainty theta = 0.010629, k = 0.094243
         3         2         8     1      110.318237      713.052850    ;  uncertainty theta = 0.010075, k = 0.264336
         3         4        31     1      114.819153      367.961815    ;  uncertainty theta = 0.004136, k = 0.184598
         3         4        32     1      114.819153      367.961815    ;  uncertainty theta = 0.004136, k = 0.184598
         3         5         6     1      111.653275      599.183965    ;  uncertainty theta = 0.017326, k = 0.376837
         3         5        43     1      119.312279      356.459167    ;  uncertainty theta = 0.007417, k = 0.091501
         4         3         5     1      128.549240      641.934618    ;  uncertainty theta = 0.008406, k = 0.356256
         5         6         7     1      110.591103      655.824507    ;  uncertainty theta = 0.006396, k = 0.338343
         5         6         8     1      102.792648      948.960006    ;  uncertainty theta = 0.008613, k = 0.584521
         5         6        10     1      109.928795      605.344856    ;  uncertainty theta = 0.003560, k = 0.179456
         6         5        43     1      116.963356      303.967255    ;  uncertainty theta = 0.009142, k = 0.399335
         6         7        33     1      106.927933      394.684772    ;  uncertainty theta = 0.002066, k = 0.089371
         6         7        34     1      106.927933      394.684772    ;  uncertainty theta = 0.002066, k = 0.089371
         6         7        35     1      106.927933      394.684772    ;  uncertainty theta = 0.002066, k = 0.089371
         6         8         9     1      125.841690      412.900615    ;  uncertainty theta = 0.008426, k = 0.238525
         6        10        11     1      117.895187      365.986200    ;  uncertainty theta = 0.010765, k = 0.134466
         6        10        15     1      116.213661      368.452383    ;  uncertainty theta = 0.007679, k = 0.305884
         7         6         8     1      107.670143      459.649071    ;  uncertainty theta = 0.006365, k = 0.123616
         7         6        10     1      111.881615      555.686862    ;  uncertainty theta = 0.009765, k = 0.196787
         8         6        10     1      109.134605      488.641958    ;  uncertainty theta = 0.007193, k = 0.130648
        10        11        12     1      121.884567      495.151367    ;  uncertainty theta = 0.004160, k = 0.171272
        10        11        36     1      117.458191      279.366592    ;  uncertainty theta = 0.002972, k = 0.112086
        10        15        14     1      124.588257      373.262202    ;  uncertainty theta = 0.008319, k = 0.211030
        10        15        16     1      115.755020      485.527963    ;  uncertainty theta = 0.002993, k = 0.055953
        11        10        15     1      122.221237      422.470934    ;  uncertainty theta = 0.004853, k = 0.147583
        11        12        13     1      120.176659      378.203632    ;  uncertainty theta = 0.009012, k = 0.213091
        11        12        17     1      119.118141      505.934156    ;  uncertainty theta = 0.005469, k = 0.018905
        12        11        36     1      118.775940      276.281741    ;  uncertainty theta = 0.002125, k = 0.077752
        12        13        14     1      118.944046      499.285155    ;  uncertainty theta = 0.002492, k = 0.112685
        12        13        37     1      118.815491      266.310904    ;  uncertainty theta = 0.001295, k = 0.055880
        12        17        18     1      116.934998      455.657876    ;  uncertainty theta = 0.007239, k = 0.048104
        12        17        39     1      113.206665      315.698109    ;  uncertainty theta = 0.006000, k = 0.129078
        13        12        17     1      119.934387      512.969119    ;  uncertainty theta = 0.004002, k = 0.184876
        13        14        15     1      119.512108      457.885574    ;  uncertainty theta = 0.003407, k = 0.254533
        13        14        38     1      121.217789      273.755578    ;  uncertainty theta = 0.003002, k = 0.015112
        14        13        37     1      120.276955      314.663090    ;  uncertainty theta = 0.001267, k = 0.084274
        14        15        16     1      118.627853      526.644752    ;  uncertainty theta = 0.002155, k = 0.221508
        15        14        38     1      119.557434      274.244358    ;  uncertainty theta = 0.000967, k = 0.049940
        17        18        19     1      122.786331      764.950321    ;  uncertainty theta = 0.001765, k = 0.070968
        17        18        20     1      111.648849      458.440400    ;  uncertainty theta = 0.001541, k = 0.246409
        18        17        39     1      116.983459      346.876015    ;  uncertainty theta = 0.004424, k = 0.128088
        18        20        21     1      117.846695      352.841324    ;  uncertainty theta = 0.004232, k = 0.136468
        18        20        27     1      115.309326      385.736569    ;  uncertainty theta = 0.006039, k = 0.208442
        19        18        20     1      121.199974      503.586594    ;  uncertainty theta = 0.002905, k = 0.112358
        20        21        22     1      117.796341      479.202644    ;  uncertainty theta = 0.003553, k = 0.135050
        20        21        40     1      121.152832      262.305520    ;  uncertainty theta = 0.004873, k = 0.070969
        20        27        26     1      120.098877      418.099269    ;  uncertainty theta = 0.003409, k = 0.234059
        21        20        27     1      124.667175      613.016970    ;  uncertainty theta = 0.003155, k = 0.187015
        21        22        23     1      118.572617      539.806610    ;  uncertainty theta = 0.003172, k = 0.110171
        21        22        41     1      120.918839      269.171858    ;  uncertainty theta = 0.001998, k = 0.127067
        22        21        40     1      121.601845      277.425356    ;  uncertainty theta = 0.002320, k = 0.112827
        22        23        24     1      120.875473      381.677541    ;  uncertainty theta = 0.003130, k = 0.160604
        22        23        26     1      118.629784      404.999338    ;  uncertainty theta = 0.005125, k = 0.108159
        23        22        41     1      119.910950      278.994261    ;  uncertainty theta = 0.003209, k = 0.074463
        23        24        25     1      180.000000      232.628814    ;  uncertainty theta = 0.000000, k = 0.661818
        23        26        27     1      124.144119      683.103439    ;  uncertainty theta = 0.004119, k = 0.117531
        23        26        42     1      119.444847      275.004917    ;  uncertainty theta = 0.003889, k = 0.110259
        24        23        26     1      120.363876      380.992572    ;  uncertainty theta = 0.004094, k = 0.155664
        27        26        42     1      117.626259      325.407223    ;  uncertainty theta = 0.003335, k = 0.154821
        28         1        29     1      107.633827      325.689216    ;  uncertainty theta = 0.003363, k = 0.104763
        28         1        30     1      107.633827      325.689216    ;  uncertainty theta = 0.003363, k = 0.104763
        29         1        30     1      107.633827      325.689216    ;  uncertainty theta = 0.003363, k = 0.104763
        31         4        32     1      112.416359      264.752614    ;  uncertainty theta = 0.015901, k = 0.355235
        33         7        34     1      106.291847      312.502491    ;  uncertainty theta = 0.001101, k = 0.051145
        33         7        35     1      106.291847      312.502491    ;  uncertainty theta = 0.001101, k = 0.051145
        34         7        35     1      106.291847      312.502491    ;  uncertainty theta = 0.001101, k = 0.051145

[ dihedrals ] ; propers for gromacs 4.5 or higher, use funct 9
;       ai        aj        ak        al funct           phase               k        pn
         1         2         3         4     9        0.000000        0.086515         1    ;  uncertainty k = 0.685017
         1         2         3         4     9      180.000000        6.805087         2    ;  uncertainty k = 0.686693
         1         2         3         4     9        0.000000        0.933094         3    ;  uncertainty k = 0.700947
         1         2         3         4     9      180.000000        0.013505         4    ;  uncertainty k = 0.290417
         1         2         3         5     9        0.000000       -0.338910         1    ;  uncertainty k = 2.701742
         1         2         3         5     9      180.000000        8.123471         2    ;  uncertainty k = 0.482068
         1         2         3         5     9        0.000000        0.257255         3    ;  uncertainty k = 0.271535
         1         2         3         5     9      180.000000       -0.127050         4    ;  uncertainty k = 0.226060
         1         2         8         6     9        0.000000        4.733261         1    ;  uncertainty k = 2.801566
         1         2         8         6     9      180.000000        5.000445         2    ;  uncertainty k = 1.068531
         1         2         8         6     9        0.000000        1.224392         3    ;  uncertainty k = 0.696986
         1         2         8         6     9      180.000000        0.124530         4    ;  uncertainty k = 0.429473
         1         2         8         9     9        0.000000       -0.533504         1    ;  uncertainty k = 3.058790
         1         2         8         9     9      180.000000        8.205828         2    ;  uncertainty k = 0.416014
         1         2         8         9     9        0.000000        0.583843         3    ;  uncertainty k = 0.546658
         1         2         8         9     9      180.000000        0.202348         4    ;  uncertainty k = 0.240496
         2         3         4        31     9        0.000000        7.489293         1    ;  uncertainty k = 2.005621
         2         3         4        31     9      180.000000        9.419120         2    ;  uncertainty k = 0.600950
         2         3         4        31     9        0.000000        1.014531         3    ;  uncertainty k = 0.497201
         2         3         4        31     9      180.000000       -0.959330         4    ;  uncertainty k = 0.218135
         2         3         4        32     9        0.000000        7.489293         1    ;  uncertainty k = 2.005621
         2         3         4        32     9      180.000000        9.419120         2    ;  uncertainty k = 0.600950
         2         3         4        32     9        0.000000        1.014531         3    ;  uncertainty k = 0.497201
         2         3         4        32     9      180.000000       -0.959330         4    ;  uncertainty k = 0.218135
         2         3         5         6     9        0.000000        1.314211         1    ;  uncertainty k = 1.882877
         2         3         5         6     9      180.000000       15.739456         2    ;  uncertainty k = 0.336637
         2         3         5         6     9        0.000000       -0.011928         3    ;  uncertainty k = 0.898367
         2         3         5         6     9      180.000000       -0.496371         4    ;  uncertainty k = 0.163525
         2         3         5        43     9        0.000000        3.995462         1    ;  uncertainty k = 3.384334
         2         3         5        43     9      180.000000       10.839583         2    ;  uncertainty k = 0.576280
         2         3         5        43     9        0.000000        1.022269         3    ;  uncertainty k = 0.689619
         2         3         5        43     9      180.000000       -0.407477         4    ;  uncertainty k = 0.193787
         2         8         6         5     9        0.000000       -0.716643         1    ;  uncertainty k = 2.239441
         2         8         6         5     9      180.000000        6.682539         2    ;  uncertainty k = 1.018545
         2         8         6         5     9        0.000000        0.353967         3    ;  uncertainty k = 0.515552
         2         8         6         5     9      180.000000        0.283476         4    ;  uncertainty k = 0.660954
         2         8         6         7     9        0.000000       -5.459099         1    ;  uncertainty k = 2.138813
         2         8         6         7     9      180.000000        2.137992         2    ;  uncertainty k = 0.858662
         2         8         6         7     9        0.000000        0.907685         3    ;  uncertainty k = 0.303300
         2         8         6         7     9      180.000000        0.446968         4    ;  uncertainty k = 0.365482
         2         8         6        10     9        0.000000       -3.053504         1    ;  uncertainty k = 3.028872
         2         8         6        10     9      180.000000        2.213091         2    ;  uncertainty k = 0.949129
         2         8         6        10     9        0.000000        1.022529         3    ;  uncertainty k = 0.564238
         2         8         6        10     9      180.000000        0.566967         4    ;  uncertainty k = 0.221433
         3         2         1        28     9        0.000000       -0.368055         1    ;  uncertainty k = 0.533390
         3         2         1        28     9      180.000000       -1.097989         2    ;  uncertainty k = 0.431740
         3         2         1        28     9        0.000000        0.444235         3    ;  uncertainty k = 0.203194
         3         2         1        28     9      180.000000        0.192959         4    ;  uncertainty k = 0.047618
         3         2         1        29     9        0.000000       -0.368055         1    ;  uncertainty k = 0.533390
         3         2         1        29     9      180.000000       -1.097989         2    ;  uncertainty k = 0.431740
         3         2         1        29     9        0.000000        0.444235         3    ;  uncertainty k = 0.203194
         3         2         1        29     9      180.000000        0.192959         4    ;  uncertainty k = 0.047618
         3         2         1        30     9        0.000000       -0.368055         1    ;  uncertainty k = 0.533390
         3         2         1        30     9      180.000000       -1.097989         2    ;  uncertainty k = 0.431740
         3         2         1        30     9        0.000000        0.444235         3    ;  uncertainty k = 0.203194
         3         2         1        30     9      180.000000        0.192959         4    ;  uncertainty k = 0.047618
         3         2         8         6     9        0.000000        2.554014         1    ;  uncertainty k = 1.821213
         3         2         8         6     9      180.000000        3.629366         2    ;  uncertainty k = 0.899349
         3         2         8         6     9        0.000000       -0.189400         3    ;  uncertainty k = 0.795395
         3         2         8         6     9      180.000000        0.698047         4    ;  uncertainty k = 0.253108
         3         2         8         9     9        0.000000        0.214377         1    ;  uncertainty k = 2.739186
         3         2         8         9     9      180.000000        7.611614         2    ;  uncertainty k = 0.738631
         3         2         8         9     9        0.000000        0.467600         3    ;  uncertainty k = 0.535385
         3         2         8         9     9      180.000000        0.046275         4    ;  uncertainty k = 0.266784
         3         5         6         7     9        0.000000       -1.768281         1    ;  uncertainty k = 0.963690
         3         5         6         7     9      180.000000        1.030634         2    ;  uncertainty k = 0.384338
         3         5         6         7     9        0.000000        0.833219         3    ;  uncertainty k = 0.514850
         3         5         6         7     9      180.000000        0.378694         4    ;  uncertainty k = 0.089650
         3         5         6         8     9        0.000000        1.696653         1    ;  uncertainty k = 1.411131
         3         5         6         8     9      180.000000        2.228596         2    ;  uncertainty k = 0.858419
         3         5         6         8     9        0.000000        0.065234         3    ;  uncertainty k = 0.524319
         3         5         6         8     9      180.000000        0.455620         4    ;  uncertainty k = 0.419669
         3         5         6        10     9        0.000000       -0.248042         1    ;  uncertainty k = 0.817127
         3         5         6        10     9      180.000000        0.768092         2    ;  uncertainty k = 0.602810
         3         5         6        10     9        0.000000        0.633132         3    ;  uncertainty k = 0.162808
         3         5         6        10     9      180.000000        0.464893         4    ;  uncertainty k = 0.272489
         4         3         2         8     9        0.000000       -0.553293         1    ;  uncertainty k = 0.797975
         4         3         2         8     9      180.000000        6.632878         2    ;  uncertainty k = 1.259056
         4         3         2         8     9        0.000000        0.178470         3    ;  uncertainty k = 0.699169
         4         3         2         8     9      180.000000       -0.061987         4    ;  uncertainty k = 0.488485
         4         3         5         6     9        0.000000        2.227263         1    ;  uncertainty k = 1.724119
         4         3         5         6     9      180.000000       10.770478         2    ;  uncertainty k = 0.774385
         4         3         5         6     9        0.000000        0.476838         3    ;  uncertainty k = 0.373602
         4         3         5         6     9      180.000000       -0.460323         4    ;  uncertainty k = 0.653556
         4         3         5        43     9        0.000000        2.319621         1    ;  uncertainty k = 2.365762
         4         3         5        43     9      180.000000        7.773354         2    ;  uncertainty k = 1.133747
         4         3         5        43     9        0.000000        0.972932         3    ;  uncertainty k = 0.175062
         4         3         5        43     9      180.000000       -0.266871         4    ;  uncertainty k = 0.299137
         5         3         2         8     9        0.000000       -0.178390         1    ;  uncertainty k = 1.721906
         5         3         2         8     9      180.000000        8.395283         2    ;  uncertainty k = 0.771609
         5         3         2         8     9        0.000000       -1.230226         3    ;  uncertainty k = 1.159857
         5         3         2         8     9      180.000000        0.049643         4    ;  uncertainty k = 0.456622
         5         3         4        31     9        0.000000        5.951627         1    ;  uncertainty k = 1.240339
         5         3         4        31     9      180.000000       10.477430         2    ;  uncertainty k = 0.400264
         5         3         4        31     9        0.000000        1.450087         3    ;  uncertainty k = 0.445961
         5         3         4        31     9      180.000000       -0.757809         4    ;  uncertainty k = 0.301853
         5         3         4        32     9        0.000000        5.951627         1    ;  uncertainty k = 1.240339
         5         3         4        32     9      180.000000       10.477430         2    ;  uncertainty k = 0.400264
         5         3         4        32     9        0.000000        1.450087         3    ;  uncertainty k = 0.445961
         5         3         4        32     9      180.000000       -0.757809         4    ;  uncertainty k = 0.301853
         5         6         7        33     9        0.000000       -1.524117         1    ;  uncertainty k = 0.630710
         5         6         7        33     9      180.000000       -0.626838         2    ;  uncertainty k = 0.513094
         5         6         7        33     9        0.000000        0.687102         3    ;  uncertainty k = 0.248159
         5         6         7        33     9      180.000000       -0.221289         4    ;  uncertainty k = 0.125238
         5         6         7        34     9        0.000000       -1.524117         1    ;  uncertainty k = 0.630710
         5         6         7        34     9      180.000000       -0.626838         2    ;  uncertainty k = 0.513094
         5         6         7        34     9        0.000000        0.687102         3    ;  uncertainty k = 0.248159
         5         6         7        34     9      180.000000       -0.221289         4    ;  uncertainty k = 0.125238
         5         6         7        35     9        0.000000       -1.524117         1    ;  uncertainty k = 0.630710
         5         6         7        35     9      180.000000       -0.626838         2    ;  uncertainty k = 0.513094
         5         6         7        35     9        0.000000        0.687102         3    ;  uncertainty k = 0.248159
         5         6         7        35     9      180.000000       -0.221289         4    ;  uncertainty k = 0.125238
         5         6         8         9     9        0.000000       -0.761555         1    ;  uncertainty k = 1.974876
         5         6         8         9     9      180.000000        2.556742         2    ;  uncertainty k = 1.276158
         5         6         8         9     9        0.000000        0.300191         3    ;  uncertainty k = 0.529859
         5         6         8         9     9      180.000000        0.477792         4    ;  uncertainty k = 0.125630
         5         6        10        11     9        0.000000       -0.634670         1    ;  uncertainty k = 1.094883
         5         6        10        11     9      180.000000        2.387570         2    ;  uncertainty k = 0.385363
         5         6        10        11     9        0.000000        0.175403         3    ;  uncertainty k = 0.320044
         5         6        10        11     9      180.000000        0.298122         4    ;  uncertainty k = 0.195505
         5         6        10        15     9        0.000000       -0.581223         1    ;  uncertainty k = 1.193646
         5         6        10        15     9      180.000000        2.020533         2    ;  uncertainty k = 0.538625
         5         6        10        15     9        0.000000        0.711976         3    ;  uncertainty k = 0.351572
         5         6        10        15     9      180.000000        0.230637         4    ;  uncertainty k = 0.028540
         6        10        11        12     9        0.000000        0.179786         1    ;  uncertainty k = 0.373676
         6        10        11        12     9      180.000000        8.369801         2    ;  uncertainty k = 0.305379
         6        10        11        12     9        0.000000        1.570627         3    ;  uncertainty k = 0.283741
         6        10        11        12     9      180.000000        1.911515         4    ;  uncertainty k = 0.106893
         6        10        11        36     9        0.000000       -0.317051         1    ;  uncertainty k = 0.256474
         6        10        11        36     9      180.000000        7.162709         2    ;  uncertainty k = 0.185587
         6        10        11        36     9        0.000000        0.661050         3    ;  uncertainty k = 0.408585
         6        10        11        36     9      180.000000        1.120967         4    ;  uncertainty k = 0.224735
         6        10        15        14     9        0.000000        0.529532         1    ;  uncertainty k = 0.670945
         6        10        15        14     9      180.000000        6.761302         2    ;  uncertainty k = 0.283572
         6        10        15        14     9        0.000000        1.100400         3    ;  uncertainty k = 0.299995
         6        10        15        14     9      180.000000        1.588833         4    ;  uncertainty k = 0.263845
         6        10        15        16     9        0.000000       -0.039127         1    ;  uncertainty k = 0.351605
         6        10        15        16     9      180.000000       10.209286         2    ;  uncertainty k = 0.362916
         6        10        15        16     9        0.000000        1.038037         3    ;  uncertainty k = 0.292099
         6        10        15        16     9      180.000000        1.301282         4    ;  uncertainty k = 0.258185
         7         6         5        43     9        0.000000        0.209468         1    ;  uncertainty k = 1.012083
         7         6         5        43     9      180.000000        0.290776         2    ;  uncertainty k = 0.940319
         7         6         5        43     9        0.000000        0.698587         3    ;  uncertainty k = 0.250034
         7         6         5        43     9      180.000000        0.252915         4    ;  uncertainty k = 0.088293
         7         6         8         9     9        0.000000       -1.493550         1    ;  uncertainty k = 0.978834
         7         6         8         9     9      180.000000        4.121242         2    ;  uncertainty k = 0.869565
         7         6         8         9     9        0.000000        0.353920         3    ;  uncertainty k = 0.349664
         7         6         8         9     9      180.000000        0.066554         4    ;  uncertainty k = 0.313813
         7         6        10        11     9        0.000000       -0.600551         1    ;  uncertainty k = 0.559556
         7         6        10        11     9      180.000000        2.552825         2    ;  uncertainty k = 0.521413
         7         6        10        11     9        0.000000       -0.047861         3    ;  uncertainty k = 0.482538
         7         6        10        11     9      180.000000        0.210649         4    ;  uncertainty k = 0.142424
         7         6        10        15     9        0.000000       -0.270385         1    ;  uncertainty k = 1.023327
         7         6        10        15     9      180.000000        2.714624         2    ;  uncertainty k = 0.278927
         7         6        10        15     9        0.000000        0.468797         3    ;  uncertainty k = 0.264544
         7         6        10        15     9      180.000000        0.134596         4    ;  uncertainty k = 0.182021
         8         2         1        28     9        0.000000        0.251546         1    ;  uncertainty k = 0.450727
         8         2         1        28     9      180.000000        0.075789         2    ;  uncertainty k = 0.251867
         8         2         1        28     9        0.000000        0.376577         3    ;  uncertainty k = 0.212576
         8         2         1        28     9      180.000000        0.307932         4    ;  uncertainty k = 0.079961
         8         2         1        29     9        0.000000        0.251546         1    ;  uncertainty k = 0.450727
         8         2         1        29     9      180.000000        0.075789         2    ;  uncertainty k = 0.251867
         8         2         1        29     9        0.000000        0.376577         3    ;  uncertainty k = 0.212576
         8         2         1        29     9      180.000000        0.307932         4    ;  uncertainty k = 0.079961
         8         2         1        30     9        0.000000        0.251546         1    ;  uncertainty k = 0.450727
         8         2         1        30     9      180.000000        0.075789         2    ;  uncertainty k = 0.251867
         8         2         1        30     9        0.000000        0.376577         3    ;  uncertainty k = 0.212576
         8         2         1        30     9      180.000000        0.307932         4    ;  uncertainty k = 0.079961
         8         6         5        43     9        0.000000        0.206411         1    ;  uncertainty k = 3.025550
         8         6         5        43     9      180.000000       -0.074300         2    ;  uncertainty k = 1.701069
         8         6         5        43     9        0.000000        0.277421         3    ;  uncertainty k = 0.502577
         8         6         5        43     9      180.000000       -0.010881         4    ;  uncertainty k = 0.140361
         8         6         7        33     9        0.000000        0.092898         1    ;  uncertainty k = 0.790799
         8         6         7        33     9      180.000000       -1.050458         2    ;  uncertainty k = 0.162594
         8         6         7        33     9        0.000000        0.547450         3    ;  uncertainty k = 0.120558
         8         6         7        33     9      180.000000       -0.069471         4    ;  uncertainty k = 0.055709
         8         6         7        34     9        0.000000        0.092898         1    ;  uncertainty k = 0.790799
         8         6         7        34     9      180.000000       -1.050458         2    ;  uncertainty k = 0.162594
         8         6         7        34     9        0.000000        0.547450         3    ;  uncertainty k = 0.120558
         8         6         7        34     9      180.000000       -0.069471         4    ;  uncertainty k = 0.055709
         8         6         7        35     9        0.000000        0.092898         1    ;  uncertainty k = 0.790799
         8         6         7        35     9      180.000000       -1.050458         2    ;  uncertainty k = 0.162594
         8         6         7        35     9        0.000000        0.547450         3    ;  uncertainty k = 0.120558
         8         6         7        35     9      180.000000       -0.069471         4    ;  uncertainty k = 0.055709
         8         6        10        11     9        0.000000        0.225426         1    ;  uncertainty k = 1.372670
         8         6        10        11     9      180.000000        1.206746         2    ;  uncertainty k = 0.401617
         8         6        10        11     9        0.000000        0.140616         3    ;  uncertainty k = 0.125438
         8         6        10        11     9      180.000000        0.247422         4    ;  uncertainty k = 0.165668
         8         6        10        15     9        0.000000        1.319884         1    ;  uncertainty k = 1.095596
         8         6        10        15     9      180.000000        1.619464         2    ;  uncertainty k = 0.542714
         8         6        10        15     9        0.000000        0.197663         3    ;  uncertainty k = 0.237792
         8         6        10        15     9      180.000000        0.230877         4    ;  uncertainty k = 0.167412
         9         8         6        10     9        0.000000        0.454405         1    ;  uncertainty k = 0.923922
         9         8         6        10     9      180.000000        3.516645         2    ;  uncertainty k = 0.647924
         9         8         6        10     9        0.000000        0.531499         3    ;  uncertainty k = 0.122450
         9         8         6        10     9      180.000000        0.063681         4    ;  uncertainty k = 0.242501
        10         6         5        43     9        0.000000        3.518096         1    ;  uncertainty k = 1.426674
        10         6         5        43     9      180.000000       -0.310266         2    ;  uncertainty k = 0.933683
        10         6         5        43     9        0.000000        0.626500         3    ;  uncertainty k = 0.431950
        10         6         5        43     9      180.000000        0.048490         4    ;  uncertainty k = 0.083666
        10         6         7        33     9        0.000000        0.312531         1    ;  uncertainty k = 0.415968
        10         6         7        33     9      180.000000       -0.283060         2    ;  uncertainty k = 0.375911
        10         6         7        33     9        0.000000        0.850059         3    ;  uncertainty k = 0.138554
        10         6         7        33     9      180.000000       -0.051090         4    ;  uncertainty k = 0.096153
        10         6         7        34     9        0.000000        0.312531         1    ;  uncertainty k = 0.415968
        10         6         7        34     9      180.000000       -0.283060         2    ;  uncertainty k = 0.375911
        10         6         7        34     9        0.000000        0.850059         3    ;  uncertainty k = 0.138554
        10         6         7        34     9      180.000000       -0.051090         4    ;  uncertainty k = 0.096153
        10         6         7        35     9        0.000000        0.312531         1    ;  uncertainty k = 0.415968
        10         6         7        35     9      180.000000       -0.283060         2    ;  uncertainty k = 0.375911
        10         6         7        35     9        0.000000        0.850059         3    ;  uncertainty k = 0.138554
        10         6         7        35     9      180.000000       -0.051090         4    ;  uncertainty k = 0.096153
        10        11        12        13     9        0.000000       -0.038044         1    ;  uncertainty k = 0.253047
        10        11        12        13     9      180.000000        8.084248         2    ;  uncertainty k = 0.525225
        10        11        12        13     9        0.000000        0.195335         3    ;  uncertainty k = 0.205947
        10        11        12        13     9      180.000000        1.325761         4    ;  uncertainty k = 0.331881
        10        11        12        17     9        0.000000        0.178449         1    ;  uncertainty k = 0.149866
        10        11        12        17     9      180.000000        9.192922         2    ;  uncertainty k = 0.715322
        10        11        12        17     9        0.000000        1.197275         3    ;  uncertainty k = 0.440707
        10        11        12        17     9      180.000000        1.652759         4    ;  uncertainty k = 0.307359
        10        15        14        13     9        0.000000       -0.011917         1    ;  uncertainty k = 0.212388
        10        15        14        13     9      180.000000        8.198846         2    ;  uncertainty k = 0.559378
        10        15        14        13     9        0.000000        0.151774         3    ;  uncertainty k = 0.313350
        10        15        14        13     9      180.000000        1.312583         4    ;  uncertainty k = 0.229427
        10        15        14        38     9        0.000000       -0.069058         1    ;  uncertainty k = 0.450100
        10        15        14        38     9      180.000000        5.546133         2    ;  uncertainty k = 0.735328
        10        15        14        38     9        0.000000        1.241185         3    ;  uncertainty k = 0.255560
        10        15        14        38     9      180.000000        1.477122         4    ;  uncertainty k = 0.130531
        11        10        15        14     9        0.000000       -0.505942         1    ;  uncertainty k = 0.234820
        11        10        15        14     9      180.000000        6.841639         2    ;  uncertainty k = 0.609761
        11        10        15        14     9        0.000000        0.216558         3    ;  uncertainty k = 0.238104
        11        10        15        14     9      180.000000        1.176370         4    ;  uncertainty k = 0.357681
        11        10        15        16     9        0.000000        0.029067         1    ;  uncertainty k = 0.387136
        11        10        15        16     9      180.000000       11.081870         2    ;  uncertainty k = 0.414135
        11        10        15        16     9        0.000000        1.448955         3    ;  uncertainty k = 0.289331
        11        10        15        16     9      180.000000        1.443204         4    ;  uncertainty k = 0.268401
        11        12        13        14     9        0.000000       -0.162584         1    ;  uncertainty k = 0.154828
        11        12        13        14     9      180.000000        9.585310         2    ;  uncertainty k = 0.431928
        11        12        13        14     9        0.000000       -0.019447         3    ;  uncertainty k = 0.161921
        11        12        13        14     9      180.000000        1.248867         4    ;  uncertainty k = 0.225066
        11        12        13        37     9        0.000000        0.175302         1    ;  uncertainty k = 0.362201
        11        12        13        37     9      180.000000        6.984279         2    ;  uncertainty k = 0.434912
        11        12        13        37     9        0.000000        1.168023         3    ;  uncertainty k = 0.377959
        11        12        13        37     9      180.000000        1.509532         4    ;  uncertainty k = 0.159808
        11        12        17        18     9        0.000000        1.142989         1    ;  uncertainty k = 0.735989
        11        12        17        18     9      180.000000        5.075816         2    ;  uncertainty k = 0.189266
        11        12        17        18     9        0.000000        0.941432         3    ;  uncertainty k = 0.140470
        11        12        17        18     9      180.000000        0.065535         4    ;  uncertainty k = 0.099153
        11        12        17        39     9        0.000000        0.859641         1    ;  uncertainty k = 1.308595
        11        12        17        39     9      180.000000        3.879847         2    ;  uncertainty k = 0.173637
        11        12        17        39     9        0.000000        0.658166         3    ;  uncertainty k = 0.136831
        11        12        17        39     9      180.000000        0.517179         4    ;  uncertainty k = 0.105309
        12        11        10        15     9        0.000000       -0.363161         1    ;  uncertainty k = 0.433207
        12        11        10        15     9      180.000000       11.389698         2    ;  uncertainty k = 0.299180
        12        11        10        15     9        0.000000       -0.040425         3    ;  uncertainty k = 0.527247
        12        11        10        15     9      180.000000        1.047917         4    ;  uncertainty k = 0.337471
        12        13        14        15     9        0.000000       -0.146442         1    ;  uncertainty k = 0.293671
        12        13        14        15     9      180.000000       14.050927         2    ;  uncertainty k = 0.332830
        12        13        14        15     9        0.000000       -0.739202         3    ;  uncertainty k = 0.507006
        12        13        14        15     9      180.000000        0.853741         4    ;  uncertainty k = 0.256323
        12        13        14        38     9        0.000000        0.080120         1    ;  uncertainty k = 0.387914
        12        13        14        38     9      180.000000        7.987227         2    ;  uncertainty k = 0.361473
        12        13        14        38     9        0.000000        1.316220         3    ;  uncertainty k = 0.317948
        12        13        14        38     9      180.000000        1.773079         4    ;  uncertainty k = 0.109852
        12        17        18        19     9        0.000000        3.240344         1    ;  uncertainty k = 0.663397
        12        17        18        19     9      180.000000       14.152792         2    ;  uncertainty k = 0.262558
        12        17        18        19     9        0.000000        0.798518         3    ;  uncertainty k = 0.147197
        12        17        18        19     9      180.000000       -0.666023         4    ;  uncertainty k = 0.359249
        12        17        18        20     9        0.000000        4.303678         1    ;  uncertainty k = 1.197658
        12        17        18        20     9      180.000000       11.728807         2    ;  uncertainty k = 0.131542
        12        17        18        20     9        0.000000        2.213371         3    ;  uncertainty k = 0.293820
        12        17        18        20     9      180.000000       -1.438482         4    ;  uncertainty k = 0.258038
        13        12        11        36     9        0.000000        0.111578         1    ;  uncertainty k = 0.233158
        13        12        11        36     9      180.000000        6.849567         2    ;  uncertainty k = 0.564465
        13        12        11        36     9        0.000000        1.357312         3    ;  uncertainty k = 0.244477
        13        12        11        36     9      180.000000        1.567497         4    ;  uncertainty k = 0.123625
        13        12        17        18     9        0.000000        1.196353         1    ;  uncertainty k = 0.313995
        13        12        17        18     9      180.000000        4.752863         2    ;  uncertainty k = 0.100182
        13        12        17        18     9        0.000000        1.111419         3    ;  uncertainty k = 0.158014
        13        12        17        18     9      180.000000        0.085711         4    ;  uncertainty k = 0.061206
        13        12        17        39     9        0.000000        0.583631         1    ;  uncertainty k = 1.259808
        13        12        17        39     9      180.000000        3.677859         2    ;  uncertainty k = 0.099536
        13        12        17        39     9        0.000000        0.734240         3    ;  uncertainty k = 0.147302
        13        12        17        39     9      180.000000        0.616408         4    ;  uncertainty k = 0.146629
        13        14        15        16     9        0.000000       -0.114150         1    ;  uncertainty k = 0.292409
        13        14        15        16     9      180.000000       12.746391         2    ;  uncertainty k = 0.487808
        13        14        15        16     9        0.000000        1.376758         3    ;  uncertainty k = 0.328547
        13        14        15        16     9      180.000000        1.579279         4    ;  uncertainty k = 0.251795
        14        13        12        17     9        0.000000        0.095515         1    ;  uncertainty k = 0.138419
        14        13        12        17     9      180.000000       10.394329         2    ;  uncertainty k = 0.505462
        14        13        12        17     9        0.000000        1.055316         3    ;  uncertainty k = 0.482072
        14        13        12        17     9      180.000000        1.652733         4    ;  uncertainty k = 0.176654
        15        10        11        36     9        0.000000        0.221496         1    ;  uncertainty k = 0.232051
        15        10        11        36     9      180.000000        8.396549         2    ;  uncertainty k = 0.441879
        15        10        11        36     9        0.000000        1.451911         3    ;  uncertainty k = 0.307483
        15        10        11        36     9      180.000000        1.715393         4    ;  uncertainty k = 0.081530
        15        14        13        37     9        0.000000        0.022040         1    ;  uncertainty k = 0.329406
        15        14        13        37     9      180.000000        8.003126         2    ;  uncertainty k = 0.219508
        15        14        13        37     9        0.000000        1.360654         3    ;  uncertainty k = 0.321807
        15        14        13        37     9      180.000000        1.777549         4    ;  uncertainty k = 0.142627
        16        15        14        38     9        0.000000       -0.375837         1    ;  uncertainty k = 0.348166
        16        15        14        38     9      180.000000        9.433972         2    ;  uncertainty k = 0.324302
        16        15        14        38     9        0.000000        0.832173         3    ;  uncertainty k = 0.148084
        16        15        14        38     9      180.000000        1.086079         4    ;  uncertainty k = 0.147203
        17        12        11        36     9        0.000000       -0.023463         1    ;  uncertainty k = 0.272858
        17        12        11        36     9      180.000000        8.487343         2    ;  uncertainty k = 0.549257
        17        12        11        36     9        0.000000        0.850467         3    ;  uncertainty k = 0.145638
        17        12        11        36     9      180.000000        1.310707         4    ;  uncertainty k = 0.243905
        17        12        13        37     9        0.000000       -0.233780         1    ;  uncertainty k = 0.220745
        17        12        13        37     9      180.000000        8.524785         2    ;  uncertainty k = 0.497118
        17        12        13        37     9        0.000000        0.831092         3    ;  uncertainty k = 0.224819
        17        12        13        37     9      180.000000        1.178125         4    ;  uncertainty k = 0.198241
        17        18        20        21     9        0.000000       -0.575136         1    ;  uncertainty k = 0.796706
        17        18        20        21     9      180.000000        3.066837         2    ;  uncertainty k = 0.236316
        17        18        20        21     9        0.000000        0.194259         3    ;  uncertainty k = 0.169185
        17        18        20        21     9      180.000000        0.008432         4    ;  uncertainty k = 0.120941
        17        18        20        27     9        0.000000        2.385710         1    ;  uncertainty k = 1.510105
        17        18        20        27     9      180.000000        3.749023         2    ;  uncertainty k = 0.332110
        17        18        20        27     9        0.000000        0.209274         3    ;  uncertainty k = 0.417307
        17        18        20        27     9      180.000000        0.208737         4    ;  uncertainty k = 0.095585
        18        20        21        22     9        0.000000        0.007343         1    ;  uncertainty k = 0.411369
        18        20        21        22     9      180.000000        7.814028         2    ;  uncertainty k = 0.574511
        18        20        21        22     9        0.000000        1.202522         3    ;  uncertainty k = 0.263090
        18        20        21        22     9      180.000000        1.612403         4    ;  uncertainty k = 0.259655
        18        20        21        40     9        0.000000       -0.302389         1    ;  uncertainty k = 0.887283
        18        20        21        40     9      180.000000        6.847856         2    ;  uncertainty k = 0.586837
        18        20        21        40     9        0.000000        0.833352         3    ;  uncertainty k = 0.332479
        18        20        21        40     9      180.000000        0.935062         4    ;  uncertainty k = 0.302092
        18        20        27        26     9        0.000000        0.583607         1    ;  uncertainty k = 1.590902
        18        20        27        26     9      180.000000       13.112861         2    ;  uncertainty k = 0.466803
        18        20        27        26     9        0.000000        2.659121         3    ;  uncertainty k = 0.323322
        18        20        27        26     9      180.000000        1.649354         4    ;  uncertainty k = 0.468871
        19        18        17        39     9        0.000000        1.017144         1    ;  uncertainty k = 1.191968
        19        18        17        39     9      180.000000       12.880935         2    ;  uncertainty k = 0.598093
        19        18        17        39     9        0.000000        2.351981         3    ;  uncertainty k = 0.472320
        19        18        17        39     9      180.000000        0.106752         4    ;  uncertainty k = 0.240367
        19        18        20        21     9        0.000000       -1.076900         1    ;  uncertainty k = 0.441759
        19        18        20        21     9      180.000000        3.212519         2    ;  uncertainty k = 0.116135
        19        18        20        21     9        0.000000        0.431644         3    ;  uncertainty k = 0.336937
        19        18        20        21     9      180.000000       -0.007784         4    ;  uncertainty k = 0.063838
        19        18        20        27     9        0.000000       -2.875747         1    ;  uncertainty k = 1.849863
        19        18        20        27     9      180.000000        3.960683         2    ;  uncertainty k = 0.734801
        19        18        20        27     9        0.000000        0.599464         3    ;  uncertainty k = 0.254848
        19        18        20        27     9      180.000000        0.099120         4    ;  uncertainty k = 0.122641
        20        18        17        39     9        0.000000        1.255822         1    ;  uncertainty k = 1.341281
        20        18        17        39     9      180.000000        5.283562         2    ;  uncertainty k = 0.564308
        20        18        17        39     9        0.000000        1.888240         3    ;  uncertainty k = 0.457826
        20        18        17        39     9      180.000000        0.329420         4    ;  uncertainty k = 0.154330
        20        21        22        23     9        0.000000       -0.121097         1    ;  uncertainty k = 0.469058
        20        21        22        23     9      180.000000       13.550959         2    ;  uncertainty k = 0.235743
        20        21        22        23     9        0.000000       -0.756108         3    ;  uncertainty k = 0.335654
        20        21        22        23     9      180.000000        0.799918         4    ;  uncertainty k = 0.155475
        20        21        22        41     9        0.000000       -0.107032         1    ;  uncertainty k = 0.130573
        20        21        22        41     9      180.000000        8.171718         2    ;  uncertainty k = 0.450235
        20        21        22        41     9        0.000000        1.194439         3    ;  uncertainty k = 0.234666
        20        21        22        41     9      180.000000        1.510031         4    ;  uncertainty k = 0.137238
        20        27        26        23     9        0.000000       -0.431360         1    ;  uncertainty k = 0.569289
        20        27        26        23     9      180.000000       14.346598         2    ;  uncertainty k = 0.295972
        20        27        26        23     9        0.000000        1.263902         3    ;  uncertainty k = 0.598407
        20        27        26        23     9      180.000000        1.400695         4    ;  uncertainty k = 0.257775
        20        27        26        42     9        0.000000        0.295588         1    ;  uncertainty k = 0.583415
        20        27        26        42     9      180.000000       15.536544         2    ;  uncertainty k = 0.312629
        20        27        26        42     9        0.000000        2.183951         3    ;  uncertainty k = 0.594422
        20        27        26        42     9      180.000000        1.477465         4    ;  uncertainty k = 0.271622
        21        20        27        26     9        0.000000       -0.495826         1    ;  uncertainty k = 0.291262
        21        20        27        26     9      180.000000       12.278980         2    ;  uncertainty k = 0.339542
        21        20        27        26     9        0.000000        1.557759         3    ;  uncertainty k = 0.538309
        21        20        27        26     9      180.000000        1.284910         4    ;  uncertainty k = 0.261053
        21        22        23        24     9        0.000000        0.028066         1    ;  uncertainty k = 0.099121
        21        22        23        24     9      180.000000       10.305759         2    ;  uncertainty k = 0.240339
        21        22        23        24     9        0.000000        1.296065         3    ;  uncertainty k = 0.314772
        21        22        23        24     9      180.000000        1.442703         4    ;  uncertainty k = 0.095348
        21        22        23        26     9        0.000000       -0.099384         1    ;  uncertainty k = 0.187521
        21        22        23        26     9      180.000000       11.340527         2    ;  uncertainty k = 0.410633
        21        22        23        26     9        0.000000       -0.721004         3    ;  uncertainty k = 0.345912
        21        22        23        26     9      180.000000        0.839279         4    ;  uncertainty k = 0.357111
        22        21        20        27     9        0.000000       -0.211004         1    ;  uncertainty k = 0.204157
        22        21        20        27     9      180.000000       11.240587         2    ;  uncertainty k = 0.420100
        22        21        20        27     9        0.000000       -0.217589         3    ;  uncertainty k = 0.195307
        22        21        20        27     9      180.000000        1.162024         4    ;  uncertainty k = 0.190886
        22        23        24        25     9        0.000000        0.000000         1    ;  uncertainty k = 0.000000
        22        23        24        25     9      180.000000        0.000000         2    ;  uncertainty k = 0.000000
        22        23        24        25     9        0.000000        0.000000         3    ;  uncertainty k = 0.000000
        22        23        24        25     9      180.000000        0.000000         4    ;  uncertainty k = 0.000000
        22        23        26        27     9        0.000000       -0.395659         1    ;  uncertainty k = 0.272620
        22        23        26        27     9      180.000000       11.791068         2    ;  uncertainty k = 0.548692
        22        23        26        27     9        0.000000       -0.643212         3    ;  uncertainty k = 0.601270
        22        23        26        27     9      180.000000        1.094128         4    ;  uncertainty k = 0.164600
        22        23        26        42     9        0.000000       -0.261930         1    ;  uncertainty k = 0.302680
        22        23        26        42     9      180.000000        4.964235         2    ;  uncertainty k = 0.925782
        22        23        26        42     9        0.000000        0.984066         3    ;  uncertainty k = 0.066024
        22        23        26        42     9      180.000000        1.321595         4    ;  uncertainty k = 0.185914
        23        22        21        40     9        0.000000        0.154226         1    ;  uncertainty k = 0.281401
        23        22        21        40     9      180.000000        8.639007         2    ;  uncertainty k = 0.402183
        23        22        21        40     9        0.000000        1.255352         3    ;  uncertainty k = 0.449510
        23        22        21        40     9      180.000000        1.786934         4    ;  uncertainty k = 0.143907
        24        23        22        41     9        0.000000       -0.430703         1    ;  uncertainty k = 0.853819
        24        23        22        41     9      180.000000        7.185223         2    ;  uncertainty k = 0.288214
        24        23        22        41     9        0.000000        0.559582         3    ;  uncertainty k = 0.183885
        24        23        22        41     9      180.000000        0.937071         4    ;  uncertainty k = 0.184963
        24        23        26        27     9        0.000000        0.177358         1    ;  uncertainty k = 0.350658
        24        23        26        27     9      180.000000        9.841493         2    ;  uncertainty k = 0.330831
        24        23        26        27     9        0.000000        1.045470         3    ;  uncertainty k = 0.237527
        24        23        26        27     9      180.000000        1.498093         4    ;  uncertainty k = 0.187758
        24        23        26        42     9        0.000000       -0.240781         1    ;  uncertainty k = 0.594263
        24        23        26        42     9      180.000000        6.871727         2    ;  uncertainty k = 0.219624
        24        23        26        42     9        0.000000        0.601043         3    ;  uncertainty k = 0.272151
        24        23        26        42     9      180.000000        0.882497         4    ;  uncertainty k = 0.151905
        25        24        23        26     9        0.000000        0.000000         1    ;  uncertainty k = 0.000000
        25        24        23        26     9      180.000000        0.000000         2    ;  uncertainty k = 0.000000
        25        24        23        26     9        0.000000        0.000000         3    ;  uncertainty k = 0.000000
        25        24        23        26     9      180.000000        0.000000         4    ;  uncertainty k = 0.000000
        26        23        22        41     9        0.000000       -0.164144         1    ;  uncertainty k = 0.720129
        26        23        22        41     9      180.000000        6.254452         2    ;  uncertainty k = 0.577004
        26        23        22        41     9        0.000000        1.131316         3    ;  uncertainty k = 0.111182
        26        23        22        41     9      180.000000        1.444922         4    ;  uncertainty k = 0.155009
        27        20        21        40     9        0.000000       -0.041914         1    ;  uncertainty k = 0.434365
        27        20        21        40     9      180.000000        7.329732         2    ;  uncertainty k = 0.683751
        27        20        21        40     9        0.000000        0.945353         3    ;  uncertainty k = 0.114669
        27        20        21        40     9      180.000000        1.592211         4    ;  uncertainty k = 0.180739
        37        13        14        38     9        0.000000       -0.150186         1    ;  uncertainty k = 0.338566
        37        13        14        38     9      180.000000        8.242436         2    ;  uncertainty k = 0.374971
        37        13        14        38     9        0.000000       -0.410027         3    ;  uncertainty k = 0.246833
        37        13        14        38     9      180.000000        0.145293         4    ;  uncertainty k = 0.230992
        40        21        22        41     9        0.000000       -0.346628         1    ;  uncertainty k = 0.341371
        40        21        22        41     9      180.000000        8.493914         2    ;  uncertainty k = 0.524981
        40        21        22        41     9        0.000000       -0.336752         3    ;  uncertainty k = 0.267807
        40        21        22        41     9      180.000000        0.252052         4    ;  uncertainty k = 0.222344

[ dihedrals ] ; impropers
;       ai        aj        ak        al funct           phase               k        pn
         2         1         3         8     4      180.000000        2.050788         2    ;  uncertainty k = 0.595494
         2         3         8         1     4      180.000000        2.050788         2    ;  uncertainty k = 0.595494
         2         8         1         3     4      180.000000        2.050788         2    ;  uncertainty k = 0.595494
         3         2         4         5     4      180.000000       30.541077         2    ;  uncertainty k = 0.134872
         3         4         5         2     4      180.000000       30.541077         2    ;  uncertainty k = 0.134872
         3         5         2         4     4      180.000000       30.541077         2    ;  uncertainty k = 0.134872
         8         2         6         9     4      180.000000       50.608842         2    ;  uncertainty k = 0.038350
         8         6         9         2     4      180.000000       50.608842         2    ;  uncertainty k = 0.038350
         8         9         2         6     4      180.000000       50.608842         2    ;  uncertainty k = 0.038350
        10         6        11        15     4      180.000000        8.516790         2    ;  uncertainty k = 0.273709
        10        11        15         6     4      180.000000        8.516790         2    ;  uncertainty k = 0.273709
        10        15         6        11     4      180.000000        8.516790         2    ;  uncertainty k = 0.273709
        11        10        12        36     4      180.000000        3.957610         2    ;  uncertainty k = 0.395698
        11        12        36        10     4      180.000000        3.957610         2    ;  uncertainty k = 0.395698
        11        36        10        12     4      180.000000        3.957610         2    ;  uncertainty k = 0.395698
        12        11        13        17     4      180.000000       16.751720         2    ;  uncertainty k = 0.137188
        12        13        17        11     4      180.000000       16.751720         2    ;  uncertainty k = 0.137188
        12        17        11        13     4      180.000000       16.751720         2    ;  uncertainty k = 0.137188
        13        12        14        37     4      180.000000        3.756057         2    ;  uncertainty k = 0.236002
        13        14        37        12     4      180.000000        3.756057         2    ;  uncertainty k = 0.236002
        13        37        12        14     4      180.000000        3.756057         2    ;  uncertainty k = 0.236002
        14        13        15        38     4      180.000000        1.836901         2    ;  uncertainty k = 0.395257
        14        15        38        13     4      180.000000        1.836901         2    ;  uncertainty k = 0.395257
        14        38        13        15     4      180.000000        1.836901         2    ;  uncertainty k = 0.395257
        15        10        14        16     4      180.000000       14.878616         2    ;  uncertainty k = 0.156272
        15        14        16        10     4      180.000000       14.878616         2    ;  uncertainty k = 0.156272
        15        16        10        14     4      180.000000       14.878616         2    ;  uncertainty k = 0.156272
        17        12        18        39     4      180.000000        1.002942         2    ;  uncertainty k = 0.697272
        17        18        39        12     4      180.000000        1.002942         2    ;  uncertainty k = 0.697272
        17        39        12        18     4      180.000000        1.002942         2    ;  uncertainty k = 0.697272
        18        17        19        20     4      180.000000       48.916168         2    ;  uncertainty k = 0.023605
        18        19        20        17     4      180.000000       48.916168         2    ;  uncertainty k = 0.023605
        18        20        17        19     4      180.000000       48.916168         2    ;  uncertainty k = 0.023605
        20        18        21        27     4      180.000000       18.838186         2    ;  uncertainty k = 0.109233
        20        21        27        18     4      180.000000       18.838186         2    ;  uncertainty k = 0.109233
        20        27        18        21     4      180.000000       18.838186         2    ;  uncertainty k = 0.109233
        21        20        22        40     4      180.000000        4.232527         2    ;  uncertainty k = 0.159899
        21        22        40        20     4      180.000000        4.232527         2    ;  uncertainty k = 0.159899
        21        40        20        22     4      180.000000        4.232527         2    ;  uncertainty k = 0.159899
        22        21        23        41     4      180.000000        6.657182         2    ;  uncertainty k = 0.148063
        22        23        41        21     4      180.000000        6.657182         2    ;  uncertainty k = 0.148063
        22        41        21        23     4      180.000000        6.657182         2    ;  uncertainty k = 0.148063
        23        22        24        26     4      180.000000       10.064051         2    ;  uncertainty k = 0.216225
        23        24        26        22     4      180.000000       10.064051         2    ;  uncertainty k = 0.216225
        23        26        22        24     4      180.000000       10.064051         2    ;  uncertainty k = 0.216225
        26        23        27        42     4      180.000000       14.295601         2    ;  uncertainty k = 0.182127
        26        27        42        23     4      180.000000       14.295601         2    ;  uncertainty k = 0.182127
        26        42        23        27     4      180.000000       14.295601         2    ;  uncertainty k = 0.182127

[ pairs ]
;       ai        aj funct
         1         4     1
         1         5     1
         1         6     1
         1         9     1
         2         7     1
         2        10     1
         2        31     1
         2        32     1
         2        43     1
         3         7     1
         3         9     1
         3        10     1
         3        28     1
         3        29     1
         3        30     1
         4         6     1
         4         8     1
         4        43     1
         5         9     1
         5        11     1
         5        15     1
         5        31     1
         5        32     1
         5        33     1
         5        34     1
         5        35     1
         6        12     1
         6        14     1
         6        16     1
         6        36     1
         7         9     1
         7        11     1
         7        15     1
         7        43     1
         8        11     1
         8        15     1
         8        28     1
         8        29     1
         8        30     1
         8        33     1
         8        34     1
         8        35     1
         8        43     1
         9        10     1
        10        13     1
        10        17     1
        10        33     1
        10        34     1
        10        35     1
        10        38     1
        10        43     1
        11        14     1
        11        16     1
        11        18     1
        11        37     1
        11        39     1
        12        15     1
        12        19     1
        12        20     1
        12        38     1
        13        16     1
        13        18     1
        13        36     1
        13        39     1
        14        17     1
        15        36     1
        15        37     1
        16        38     1
        17        21     1
        17        27     1
        17        36     1
        17        37     1
        18        22     1
        18        26     1
        18        40     1
        19        21     1
        19        27     1
        19        39     1
        20        23     1
        20        39     1
        20        41     1
        20        42     1
        21        24     1
        21        26     1
        22        25     1
        22        27     1
        22        42     1
        23        40     1
        24        27     1
        24        41     1
        24        42     1
        25        26     1
        26        41     1
        27        40     1
        37        38     1
        40        41     1
