; ITP file created by ByteFF-joint-25, 2025-07-14 11:32:18.082499

[ atomtypes ]
;name           bonded.type        at.num        mass        charge   ptype           sigma         epsilon
 c0bf                                   6      0.0000       0.00000       A     3.39732e-01     4.51240e-01    ;  uncertainty sigma = 0.000013, epsilon = 0.001269
 n1bf                                   7      0.0000       0.00000       A     3.18099e-01     6.83564e-01    ;  uncertainty sigma = 0.000071, epsilon = 0.006492
 c2bf                                   6      0.0000       0.00000       A     3.31513e-01     4.12139e-01    ;  uncertainty sigma = 0.000056, epsilon = 0.001615
 n3bf                                   7      0.0000       0.00000       A     3.36545e-01     4.71525e-01    ;  uncertainty sigma = 0.000086, epsilon = 0.005555
 n4bf                                   7      0.0000       0.00000       A     3.27634e-01     6.54915e-01    ;  uncertainty sigma = 0.000107, epsilon = 0.008004
 c5bf                                   6      0.0000       0.00000       A     3.39753e-01     4.52739e-01    ;  uncertainty sigma = 0.000042, epsilon = 0.001595
 c6bf                                   6      0.0000       0.00000       A     3.39744e-01     4.50534e-01    ;  uncertainty sigma = 0.000020, epsilon = 0.000972
 c7bf                                   6      0.0000       0.00000       A     3.31542e-01     4.13673e-01    ;  uncertainty sigma = 0.000009, epsilon = 0.000631
 o8bf                                   8      0.0000       0.00000       A     3.04810e-01     6.12222e-01    ;  uncertainty sigma = 0.000062, epsilon = 0.002116
 c9bf                                   6      0.0000       0.00000       A     3.31491e-01     4.13511e-01    ;  uncertainty sigma = 0.000025, epsilon = 0.000549
 c10bf                                  6      0.0000       0.00000       A     3.31538e-01     4.14259e-01    ;  uncertainty sigma = 0.000011, epsilon = 0.001415
 c11bf                                  6      0.0000       0.00000       A     3.31511e-01     4.13240e-01    ;  uncertainty sigma = 0.000009, epsilon = 0.001104
 c12bf                                  6      0.0000       0.00000       A     3.31527e-01     4.13349e-01    ;  uncertainty sigma = 0.000006, epsilon = 0.000428
 c13bf                                  6      0.0000       0.00000       A     3.31529e-01     4.13207e-01    ;  uncertainty sigma = 0.000002, epsilon = 0.000645
 c14bf                                  6      0.0000       0.00000       A     3.31537e-01     4.12958e-01    ;  uncertainty sigma = 0.000011, epsilon = 0.000445
 f15bf                                  9      0.0000       0.00000       A     3.03466e-01     3.47837e-01    ;  uncertainty sigma = 0.000024, epsilon = 0.001425
 n16bf                                  7      0.0000       0.00000       A     3.27000e-01     4.90774e-01    ;  uncertainty sigma = 0.000031, epsilon = 0.001085
 c17bf                                  6      0.0000       0.00000       A     3.31512e-01     4.12533e-01    ;  uncertainty sigma = 0.000017, epsilon = 0.000770
 o18bf                                  8      0.0000       0.00000       A     3.04829e-01     6.12938e-01    ;  uncertainty sigma = 0.000026, epsilon = 0.001502
 c19bf                                  6      0.0000       0.00000       A     3.31529e-01     4.12962e-01    ;  uncertainty sigma = 0.000009, epsilon = 0.000908
 c20bf                                  6      0.0000       0.00000       A     3.31550e-01     4.13644e-01    ;  uncertainty sigma = 0.000016, epsilon = 0.001519
 n21bf                                  7      0.0000       0.00000       A     3.38407e-01     3.93616e-01    ;  uncertainty sigma = 0.000019, epsilon = 0.000775
 c22bf                                  6      0.0000       0.00000       A     3.31551e-01     4.13002e-01    ;  uncertainty sigma = 0.000008, epsilon = 0.002041
 c23bf                                  6      0.0000       0.00000       A     3.31535e-01     4.13520e-01    ;  uncertainty sigma = 0.000009, epsilon = 0.001032
 n24bf                                  7      0.0000       0.00000       A     3.38390e-01     3.93325e-01    ;  uncertainty sigma = 0.000020, epsilon = 0.000401
 o25bf                                  8      0.0000       0.00000       A     3.15652e-01     3.03838e-01    ;  uncertainty sigma = 0.000023, epsilon = 0.001259
 c26bf                                  6      0.0000       0.00000       A     3.39782e-01     4.51037e-01    ;  uncertainty sigma = 0.000009, epsilon = 0.000707
 c27bf                                  6      0.0000       0.00000       A     3.39756e-01     4.51387e-01    ;  uncertainty sigma = 0.000018, epsilon = 0.001124
 f28bf                                  9      0.0000       0.00000       A     3.03411e-01     3.48276e-01    ;  uncertainty sigma = 0.000012, epsilon = 0.000500
 f29bf                                  9      0.0000       0.00000       A     3.03411e-01     3.48276e-01    ;  uncertainty sigma = 0.000012, epsilon = 0.000500
 f30bf                                  9      0.0000       0.00000       A     3.03411e-01     3.48276e-01    ;  uncertainty sigma = 0.000012, epsilon = 0.000500
 h31bf                                  1      0.0000       0.00000       A     2.42208e-01     8.66970e-02    ;  uncertainty sigma = 0.000028, epsilon = 0.000664
 h32bf                                  1      0.0000       0.00000       A     2.42208e-01     8.66970e-02    ;  uncertainty sigma = 0.000028, epsilon = 0.000664
 h33bf                                  1      0.0000       0.00000       A     2.42208e-01     8.66970e-02    ;  uncertainty sigma = 0.000028, epsilon = 0.000664
 h34bf                                  1      0.0000       0.00000       A     1.10696e-01     4.12786e-02    ;  uncertainty sigma = 0.000128, epsilon = 0.001559
 h35bf                                  1      0.0000       0.00000       A     1.10696e-01     4.12786e-02    ;  uncertainty sigma = 0.000128, epsilon = 0.001559
 h36bf                                  1      0.0000       0.00000       A     2.60006e-01     8.67799e-02    ;  uncertainty sigma = 0.000022, epsilon = 0.000839
 h37bf                                  1      0.0000       0.00000       A     2.60006e-01     8.67799e-02    ;  uncertainty sigma = 0.000022, epsilon = 0.000839
 h38bf                                  1      0.0000       0.00000       A     2.60006e-01     8.67799e-02    ;  uncertainty sigma = 0.000022, epsilon = 0.000839
 h39bf                                  1      0.0000       0.00000       A     2.62574e-01     6.70744e-02    ;  uncertainty sigma = 0.000008, epsilon = 0.000594
 h40bf                                  1      0.0000       0.00000       A     2.62560e-01     6.69889e-02    ;  uncertainty sigma = 0.000013, epsilon = 0.000439
 h41bf                                  1      0.0000       0.00000       A     2.62564e-01     6.69923e-02    ;  uncertainty sigma = 0.000012, epsilon = 0.000408
 h42bf                                  1      0.0000       0.00000       A     1.10674e-01     4.15810e-02    ;  uncertainty sigma = 0.000084, epsilon = 0.000795
 h43bf                                  1      0.0000       0.00000       A     2.53700e-01     6.73606e-02    ;  uncertainty sigma = 0.000029, epsilon = 0.000744
 h44bf                                  1      0.0000       0.00000       A     2.53590e-01     6.71067e-02    ;  uncertainty sigma = 0.000043, epsilon = 0.000735
 h45bf                                  1      0.0000       0.00000       A     2.42152e-01     8.67812e-02    ;  uncertainty sigma = 0.000040, epsilon = 0.000729
 h46bf                                  1      0.0000       0.00000       A     2.42152e-01     8.67812e-02    ;  uncertainty sigma = 0.000040, epsilon = 0.000729
 h47bf                                  1      0.0000       0.00000       A     1.10603e-01     4.03331e-02    ;  uncertainty sigma = 0.000168, epsilon = 0.001487

[ moleculetype ]
;name             nrexcl
 MOL                   3

[ atoms ]
;       nr            type      resi   res      atom      cgnr      charge          mass ; qtot
         1            c0bf         1   UNL        c0         1     0.07382       12.0110 ; qtot    0.074
         2            n1bf         1   UNL        n1         2    -0.42192       14.0070 ; qtot   -0.348
         3            c2bf         1   UNL        c2         3     0.46437       12.0110 ; qtot    0.116
         4            n3bf         1   UNL        n3         4    -0.47980       14.0070 ; qtot   -0.364
         5            n4bf         1   UNL        n4         5    -0.38521       14.0070 ; qtot   -0.749
         6            c5bf         1   UNL        c5         6     0.05406       12.0110 ; qtot   -0.695
         7            c6bf         1   UNL        c6         7    -0.10092       12.0110 ; qtot   -0.796
         8            c7bf         1   UNL        c7         8     0.70283       12.0110 ; qtot   -0.093
         9            o8bf         1   UNL        o8         9    -0.44648       15.9990 ; qtot   -0.539
        10            c9bf         1   UNL        c9        10    -0.14361       12.0110 ; qtot   -0.683
        11           c10bf         1   UNL       c10        11    -0.10356       12.0110 ; qtot   -0.786
        12           c11bf         1   UNL       c11        12     0.08305       12.0110 ; qtot   -0.703
        13           c12bf         1   UNL       c12        13    -0.12400       12.0110 ; qtot   -0.827
        14           c13bf         1   UNL       c13        14    -0.10523       12.0110 ; qtot   -0.933
        15           c14bf         1   UNL       c14        15     0.12000       12.0110 ; qtot   -0.813
        16           f15bf         1   UNL       f15        16    -0.14660       18.9980 ; qtot   -0.959
        17           n16bf         1   UNL       n16        17    -0.46213       14.0070 ; qtot   -1.421
        18           c17bf         1   UNL       c17        18     0.59150       12.0110 ; qtot   -0.830
        19           o18bf         1   UNL       o18        19    -0.57869       15.9990 ; qtot   -1.409
        20           c19bf         1   UNL       c19        20     0.19946       12.0110 ; qtot   -1.209
        21           c20bf         1   UNL       c20        21     0.39065       12.0110 ; qtot   -0.818
        22           n21bf         1   UNL       n21        22    -0.71368       14.0070 ; qtot   -1.532
        23           c22bf         1   UNL       c22        23     0.54824       12.0110 ; qtot   -0.984
        24           c23bf         1   UNL       c23        24     0.27468       12.0110 ; qtot   -0.709
        25           n24bf         1   UNL       n24        25    -0.60304       14.0070 ; qtot   -1.312
        26           o25bf         1   UNL       o25        26    -0.41486       15.9990 ; qtot   -1.727
        27           c26bf         1   UNL       c26        27     0.08190       12.0110 ; qtot   -1.645
        28           c27bf         1   UNL       c27        28     0.64267       12.0110 ; qtot   -1.003
        29           f28bf         1   UNL       f28        29    -0.22529       18.9980 ; qtot   -1.228
        30           f29bf         1   UNL       f29        30    -0.22529       18.9980 ; qtot   -1.453
        31           f30bf         1   UNL       f30        31    -0.22529       18.9980 ; qtot   -1.678
        32           h31bf         1   UNL       h31        32     0.09090        1.0080 ; qtot   -1.587
        33           h32bf         1   UNL       h32        33     0.09090        1.0080 ; qtot   -1.497
        34           h33bf         1   UNL       h33        34     0.09090        1.0080 ; qtot   -1.406
        35           h34bf         1   UNL       h34        35     0.33566        1.0080 ; qtot   -1.070
        36           h35bf         1   UNL       h35        36     0.33566        1.0080 ; qtot   -0.734
        37           h36bf         1   UNL       h36        37     0.07984        1.0080 ; qtot   -0.655
        38           h37bf         1   UNL       h37        38     0.07984        1.0080 ; qtot   -0.575
        39           h38bf         1   UNL       h38        39     0.07984        1.0080 ; qtot   -0.495
        40           h39bf         1   UNL       h39        40     0.16861        1.0080 ; qtot   -0.326
        41           h40bf         1   UNL       h40        41     0.15964        1.0080 ; qtot   -0.167
        42           h41bf         1   UNL       h41        42     0.16862        1.0080 ; qtot    0.002
        43           h42bf         1   UNL       h42        43     0.34809        1.0080 ; qtot    0.350
        44           h43bf         1   UNL       h43        44     0.05731        1.0080 ; qtot    0.407
        45           h44bf         1   UNL       h44        45     0.04926        1.0080 ; qtot    0.457
        46           h45bf         1   UNL       h45        46     0.09580        1.0080 ; qtot    0.552
        47           h46bf         1   UNL       h46        47     0.09580        1.0080 ; qtot    0.648
        48           h47bf         1   UNL       h47        48     0.35170        1.0080 ; qtot    1.000

[ bonds ]
;       ai        aj funct               r               k
         1         2     1        0.146710   261079.914551    ;  uncertainty r = 0.000135, k = 11.513988
         1        32     1        0.109172   309349.367041    ;  uncertainty r = 0.000046, k = 3.240045
         1        33     1        0.109172   309349.367041    ;  uncertainty r = 0.000046, k = 3.240045
         1        34     1        0.109172   309349.367041    ;  uncertainty r = 0.000046, k = 3.240045
         2         3     1        0.135553   282297.549561    ;  uncertainty r = 0.000187, k = 45.488185
         2         8     1        0.142536   298215.774707    ;  uncertainty r = 0.000299, k = 75.837484
         3         4     1        0.133017   314195.365527    ;  uncertainty r = 0.000190, k = 44.855063
         3         5     1        0.133523   515001.317676    ;  uncertainty r = 0.000100, k = 46.996006
         4        35     1        0.101394   420987.496533    ;  uncertainty r = 0.000069, k = 12.104678
         4        36     1        0.101394   420987.496533    ;  uncertainty r = 0.000069, k = 12.104678
         5         6     1        0.149590   224745.919629    ;  uncertainty r = 0.000280, k = 51.158402
         5        48     1        0.101521   426524.963330    ;  uncertainty r = 0.000057, k = 5.253946
         6         7     1        0.152905   202609.038062    ;  uncertainty r = 0.000113, k = 6.873477
         6         8     1        0.153207   184849.421338    ;  uncertainty r = 0.000082, k = 18.283199
         6        10     1        0.150681   211451.172803    ;  uncertainty r = 0.000218, k = 10.382569
         7        37     1        0.109357   312704.381396    ;  uncertainty r = 0.000017, k = 2.494702
         7        38     1        0.109357   312704.381396    ;  uncertainty r = 0.000017, k = 2.494702
         7        39     1        0.109357   312704.381396    ;  uncertainty r = 0.000017, k = 2.494702
         8         9     1        0.120039   624446.984180    ;  uncertainty r = 0.000099, k = 10.782084
        10        11     1        0.139215   348277.472607    ;  uncertainty r = 0.000077, k = 2.308783
        10        15     1        0.139278   348949.737012    ;  uncertainty r = 0.000129, k = 9.610132
        11        12     1        0.140032   349060.670215    ;  uncertainty r = 0.000107, k = 5.440689
        11        40     1        0.108637   334645.712549    ;  uncertainty r = 0.000048, k = 3.746401
        12        13     1        0.140121   351861.452686    ;  uncertainty r = 0.000064, k = 4.347741
        12        17     1        0.140301   325782.216016    ;  uncertainty r = 0.000088, k = 12.193502
        13        14     1        0.138924   379307.180078    ;  uncertainty r = 0.000023, k = 4.287581
        13        41     1        0.108594   335965.725732    ;  uncertainty r = 0.000020, k = 2.825587
        14        15     1        0.138788   358879.663232    ;  uncertainty r = 0.000067, k = 6.224443
        14        42     1        0.108724   335191.517188    ;  uncertainty r = 0.000006, k = 0.941914
        15        16     1        0.136344   334455.180176    ;  uncertainty r = 0.000076, k = 5.871514
        17        18     1        0.136464   274625.308105    ;  uncertainty r = 0.000098, k = 19.136072
        17        43     1        0.101962   419239.992139    ;  uncertainty r = 0.000055, k = 6.177955
        18        19     1        0.123456   666741.749023    ;  uncertainty r = 0.000061, k = 4.842820
        18        20     1        0.149503   244951.187012    ;  uncertainty r = 0.000133, k = 20.899772
        20        21     1        0.138810   353774.080029    ;  uncertainty r = 0.000078, k = 20.234856
        20        25     1        0.133426   449310.627930    ;  uncertainty r = 0.000140, k = 18.294940
        21        22     1        0.132809   433907.103223    ;  uncertainty r = 0.000157, k = 14.555683
        21        44     1        0.108820   336159.041650    ;  uncertainty r = 0.000035, k = 1.832041
        22        23     1        0.131717   397252.081299    ;  uncertainty r = 0.000099, k = 8.658433
        23        24     1        0.139447   396232.307910    ;  uncertainty r = 0.000242, k = 8.193121
        23        26     1        0.135474   299667.482764    ;  uncertainty r = 0.000070, k = 6.420436
        24        25     1        0.131738   433834.526758    ;  uncertainty r = 0.000165, k = 13.706079
        24        45     1        0.109143   343830.261621    ;  uncertainty r = 0.000068, k = 3.095741
        26        27     1        0.139992   260938.132520    ;  uncertainty r = 0.000073, k = 7.051748
        27        28     1        0.151846   206261.470361    ;  uncertainty r = 0.000128, k = 5.197010
        27        46     1        0.109429   313079.981201    ;  uncertainty r = 0.000042, k = 3.110651
        27        47     1        0.109429   313079.981201    ;  uncertainty r = 0.000042, k = 3.110651
        28        29     1        0.134832   295855.379688    ;  uncertainty r = 0.000102, k = 4.776596
        28        30     1        0.134832   295855.379688    ;  uncertainty r = 0.000102, k = 4.776596
        28        31     1        0.134832   295855.379688    ;  uncertainty r = 0.000102, k = 4.776596

[ angles ]
;       ai        aj        ak funct           theta             cth
         1         2         3     1      118.608437      371.860853    ;  uncertainty theta = 0.007072, k = 0.458606
         1         2         8     1      119.198807      397.228555    ;  uncertainty theta = 0.008340, k = 0.319605
         2         1        32     1      107.395668      471.434000    ;  uncertainty theta = 0.002532, k = 0.225057
         2         1        33     1      107.395668      471.434000    ;  uncertainty theta = 0.002532, k = 0.225057
         2         1        34     1      107.395668      471.434000    ;  uncertainty theta = 0.002532, k = 0.225057
         2         3         4     1      125.853745      534.882225    ;  uncertainty theta = 0.010760, k = 0.302799
         2         3         5     1      113.323959      704.901724    ;  uncertainty theta = 0.008360, k = 0.287490
         2         8         6     1      109.736252      470.059529    ;  uncertainty theta = 0.002580, k = 0.550625
         2         8         9     1      125.416885      647.490982    ;  uncertainty theta = 0.010629, k = 0.094243
         3         2         8     1      110.318237      713.052850    ;  uncertainty theta = 0.010075, k = 0.264336
         3         4        35     1      114.819153      367.961815    ;  uncertainty theta = 0.004136, k = 0.184598
         3         4        36     1      114.819153      367.961815    ;  uncertainty theta = 0.004136, k = 0.184598
         3         5         6     1      111.653275      599.183965    ;  uncertainty theta = 0.017326, k = 0.376837
         3         5        48     1      119.312279      356.459167    ;  uncertainty theta = 0.007417, k = 0.091501
         4         3         5     1      128.549240      641.934618    ;  uncertainty theta = 0.008406, k = 0.356256
         5         6         7     1      110.591103      655.824507    ;  uncertainty theta = 0.006396, k = 0.338343
         5         6         8     1      102.792648      948.960006    ;  uncertainty theta = 0.008613, k = 0.584521
         5         6        10     1      109.928795      605.344856    ;  uncertainty theta = 0.003560, k = 0.179456
         6         5        48     1      116.963356      303.967255    ;  uncertainty theta = 0.009142, k = 0.399335
         6         7        37     1      106.927933      394.684772    ;  uncertainty theta = 0.002066, k = 0.089371
         6         7        38     1      106.927933      394.684772    ;  uncertainty theta = 0.002066, k = 0.089371
         6         7        39     1      106.927933      394.684772    ;  uncertainty theta = 0.002066, k = 0.089371
         6         8         9     1      125.841690      412.900615    ;  uncertainty theta = 0.008426, k = 0.238525
         6        10        11     1      117.895187      365.986200    ;  uncertainty theta = 0.010765, k = 0.134466
         6        10        15     1      116.213661      368.452383    ;  uncertainty theta = 0.007679, k = 0.305884
         7         6         8     1      107.670143      459.649071    ;  uncertainty theta = 0.006365, k = 0.123616
         7         6        10     1      111.881615      555.686862    ;  uncertainty theta = 0.009765, k = 0.196787
         8         6        10     1      109.134605      488.641958    ;  uncertainty theta = 0.007193, k = 0.130648
        10        11        12     1      121.884567      495.151367    ;  uncertainty theta = 0.004160, k = 0.171272
        10        11        40     1      117.458191      279.366592    ;  uncertainty theta = 0.002972, k = 0.112086
        10        15        14     1      124.588257      373.262202    ;  uncertainty theta = 0.008319, k = 0.211030
        10        15        16     1      115.755020      485.527963    ;  uncertainty theta = 0.002993, k = 0.055953
        11        10        15     1      122.221237      422.470934    ;  uncertainty theta = 0.004853, k = 0.147583
        11        12        13     1      120.176659      378.203632    ;  uncertainty theta = 0.009012, k = 0.213091
        11        12        17     1      119.113998      506.499548    ;  uncertainty theta = 0.005847, k = 0.020044
        12        11        40     1      118.775940      276.281741    ;  uncertainty theta = 0.002125, k = 0.077752
        12        13        14     1      118.944046      499.285155    ;  uncertainty theta = 0.002492, k = 0.112685
        12        13        41     1      118.815491      266.310904    ;  uncertainty theta = 0.001295, k = 0.055880
        12        17        18     1      116.760399      454.101198    ;  uncertainty theta = 0.005707, k = 0.053605
        12        17        43     1      113.254906      316.578501    ;  uncertainty theta = 0.005959, k = 0.110261
        13        12        17     1      119.903664      513.304581    ;  uncertainty theta = 0.004024, k = 0.178479
        13        14        15     1      119.512108      457.885574    ;  uncertainty theta = 0.003407, k = 0.254533
        13        14        42     1      121.217789      273.755578    ;  uncertainty theta = 0.003002, k = 0.015112
        14        13        41     1      120.276955      314.663090    ;  uncertainty theta = 0.001267, k = 0.084274
        14        15        16     1      118.627853      526.644752    ;  uncertainty theta = 0.002155, k = 0.221508
        15        14        42     1      119.557434      274.244358    ;  uncertainty theta = 0.000967, k = 0.049940
        17        18        19     1      122.926979      763.729264    ;  uncertainty theta = 0.001946, k = 0.062556
        17        18        20     1      111.542770      457.866134    ;  uncertainty theta = 0.003065, k = 0.108640
        18        17        43     1      116.942459      347.001275    ;  uncertainty theta = 0.004243, k = 0.138639
        18        20        21     1      121.976074      368.322654    ;  uncertainty theta = 0.006440, k = 0.125014
        18        20        25     1      116.233383      394.322145    ;  uncertainty theta = 0.005991, k = 0.221246
        19        18        20     1      121.462402      520.963926    ;  uncertainty theta = 0.002051, k = 0.123901
        20        21        22     1      121.936569      606.516946    ;  uncertainty theta = 0.003428, k = 0.186871
        20        21        44     1      120.281090      242.713466    ;  uncertainty theta = 0.006191, k = 0.102496
        20        25        24     1      120.774231      476.888663    ;  uncertainty theta = 0.005204, k = 0.200613
        21        20        25     1      121.923195      525.611936    ;  uncertainty theta = 0.004585, k = 0.116652
        21        22        23     1      114.997879      403.947113    ;  uncertainty theta = 0.009495, k = 0.173648
        22        21        44     1      119.325340      321.627124    ;  uncertainty theta = 0.003766, k = 0.192304
        22        23        24     1      120.527809      454.805033    ;  uncertainty theta = 0.006400, k = 0.191737
        22        23        26     1      118.876404      582.522405    ;  uncertainty theta = 0.003166, k = 0.155666
        23        24        25     1      119.644920      565.351253    ;  uncertainty theta = 0.002785, k = 0.088577
        23        24        45     1      122.972672      264.069289    ;  uncertainty theta = 0.006591, k = 0.083364
        23        26        27     1      108.883347      492.001333    ;  uncertainty theta = 0.004482, k = 0.145839
        24        23        26     1      118.668640      403.281648    ;  uncertainty theta = 0.011208, k = 0.186133
        25        24        45     1      118.557938      337.041419    ;  uncertainty theta = 0.004957, k = 0.210468
        26        27        28     1      102.797157      468.691826    ;  uncertainty theta = 0.004217, k = 0.144067
        26        27        46     1      107.322937      403.068477    ;  uncertainty theta = 0.002306, k = 0.063659
        26        27        47     1      107.322937      403.068477    ;  uncertainty theta = 0.002306, k = 0.063659
        27        28        29     1      113.173233      595.834007    ;  uncertainty theta = 0.004108, k = 0.085474
        27        28        30     1      113.173233      595.834007    ;  uncertainty theta = 0.004108, k = 0.085474
        27        28        31     1      113.173233      595.834007    ;  uncertainty theta = 0.004108, k = 0.085474
        28        27        46     1      108.705444      414.357539    ;  uncertainty theta = 0.001480, k = 0.098024
        28        27        47     1      108.705444      414.357539    ;  uncertainty theta = 0.001480, k = 0.098024
        29        28        30     1      109.017128      786.943454    ;  uncertainty theta = 0.002615, k = 0.019884
        29        28        31     1      109.017128      786.943454    ;  uncertainty theta = 0.002615, k = 0.019884
        30        28        31     1      109.017128      786.943454    ;  uncertainty theta = 0.002615, k = 0.019884
        32         1        33     1      107.633827      325.689216    ;  uncertainty theta = 0.003363, k = 0.104763
        32         1        34     1      107.633827      325.689216    ;  uncertainty theta = 0.003363, k = 0.104763
        33         1        34     1      107.633827      325.689216    ;  uncertainty theta = 0.003363, k = 0.104763
        35         4        36     1      112.416359      264.752614    ;  uncertainty theta = 0.015901, k = 0.355235
        37         7        38     1      106.291847      312.502491    ;  uncertainty theta = 0.001101, k = 0.051145
        37         7        39     1      106.291847      312.502491    ;  uncertainty theta = 0.001101, k = 0.051145
        38         7        39     1      106.291847      312.502491    ;  uncertainty theta = 0.001101, k = 0.051145
        46        27        47     1      109.661987      325.289146    ;  uncertainty theta = 0.004618, k = 0.082725

[ dihedrals ] ; propers for gromacs 4.5 or higher, use funct 9
;       ai        aj        ak        al funct           phase               k        pn
         1         2         3         4     9        0.000000        0.086515         1    ;  uncertainty k = 0.685017
         1         2         3         4     9      180.000000        6.805087         2    ;  uncertainty k = 0.686693
         1         2         3         4     9        0.000000        0.933094         3    ;  uncertainty k = 0.700947
         1         2         3         4     9      180.000000        0.013505         4    ;  uncertainty k = 0.290417
         1         2         3         5     9        0.000000       -0.338910         1    ;  uncertainty k = 2.701742
         1         2         3         5     9      180.000000        8.123471         2    ;  uncertainty k = 0.482068
         1         2         3         5     9        0.000000        0.257255         3    ;  uncertainty k = 0.271535
         1         2         3         5     9      180.000000       -0.127050         4    ;  uncertainty k = 0.226060
         1         2         8         6     9        0.000000        4.733261         1    ;  uncertainty k = 2.801566
         1         2         8         6     9      180.000000        5.000445         2    ;  uncertainty k = 1.068531
         1         2         8         6     9        0.000000        1.224392         3    ;  uncertainty k = 0.696986
         1         2         8         6     9      180.000000        0.124530         4    ;  uncertainty k = 0.429473
         1         2         8         9     9        0.000000       -0.533504         1    ;  uncertainty k = 3.058790
         1         2         8         9     9      180.000000        8.205828         2    ;  uncertainty k = 0.416014
         1         2         8         9     9        0.000000        0.583843         3    ;  uncertainty k = 0.546658
         1         2         8         9     9      180.000000        0.202348         4    ;  uncertainty k = 0.240496
         2         3         4        35     9        0.000000        7.489293         1    ;  uncertainty k = 2.005621
         2         3         4        35     9      180.000000        9.419120         2    ;  uncertainty k = 0.600950
         2         3         4        35     9        0.000000        1.014531         3    ;  uncertainty k = 0.497201
         2         3         4        35     9      180.000000       -0.959330         4    ;  uncertainty k = 0.218135
         2         3         4        36     9        0.000000        7.489293         1    ;  uncertainty k = 2.005621
         2         3         4        36     9      180.000000        9.419120         2    ;  uncertainty k = 0.600950
         2         3         4        36     9        0.000000        1.014531         3    ;  uncertainty k = 0.497201
         2         3         4        36     9      180.000000       -0.959330         4    ;  uncertainty k = 0.218135
         2         3         5         6     9        0.000000        1.314211         1    ;  uncertainty k = 1.882877
         2         3         5         6     9      180.000000       15.739456         2    ;  uncertainty k = 0.336637
         2         3         5         6     9        0.000000       -0.011928         3    ;  uncertainty k = 0.898367
         2         3         5         6     9      180.000000       -0.496371         4    ;  uncertainty k = 0.163525
         2         3         5        48     9        0.000000        3.995462         1    ;  uncertainty k = 3.384334
         2         3         5        48     9      180.000000       10.839583         2    ;  uncertainty k = 0.576280
         2         3         5        48     9        0.000000        1.022269         3    ;  uncertainty k = 0.689619
         2         3         5        48     9      180.000000       -0.407477         4    ;  uncertainty k = 0.193787
         2         8         6         5     9        0.000000       -0.716643         1    ;  uncertainty k = 2.239441
         2         8         6         5     9      180.000000        6.682539         2    ;  uncertainty k = 1.018545
         2         8         6         5     9        0.000000        0.353967         3    ;  uncertainty k = 0.515552
         2         8         6         5     9      180.000000        0.283476         4    ;  uncertainty k = 0.660954
         2         8         6         7     9        0.000000       -5.459099         1    ;  uncertainty k = 2.138813
         2         8         6         7     9      180.000000        2.137992         2    ;  uncertainty k = 0.858662
         2         8         6         7     9        0.000000        0.907685         3    ;  uncertainty k = 0.303300
         2         8         6         7     9      180.000000        0.446968         4    ;  uncertainty k = 0.365482
         2         8         6        10     9        0.000000       -3.053504         1    ;  uncertainty k = 3.028872
         2         8         6        10     9      180.000000        2.213091         2    ;  uncertainty k = 0.949129
         2         8         6        10     9        0.000000        1.022529         3    ;  uncertainty k = 0.564238
         2         8         6        10     9      180.000000        0.566967         4    ;  uncertainty k = 0.221433
         3         2         1        32     9        0.000000       -0.368055         1    ;  uncertainty k = 0.533390
         3         2         1        32     9      180.000000       -1.097989         2    ;  uncertainty k = 0.431740
         3         2         1        32     9        0.000000        0.444235         3    ;  uncertainty k = 0.203194
         3         2         1        32     9      180.000000        0.192959         4    ;  uncertainty k = 0.047618
         3         2         1        33     9        0.000000       -0.368055         1    ;  uncertainty k = 0.533390
         3         2         1        33     9      180.000000       -1.097989         2    ;  uncertainty k = 0.431740
         3         2         1        33     9        0.000000        0.444235         3    ;  uncertainty k = 0.203194
         3         2         1        33     9      180.000000        0.192959         4    ;  uncertainty k = 0.047618
         3         2         1        34     9        0.000000       -0.368055         1    ;  uncertainty k = 0.533390
         3         2         1        34     9      180.000000       -1.097989         2    ;  uncertainty k = 0.431740
         3         2         1        34     9        0.000000        0.444235         3    ;  uncertainty k = 0.203194
         3         2         1        34     9      180.000000        0.192959         4    ;  uncertainty k = 0.047618
         3         2         8         6     9        0.000000        2.554014         1    ;  uncertainty k = 1.821213
         3         2         8         6     9      180.000000        3.629366         2    ;  uncertainty k = 0.899349
         3         2         8         6     9        0.000000       -0.189400         3    ;  uncertainty k = 0.795395
         3         2         8         6     9      180.000000        0.698047         4    ;  uncertainty k = 0.253108
         3         2         8         9     9        0.000000        0.214377         1    ;  uncertainty k = 2.739186
         3         2         8         9     9      180.000000        7.611614         2    ;  uncertainty k = 0.738631
         3         2         8         9     9        0.000000        0.467600         3    ;  uncertainty k = 0.535385
         3         2         8         9     9      180.000000        0.046275         4    ;  uncertainty k = 0.266784
         3         5         6         7     9        0.000000       -1.768281         1    ;  uncertainty k = 0.963690
         3         5         6         7     9      180.000000        1.030634         2    ;  uncertainty k = 0.384338
         3         5         6         7     9        0.000000        0.833219         3    ;  uncertainty k = 0.514850
         3         5         6         7     9      180.000000        0.378694         4    ;  uncertainty k = 0.089650
         3         5         6         8     9        0.000000        1.696653         1    ;  uncertainty k = 1.411131
         3         5         6         8     9      180.000000        2.228596         2    ;  uncertainty k = 0.858419
         3         5         6         8     9        0.000000        0.065234         3    ;  uncertainty k = 0.524319
         3         5         6         8     9      180.000000        0.455620         4    ;  uncertainty k = 0.419669
         3         5         6        10     9        0.000000       -0.248042         1    ;  uncertainty k = 0.817127
         3         5         6        10     9      180.000000        0.768092         2    ;  uncertainty k = 0.602810
         3         5         6        10     9        0.000000        0.633132         3    ;  uncertainty k = 0.162808
         3         5         6        10     9      180.000000        0.464893         4    ;  uncertainty k = 0.272489
         4         3         2         8     9        0.000000       -0.553293         1    ;  uncertainty k = 0.797975
         4         3         2         8     9      180.000000        6.632878         2    ;  uncertainty k = 1.259056
         4         3         2         8     9        0.000000        0.178470         3    ;  uncertainty k = 0.699169
         4         3         2         8     9      180.000000       -0.061987         4    ;  uncertainty k = 0.488485
         4         3         5         6     9        0.000000        2.227263         1    ;  uncertainty k = 1.724119
         4         3         5         6     9      180.000000       10.770478         2    ;  uncertainty k = 0.774385
         4         3         5         6     9        0.000000        0.476838         3    ;  uncertainty k = 0.373602
         4         3         5         6     9      180.000000       -0.460323         4    ;  uncertainty k = 0.653556
         4         3         5        48     9        0.000000        2.319621         1    ;  uncertainty k = 2.365762
         4         3         5        48     9      180.000000        7.773354         2    ;  uncertainty k = 1.133747
         4         3         5        48     9        0.000000        0.972932         3    ;  uncertainty k = 0.175062
         4         3         5        48     9      180.000000       -0.266871         4    ;  uncertainty k = 0.299137
         5         3         2         8     9        0.000000       -0.178390         1    ;  uncertainty k = 1.721906
         5         3         2         8     9      180.000000        8.395283         2    ;  uncertainty k = 0.771609
         5         3         2         8     9        0.000000       -1.230226         3    ;  uncertainty k = 1.159857
         5         3         2         8     9      180.000000        0.049643         4    ;  uncertainty k = 0.456622
         5         3         4        35     9        0.000000        5.951627         1    ;  uncertainty k = 1.240339
         5         3         4        35     9      180.000000       10.477430         2    ;  uncertainty k = 0.400264
         5         3         4        35     9        0.000000        1.450087         3    ;  uncertainty k = 0.445961
         5         3         4        35     9      180.000000       -0.757809         4    ;  uncertainty k = 0.301853
         5         3         4        36     9        0.000000        5.951627         1    ;  uncertainty k = 1.240339
         5         3         4        36     9      180.000000       10.477430         2    ;  uncertainty k = 0.400264
         5         3         4        36     9        0.000000        1.450087         3    ;  uncertainty k = 0.445961
         5         3         4        36     9      180.000000       -0.757809         4    ;  uncertainty k = 0.301853
         5         6         7        37     9        0.000000       -1.524117         1    ;  uncertainty k = 0.630710
         5         6         7        37     9      180.000000       -0.626838         2    ;  uncertainty k = 0.513094
         5         6         7        37     9        0.000000        0.687102         3    ;  uncertainty k = 0.248159
         5         6         7        37     9      180.000000       -0.221289         4    ;  uncertainty k = 0.125238
         5         6         7        38     9        0.000000       -1.524117         1    ;  uncertainty k = 0.630710
         5         6         7        38     9      180.000000       -0.626838         2    ;  uncertainty k = 0.513094
         5         6         7        38     9        0.000000        0.687102         3    ;  uncertainty k = 0.248159
         5         6         7        38     9      180.000000       -0.221289         4    ;  uncertainty k = 0.125238
         5         6         7        39     9        0.000000       -1.524117         1    ;  uncertainty k = 0.630710
         5         6         7        39     9      180.000000       -0.626838         2    ;  uncertainty k = 0.513094
         5         6         7        39     9        0.000000        0.687102         3    ;  uncertainty k = 0.248159
         5         6         7        39     9      180.000000       -0.221289         4    ;  uncertainty k = 0.125238
         5         6         8         9     9        0.000000       -0.761555         1    ;  uncertainty k = 1.974876
         5         6         8         9     9      180.000000        2.556742         2    ;  uncertainty k = 1.276158
         5         6         8         9     9        0.000000        0.300191         3    ;  uncertainty k = 0.529859
         5         6         8         9     9      180.000000        0.477792         4    ;  uncertainty k = 0.125630
         5         6        10        11     9        0.000000       -0.634670         1    ;  uncertainty k = 1.094883
         5         6        10        11     9      180.000000        2.387570         2    ;  uncertainty k = 0.385363
         5         6        10        11     9        0.000000        0.175403         3    ;  uncertainty k = 0.320044
         5         6        10        11     9      180.000000        0.298122         4    ;  uncertainty k = 0.195505
         5         6        10        15     9        0.000000       -0.581223         1    ;  uncertainty k = 1.193646
         5         6        10        15     9      180.000000        2.020533         2    ;  uncertainty k = 0.538625
         5         6        10        15     9        0.000000        0.711976         3    ;  uncertainty k = 0.351572
         5         6        10        15     9      180.000000        0.230637         4    ;  uncertainty k = 0.028540
         6        10        11        12     9        0.000000        0.179786         1    ;  uncertainty k = 0.373676
         6        10        11        12     9      180.000000        8.369801         2    ;  uncertainty k = 0.305379
         6        10        11        12     9        0.000000        1.570627         3    ;  uncertainty k = 0.283741
         6        10        11        12     9      180.000000        1.911515         4    ;  uncertainty k = 0.106893
         6        10        11        40     9        0.000000       -0.317051         1    ;  uncertainty k = 0.256474
         6        10        11        40     9      180.000000        7.162709         2    ;  uncertainty k = 0.185587
         6        10        11        40     9        0.000000        0.661050         3    ;  uncertainty k = 0.408585
         6        10        11        40     9      180.000000        1.120967         4    ;  uncertainty k = 0.224735
         6        10        15        14     9        0.000000        0.529532         1    ;  uncertainty k = 0.670945
         6        10        15        14     9      180.000000        6.761302         2    ;  uncertainty k = 0.283572
         6        10        15        14     9        0.000000        1.100400         3    ;  uncertainty k = 0.299995
         6        10        15        14     9      180.000000        1.588833         4    ;  uncertainty k = 0.263845
         6        10        15        16     9        0.000000       -0.039127         1    ;  uncertainty k = 0.351605
         6        10        15        16     9      180.000000       10.209286         2    ;  uncertainty k = 0.362916
         6        10        15        16     9        0.000000        1.038037         3    ;  uncertainty k = 0.292099
         6        10        15        16     9      180.000000        1.301282         4    ;  uncertainty k = 0.258185
         7         6         5        48     9        0.000000        0.209468         1    ;  uncertainty k = 1.012083
         7         6         5        48     9      180.000000        0.290776         2    ;  uncertainty k = 0.940319
         7         6         5        48     9        0.000000        0.698587         3    ;  uncertainty k = 0.250034
         7         6         5        48     9      180.000000        0.252915         4    ;  uncertainty k = 0.088293
         7         6         8         9     9        0.000000       -1.493550         1    ;  uncertainty k = 0.978834
         7         6         8         9     9      180.000000        4.121242         2    ;  uncertainty k = 0.869565
         7         6         8         9     9        0.000000        0.353920         3    ;  uncertainty k = 0.349664
         7         6         8         9     9      180.000000        0.066554         4    ;  uncertainty k = 0.313813
         7         6        10        11     9        0.000000       -0.600551         1    ;  uncertainty k = 0.559556
         7         6        10        11     9      180.000000        2.552825         2    ;  uncertainty k = 0.521413
         7         6        10        11     9        0.000000       -0.047861         3    ;  uncertainty k = 0.482538
         7         6        10        11     9      180.000000        0.210649         4    ;  uncertainty k = 0.142424
         7         6        10        15     9        0.000000       -0.270385         1    ;  uncertainty k = 1.023327
         7         6        10        15     9      180.000000        2.714624         2    ;  uncertainty k = 0.278927
         7         6        10        15     9        0.000000        0.468797         3    ;  uncertainty k = 0.264544
         7         6        10        15     9      180.000000        0.134596         4    ;  uncertainty k = 0.182021
         8         2         1        32     9        0.000000        0.251546         1    ;  uncertainty k = 0.450727
         8         2         1        32     9      180.000000        0.075789         2    ;  uncertainty k = 0.251867
         8         2         1        32     9        0.000000        0.376577         3    ;  uncertainty k = 0.212576
         8         2         1        32     9      180.000000        0.307932         4    ;  uncertainty k = 0.079961
         8         2         1        33     9        0.000000        0.251546         1    ;  uncertainty k = 0.450727
         8         2         1        33     9      180.000000        0.075789         2    ;  uncertainty k = 0.251867
         8         2         1        33     9        0.000000        0.376577         3    ;  uncertainty k = 0.212576
         8         2         1        33     9      180.000000        0.307932         4    ;  uncertainty k = 0.079961
         8         2         1        34     9        0.000000        0.251546         1    ;  uncertainty k = 0.450727
         8         2         1        34     9      180.000000        0.075789         2    ;  uncertainty k = 0.251867
         8         2         1        34     9        0.000000        0.376577         3    ;  uncertainty k = 0.212576
         8         2         1        34     9      180.000000        0.307932         4    ;  uncertainty k = 0.079961
         8         6         5        48     9        0.000000        0.206411         1    ;  uncertainty k = 3.025550
         8         6         5        48     9      180.000000       -0.074300         2    ;  uncertainty k = 1.701069
         8         6         5        48     9        0.000000        0.277421         3    ;  uncertainty k = 0.502577
         8         6         5        48     9      180.000000       -0.010881         4    ;  uncertainty k = 0.140361
         8         6         7        37     9        0.000000        0.092898         1    ;  uncertainty k = 0.790799
         8         6         7        37     9      180.000000       -1.050458         2    ;  uncertainty k = 0.162594
         8         6         7        37     9        0.000000        0.547450         3    ;  uncertainty k = 0.120558
         8         6         7        37     9      180.000000       -0.069471         4    ;  uncertainty k = 0.055709
         8         6         7        38     9        0.000000        0.092898         1    ;  uncertainty k = 0.790799
         8         6         7        38     9      180.000000       -1.050458         2    ;  uncertainty k = 0.162594
         8         6         7        38     9        0.000000        0.547450         3    ;  uncertainty k = 0.120558
         8         6         7        38     9      180.000000       -0.069471         4    ;  uncertainty k = 0.055709
         8         6         7        39     9        0.000000        0.092898         1    ;  uncertainty k = 0.790799
         8         6         7        39     9      180.000000       -1.050458         2    ;  uncertainty k = 0.162594
         8         6         7        39     9        0.000000        0.547450         3    ;  uncertainty k = 0.120558
         8         6         7        39     9      180.000000       -0.069471         4    ;  uncertainty k = 0.055709
         8         6        10        11     9        0.000000        0.225426         1    ;  uncertainty k = 1.372670
         8         6        10        11     9      180.000000        1.206746         2    ;  uncertainty k = 0.401617
         8         6        10        11     9        0.000000        0.140616         3    ;  uncertainty k = 0.125438
         8         6        10        11     9      180.000000        0.247422         4    ;  uncertainty k = 0.165668
         8         6        10        15     9        0.000000        1.319884         1    ;  uncertainty k = 1.095596
         8         6        10        15     9      180.000000        1.619464         2    ;  uncertainty k = 0.542714
         8         6        10        15     9        0.000000        0.197663         3    ;  uncertainty k = 0.237792
         8         6        10        15     9      180.000000        0.230877         4    ;  uncertainty k = 0.167412
         9         8         6        10     9        0.000000        0.454405         1    ;  uncertainty k = 0.923922
         9         8         6        10     9      180.000000        3.516645         2    ;  uncertainty k = 0.647924
         9         8         6        10     9        0.000000        0.531499         3    ;  uncertainty k = 0.122450
         9         8         6        10     9      180.000000        0.063681         4    ;  uncertainty k = 0.242501
        10         6         5        48     9        0.000000        3.518096         1    ;  uncertainty k = 1.426674
        10         6         5        48     9      180.000000       -0.310266         2    ;  uncertainty k = 0.933683
        10         6         5        48     9        0.000000        0.626500         3    ;  uncertainty k = 0.431950
        10         6         5        48     9      180.000000        0.048490         4    ;  uncertainty k = 0.083666
        10         6         7        37     9        0.000000        0.312531         1    ;  uncertainty k = 0.415968
        10         6         7        37     9      180.000000       -0.283060         2    ;  uncertainty k = 0.375911
        10         6         7        37     9        0.000000        0.850059         3    ;  uncertainty k = 0.138554
        10         6         7        37     9      180.000000       -0.051090         4    ;  uncertainty k = 0.096153
        10         6         7        38     9        0.000000        0.312531         1    ;  uncertainty k = 0.415968
        10         6         7        38     9      180.000000       -0.283060         2    ;  uncertainty k = 0.375911
        10         6         7        38     9        0.000000        0.850059         3    ;  uncertainty k = 0.138554
        10         6         7        38     9      180.000000       -0.051090         4    ;  uncertainty k = 0.096153
        10         6         7        39     9        0.000000        0.312531         1    ;  uncertainty k = 0.415968
        10         6         7        39     9      180.000000       -0.283060         2    ;  uncertainty k = 0.375911
        10         6         7        39     9        0.000000        0.850059         3    ;  uncertainty k = 0.138554
        10         6         7        39     9      180.000000       -0.051090         4    ;  uncertainty k = 0.096153
        10        11        12        13     9        0.000000       -0.038044         1    ;  uncertainty k = 0.253047
        10        11        12        13     9      180.000000        8.084248         2    ;  uncertainty k = 0.525225
        10        11        12        13     9        0.000000        0.195335         3    ;  uncertainty k = 0.205947
        10        11        12        13     9      180.000000        1.325761         4    ;  uncertainty k = 0.331881
        10        11        12        17     9        0.000000        0.186639         1    ;  uncertainty k = 0.136519
        10        11        12        17     9      180.000000        9.168848         2    ;  uncertainty k = 0.710434
        10        11        12        17     9        0.000000        1.194032         3    ;  uncertainty k = 0.452202
        10        11        12        17     9      180.000000        1.657871         4    ;  uncertainty k = 0.309125
        10        15        14        13     9        0.000000       -0.011917         1    ;  uncertainty k = 0.212388
        10        15        14        13     9      180.000000        8.198846         2    ;  uncertainty k = 0.559378
        10        15        14        13     9        0.000000        0.151774         3    ;  uncertainty k = 0.313350
        10        15        14        13     9      180.000000        1.312583         4    ;  uncertainty k = 0.229427
        10        15        14        42     9        0.000000       -0.069058         1    ;  uncertainty k = 0.450100
        10        15        14        42     9      180.000000        5.546133         2    ;  uncertainty k = 0.735328
        10        15        14        42     9        0.000000        1.241185         3    ;  uncertainty k = 0.255560
        10        15        14        42     9      180.000000        1.477122         4    ;  uncertainty k = 0.130531
        11        10        15        14     9        0.000000       -0.505942         1    ;  uncertainty k = 0.234820
        11        10        15        14     9      180.000000        6.841639         2    ;  uncertainty k = 0.609761
        11        10        15        14     9        0.000000        0.216558         3    ;  uncertainty k = 0.238104
        11        10        15        14     9      180.000000        1.176370         4    ;  uncertainty k = 0.357681
        11        10        15        16     9        0.000000        0.029067         1    ;  uncertainty k = 0.387136
        11        10        15        16     9      180.000000       11.081870         2    ;  uncertainty k = 0.414135
        11        10        15        16     9        0.000000        1.448955         3    ;  uncertainty k = 0.289331
        11        10        15        16     9      180.000000        1.443204         4    ;  uncertainty k = 0.268401
        11        12        13        14     9        0.000000       -0.162584         1    ;  uncertainty k = 0.154828
        11        12        13        14     9      180.000000        9.585310         2    ;  uncertainty k = 0.431928
        11        12        13        14     9        0.000000       -0.019447         3    ;  uncertainty k = 0.161921
        11        12        13        14     9      180.000000        1.248867         4    ;  uncertainty k = 0.225066
        11        12        13        41     9        0.000000        0.175302         1    ;  uncertainty k = 0.362201
        11        12        13        41     9      180.000000        6.984279         2    ;  uncertainty k = 0.434912
        11        12        13        41     9        0.000000        1.168023         3    ;  uncertainty k = 0.377959
        11        12        13        41     9      180.000000        1.509532         4    ;  uncertainty k = 0.159808
        11        12        17        18     9        0.000000        1.143457         1    ;  uncertainty k = 0.646862
        11        12        17        18     9      180.000000        5.004254         2    ;  uncertainty k = 0.156480
        11        12        17        18     9        0.000000        0.933959         3    ;  uncertainty k = 0.112209
        11        12        17        18     9      180.000000        0.074158         4    ;  uncertainty k = 0.090008
        11        12        17        43     9        0.000000        0.831758         1    ;  uncertainty k = 1.309713
        11        12        17        43     9      180.000000        3.832923         2    ;  uncertainty k = 0.158146
        11        12        17        43     9        0.000000        0.647634         3    ;  uncertainty k = 0.141139
        11        12        17        43     9      180.000000        0.534269         4    ;  uncertainty k = 0.109700
        12        11        10        15     9        0.000000       -0.363161         1    ;  uncertainty k = 0.433207
        12        11        10        15     9      180.000000       11.389698         2    ;  uncertainty k = 0.299180
        12        11        10        15     9        0.000000       -0.040425         3    ;  uncertainty k = 0.527247
        12        11        10        15     9      180.000000        1.047917         4    ;  uncertainty k = 0.337471
        12        13        14        15     9        0.000000       -0.146442         1    ;  uncertainty k = 0.293671
        12        13        14        15     9      180.000000       14.050927         2    ;  uncertainty k = 0.332830
        12        13        14        15     9        0.000000       -0.739202         3    ;  uncertainty k = 0.507006
        12        13        14        15     9      180.000000        0.853741         4    ;  uncertainty k = 0.256323
        12        13        14        42     9        0.000000        0.080120         1    ;  uncertainty k = 0.387914
        12        13        14        42     9      180.000000        7.987227         2    ;  uncertainty k = 0.361473
        12        13        14        42     9        0.000000        1.316220         3    ;  uncertainty k = 0.317948
        12        13        14        42     9      180.000000        1.773079         4    ;  uncertainty k = 0.109852
        12        17        18        19     9        0.000000        3.240915         1    ;  uncertainty k = 0.711829
        12        17        18        19     9      180.000000       14.139722         2    ;  uncertainty k = 0.198815
        12        17        18        19     9        0.000000        0.806920         3    ;  uncertainty k = 0.155685
        12        17        18        19     9      180.000000       -0.669259         4    ;  uncertainty k = 0.316641
        12        17        18        20     9        0.000000        3.846125         1    ;  uncertainty k = 1.266002
        12        17        18        20     9      180.000000       12.023623         2    ;  uncertainty k = 0.205419
        12        17        18        20     9        0.000000        2.101524         3    ;  uncertainty k = 0.228817
        12        17        18        20     9      180.000000       -1.536121         4    ;  uncertainty k = 0.351126
        13        12        11        40     9        0.000000        0.111578         1    ;  uncertainty k = 0.233158
        13        12        11        40     9      180.000000        6.849567         2    ;  uncertainty k = 0.564465
        13        12        11        40     9        0.000000        1.357312         3    ;  uncertainty k = 0.244477
        13        12        11        40     9      180.000000        1.567497         4    ;  uncertainty k = 0.123625
        13        12        17        18     9        0.000000        1.222472         1    ;  uncertainty k = 0.299406
        13        12        17        18     9      180.000000        4.690019         2    ;  uncertainty k = 0.120492
        13        12        17        18     9        0.000000        1.103745         3    ;  uncertainty k = 0.154087
        13        12        17        18     9      180.000000        0.092641         4    ;  uncertainty k = 0.052998
        13        12        17        43     9        0.000000        0.584749         1    ;  uncertainty k = 1.227392
        13        12        17        43     9      180.000000        3.634005         2    ;  uncertainty k = 0.100055
        13        12        17        43     9        0.000000        0.725294         3    ;  uncertainty k = 0.148940
        13        12        17        43     9      180.000000        0.633216         4    ;  uncertainty k = 0.154148
        13        14        15        16     9        0.000000       -0.114150         1    ;  uncertainty k = 0.292409
        13        14        15        16     9      180.000000       12.746391         2    ;  uncertainty k = 0.487808
        13        14        15        16     9        0.000000        1.376758         3    ;  uncertainty k = 0.328547
        13        14        15        16     9      180.000000        1.579279         4    ;  uncertainty k = 0.251795
        14        13        12        17     9        0.000000        0.110410         1    ;  uncertainty k = 0.159559
        14        13        12        17     9      180.000000       10.378064         2    ;  uncertainty k = 0.513952
        14        13        12        17     9        0.000000        1.062886         3    ;  uncertainty k = 0.483142
        14        13        12        17     9      180.000000        1.659404         4    ;  uncertainty k = 0.182108
        15        10        11        40     9        0.000000        0.221496         1    ;  uncertainty k = 0.232051
        15        10        11        40     9      180.000000        8.396549         2    ;  uncertainty k = 0.441879
        15        10        11        40     9        0.000000        1.451911         3    ;  uncertainty k = 0.307483
        15        10        11        40     9      180.000000        1.715393         4    ;  uncertainty k = 0.081530
        15        14        13        41     9        0.000000        0.022040         1    ;  uncertainty k = 0.329406
        15        14        13        41     9      180.000000        8.003126         2    ;  uncertainty k = 0.219508
        15        14        13        41     9        0.000000        1.360654         3    ;  uncertainty k = 0.321807
        15        14        13        41     9      180.000000        1.777549         4    ;  uncertainty k = 0.142627
        16        15        14        42     9        0.000000       -0.375837         1    ;  uncertainty k = 0.348166
        16        15        14        42     9      180.000000        9.433972         2    ;  uncertainty k = 0.324302
        16        15        14        42     9        0.000000        0.832173         3    ;  uncertainty k = 0.148084
        16        15        14        42     9      180.000000        1.086079         4    ;  uncertainty k = 0.147203
        17        12        11        40     9        0.000000       -0.014479         1    ;  uncertainty k = 0.273665
        17        12        11        40     9      180.000000        8.469352         2    ;  uncertainty k = 0.545734
        17        12        11        40     9        0.000000        0.851015         3    ;  uncertainty k = 0.151070
        17        12        11        40     9      180.000000        1.314611         4    ;  uncertainty k = 0.245899
        17        12        13        41     9        0.000000       -0.237244         1    ;  uncertainty k = 0.217332
        17        12        13        41     9      180.000000        8.504291         2    ;  uncertainty k = 0.497512
        17        12        13        41     9        0.000000        0.834768         3    ;  uncertainty k = 0.228877
        17        12        13        41     9      180.000000        1.179401         4    ;  uncertainty k = 0.200198
        17        18        20        21     9        0.000000       -2.571112         1    ;  uncertainty k = 1.304794
        17        18        20        21     9      180.000000        3.063760         2    ;  uncertainty k = 0.445757
        17        18        20        21     9        0.000000       -0.058230         3    ;  uncertainty k = 0.621981
        17        18        20        21     9      180.000000       -0.029332         4    ;  uncertainty k = 0.366799
        17        18        20        25     9        0.000000        2.682012         1    ;  uncertainty k = 1.461411
        17        18        20        25     9      180.000000        4.207334         2    ;  uncertainty k = 0.315764
        17        18        20        25     9        0.000000        0.358799         3    ;  uncertainty k = 0.431667
        17        18        20        25     9      180.000000        0.121278         4    ;  uncertainty k = 0.102028
        18        20        21        22     9        0.000000        0.458216         1    ;  uncertainty k = 0.610833
        18        20        21        22     9      180.000000        8.068359         2    ;  uncertainty k = 0.680207
        18        20        21        22     9        0.000000        0.930492         3    ;  uncertainty k = 0.285415
        18        20        21        22     9      180.000000        1.581250         4    ;  uncertainty k = 0.125066
        18        20        21        44     9        0.000000       -0.046600         1    ;  uncertainty k = 1.801172
        18        20        21        44     9      180.000000        6.073023         2    ;  uncertainty k = 0.532847
        18        20        21        44     9        0.000000        0.588815         3    ;  uncertainty k = 0.187458
        18        20        21        44     9      180.000000        0.695730         4    ;  uncertainty k = 0.393673
        18        20        25        24     9        0.000000        0.314359         1    ;  uncertainty k = 1.730827
        18        20        25        24     9      180.000000       13.546231         2    ;  uncertainty k = 0.704290
        18        20        25        24     9        0.000000        2.441120         3    ;  uncertainty k = 0.311819
        18        20        25        24     9      180.000000        1.438713         4    ;  uncertainty k = 0.440261
        19        18        17        43     9        0.000000        1.052512         1    ;  uncertainty k = 1.227000
        19        18        17        43     9      180.000000       12.943507         2    ;  uncertainty k = 0.547781
        19        18        17        43     9        0.000000        2.400548         3    ;  uncertainty k = 0.461044
        19        18        17        43     9      180.000000        0.061343         4    ;  uncertainty k = 0.236992
        19        18        20        21     9        0.000000       -0.336718         1    ;  uncertainty k = 1.020027
        19        18        20        21     9      180.000000        3.844186         2    ;  uncertainty k = 0.830721
        19        18        20        21     9        0.000000        0.275673         3    ;  uncertainty k = 0.354119
        19        18        20        21     9      180.000000       -0.048058         4    ;  uncertainty k = 0.070290
        19        18        20        25     9        0.000000       -3.674158         1    ;  uncertainty k = 1.802639
        19        18        20        25     9      180.000000        4.850867         2    ;  uncertainty k = 0.864770
        19        18        20        25     9        0.000000        0.765587         3    ;  uncertainty k = 0.374762
        19        18        20        25     9      180.000000        0.008963         4    ;  uncertainty k = 0.103061
        20        18        17        43     9        0.000000        0.764394         1    ;  uncertainty k = 1.333008
        20        18        17        43     9      180.000000        5.551416         2    ;  uncertainty k = 0.537258
        20        18        17        43     9        0.000000        2.121246         3    ;  uncertainty k = 0.383613
        20        18        17        43     9      180.000000        0.251337         4    ;  uncertainty k = 0.167324
        20        21        22        23     9        0.000000       -0.111358         1    ;  uncertainty k = 1.196121
        20        21        22        23     9      180.000000       13.306975         2    ;  uncertainty k = 0.661367
        20        21        22        23     9        0.000000        1.035013         3    ;  uncertainty k = 0.638815
        20        21        22        23     9      180.000000        1.290596         4    ;  uncertainty k = 0.305316
        20        25        24        23     9        0.000000        0.259970         1    ;  uncertainty k = 1.113808
        20        25        24        23     9      180.000000       15.149895         2    ;  uncertainty k = 0.454718
        20        25        24        23     9        0.000000        1.076467         3    ;  uncertainty k = 0.587859
        20        25        24        23     9      180.000000        1.613854         4    ;  uncertainty k = 0.321011
        20        25        24        45     9        0.000000        0.258703         1    ;  uncertainty k = 0.279783
        20        25        24        45     9      180.000000       16.639773         2    ;  uncertainty k = 0.353796
        20        25        24        45     9        0.000000        2.406439         3    ;  uncertainty k = 0.611486
        20        25        24        45     9      180.000000        1.563586         4    ;  uncertainty k = 0.230585
        21        20        25        24     9        0.000000       -0.461239         1    ;  uncertainty k = 0.695677
        21        20        25        24     9      180.000000       11.275020         2    ;  uncertainty k = 0.361533
        21        20        25        24     9        0.000000        1.580582         3    ;  uncertainty k = 0.276124
        21        20        25        24     9      180.000000        1.138585         4    ;  uncertainty k = 0.256678
        21        22        23        24     9        0.000000        0.020493         1    ;  uncertainty k = 0.719807
        21        22        23        24     9      180.000000        9.605231         2    ;  uncertainty k = 0.777301
        21        22        23        24     9        0.000000        1.575246         3    ;  uncertainty k = 0.374886
        21        22        23        24     9      180.000000        1.120236         4    ;  uncertainty k = 0.128050
        21        22        23        26     9        0.000000        1.015583         1    ;  uncertainty k = 1.384664
        21        22        23        26     9      180.000000       14.539928         2    ;  uncertainty k = 0.098956
        21        22        23        26     9        0.000000        2.608454         3    ;  uncertainty k = 0.323928
        21        22        23        26     9      180.000000        1.616050         4    ;  uncertainty k = 0.223591
        22        21        20        25     9        0.000000       -0.404234         1    ;  uncertainty k = 0.231683
        22        21        20        25     9      180.000000       12.091496         2    ;  uncertainty k = 0.927261
        22        21        20        25     9        0.000000       -0.298527         3    ;  uncertainty k = 0.248932
        22        21        20        25     9      180.000000        1.239550         4    ;  uncertainty k = 0.497269
        22        23        24        25     9        0.000000       -0.844061         1    ;  uncertainty k = 0.220742
        22        23        24        25     9      180.000000        7.714325         2    ;  uncertainty k = 0.963792
        22        23        24        25     9        0.000000       -0.761282         3    ;  uncertainty k = 0.344483
        22        23        24        25     9      180.000000        1.001666         4    ;  uncertainty k = 0.643966
        22        23        24        45     9        0.000000       -0.239238         1    ;  uncertainty k = 0.992756
        22        23        24        45     9      180.000000        4.446165         2    ;  uncertainty k = 0.907581
        22        23        24        45     9        0.000000        0.658533         3    ;  uncertainty k = 0.196697
        22        23        24        45     9      180.000000        1.000246         4    ;  uncertainty k = 0.215489
        22        23        26        27     9        0.000000        1.592549         1    ;  uncertainty k = 0.884611
        22        23        26        27     9      180.000000        9.619940         2    ;  uncertainty k = 0.320065
        22        23        26        27     9        0.000000        0.446619         3    ;  uncertainty k = 0.251395
        22        23        26        27     9      180.000000        0.143818         4    ;  uncertainty k = 0.064816
        23        22        21        44     9        0.000000        0.559492         1    ;  uncertainty k = 0.473844
        23        22        21        44     9      180.000000       15.652655         2    ;  uncertainty k = 0.583753
        23        22        21        44     9        0.000000        2.077550         3    ;  uncertainty k = 0.853101
        23        22        21        44     9      180.000000        1.511772         4    ;  uncertainty k = 0.427910
        23        26        27        28     9        0.000000       -0.882696         1    ;  uncertainty k = 0.742883
        23        26        27        28     9      180.000000       -0.026979         2    ;  uncertainty k = 0.250644
        23        26        27        28     9        0.000000       -0.462806         3    ;  uncertainty k = 0.379263
        23        26        27        28     9      180.000000        0.658751         4    ;  uncertainty k = 0.183616
        23        26        27        46     9        0.000000        1.782363         1    ;  uncertainty k = 0.921562
        23        26        27        46     9      180.000000        0.435680         2    ;  uncertainty k = 0.246184
        23        26        27        46     9        0.000000        0.020042         3    ;  uncertainty k = 0.230415
        23        26        27        46     9      180.000000        0.339340         4    ;  uncertainty k = 0.060597
        23        26        27        47     9        0.000000        1.782363         1    ;  uncertainty k = 0.921562
        23        26        27        47     9      180.000000        0.435680         2    ;  uncertainty k = 0.246184
        23        26        27        47     9        0.000000        0.020042         3    ;  uncertainty k = 0.230415
        23        26        27        47     9      180.000000        0.339340         4    ;  uncertainty k = 0.060597
        24        23        26        27     9        0.000000        0.516886         1    ;  uncertainty k = 1.177638
        24        23        26        27     9      180.000000        7.007019         2    ;  uncertainty k = 0.503060
        24        23        26        27     9        0.000000        0.805426         3    ;  uncertainty k = 0.376840
        24        23        26        27     9      180.000000        0.097939         4    ;  uncertainty k = 0.146797
        25        20        21        44     9        0.000000       -0.211362         1    ;  uncertainty k = 0.461513
        25        20        21        44     9      180.000000        5.738048         2    ;  uncertainty k = 1.172620
        25        20        21        44     9        0.000000        0.881556         3    ;  uncertainty k = 0.236380
        25        20        21        44     9      180.000000        1.387547         4    ;  uncertainty k = 0.267866
        25        24        23        26     9        0.000000        0.164333         1    ;  uncertainty k = 0.621271
        25        24        23        26     9      180.000000        6.511387         2    ;  uncertainty k = 0.955397
        25        24        23        26     9        0.000000        0.452900         3    ;  uncertainty k = 0.425249
        25        24        23        26     9      180.000000        1.133799         4    ;  uncertainty k = 0.475820
        26        23        24        45     9        0.000000       -0.292570         1    ;  uncertainty k = 0.898687
        26        23        24        45     9      180.000000        5.041762         2    ;  uncertainty k = 0.252473
        26        23        24        45     9        0.000000        0.530876         3    ;  uncertainty k = 0.257191
        26        23        24        45     9      180.000000        0.667289         4    ;  uncertainty k = 0.270280
        26        27        28        29     9        0.000000        1.495116         1    ;  uncertainty k = 1.012738
        26        27        28        29     9      180.000000       -1.159843         2    ;  uncertainty k = 0.561897
        26        27        28        29     9        0.000000        1.013969         3    ;  uncertainty k = 0.171328
        26        27        28        29     9      180.000000        0.260818         4    ;  uncertainty k = 0.189879
        26        27        28        30     9        0.000000        1.495116         1    ;  uncertainty k = 1.012738
        26        27        28        30     9      180.000000       -1.159843         2    ;  uncertainty k = 0.561897
        26        27        28        30     9        0.000000        1.013969         3    ;  uncertainty k = 0.171328
        26        27        28        30     9      180.000000        0.260818         4    ;  uncertainty k = 0.189879
        26        27        28        31     9        0.000000        1.495116         1    ;  uncertainty k = 1.012738
        26        27        28        31     9      180.000000       -1.159843         2    ;  uncertainty k = 0.561897
        26        27        28        31     9        0.000000        1.013969         3    ;  uncertainty k = 0.171328
        26        27        28        31     9      180.000000        0.260818         4    ;  uncertainty k = 0.189879
        29        28        27        46     9        0.000000       -0.760227         1    ;  uncertainty k = 0.346427
        29        28        27        46     9      180.000000       -0.130906         2    ;  uncertainty k = 0.274801
        29        28        27        46     9        0.000000        0.310449         3    ;  uncertainty k = 0.061534
        29        28        27        46     9      180.000000       -0.168515         4    ;  uncertainty k = 0.095920
        29        28        27        47     9        0.000000       -0.760227         1    ;  uncertainty k = 0.346427
        29        28        27        47     9      180.000000       -0.130906         2    ;  uncertainty k = 0.274801
        29        28        27        47     9        0.000000        0.310449         3    ;  uncertainty k = 0.061534
        29        28        27        47     9      180.000000       -0.168515         4    ;  uncertainty k = 0.095920
        30        28        27        46     9        0.000000       -0.760227         1    ;  uncertainty k = 0.346427
        30        28        27        46     9      180.000000       -0.130906         2    ;  uncertainty k = 0.274801
        30        28        27        46     9        0.000000        0.310449         3    ;  uncertainty k = 0.061534
        30        28        27        46     9      180.000000       -0.168515         4    ;  uncertainty k = 0.095920
        30        28        27        47     9        0.000000       -0.760227         1    ;  uncertainty k = 0.346427
        30        28        27        47     9      180.000000       -0.130906         2    ;  uncertainty k = 0.274801
        30        28        27        47     9        0.000000        0.310449         3    ;  uncertainty k = 0.061534
        30        28        27        47     9      180.000000       -0.168515         4    ;  uncertainty k = 0.095920
        31        28        27        46     9        0.000000       -0.760227         1    ;  uncertainty k = 0.346427
        31        28        27        46     9      180.000000       -0.130906         2    ;  uncertainty k = 0.274801
        31        28        27        46     9        0.000000        0.310449         3    ;  uncertainty k = 0.061534
        31        28        27        46     9      180.000000       -0.168515         4    ;  uncertainty k = 0.095920
        31        28        27        47     9        0.000000       -0.760227         1    ;  uncertainty k = 0.346427
        31        28        27        47     9      180.000000       -0.130906         2    ;  uncertainty k = 0.274801
        31        28        27        47     9        0.000000        0.310449         3    ;  uncertainty k = 0.061534
        31        28        27        47     9      180.000000       -0.168515         4    ;  uncertainty k = 0.095920
        41        13        14        42     9        0.000000       -0.150186         1    ;  uncertainty k = 0.338566
        41        13        14        42     9      180.000000        8.242436         2    ;  uncertainty k = 0.374971
        41        13        14        42     9        0.000000       -0.410027         3    ;  uncertainty k = 0.246833
        41        13        14        42     9      180.000000        0.145293         4    ;  uncertainty k = 0.230992

[ dihedrals ] ; impropers
;       ai        aj        ak        al funct           phase               k        pn
         2         1         3         8     4      180.000000        2.050788         2    ;  uncertainty k = 0.595494
         2         3         8         1     4      180.000000        2.050788         2    ;  uncertainty k = 0.595494
         2         8         1         3     4      180.000000        2.050788         2    ;  uncertainty k = 0.595494
         3         2         4         5     4      180.000000       30.541077         2    ;  uncertainty k = 0.134872
         3         4         5         2     4      180.000000       30.541077         2    ;  uncertainty k = 0.134872
         3         5         2         4     4      180.000000       30.541077         2    ;  uncertainty k = 0.134872
         8         2         6         9     4      180.000000       50.608842         2    ;  uncertainty k = 0.038350
         8         6         9         2     4      180.000000       50.608842         2    ;  uncertainty k = 0.038350
         8         9         2         6     4      180.000000       50.608842         2    ;  uncertainty k = 0.038350
        10         6        11        15     4      180.000000        8.516790         2    ;  uncertainty k = 0.273709
        10        11        15         6     4      180.000000        8.516790         2    ;  uncertainty k = 0.273709
        10        15         6        11     4      180.000000        8.516790         2    ;  uncertainty k = 0.273709
        11        10        12        40     4      180.000000        3.957610         2    ;  uncertainty k = 0.395698
        11        12        40        10     4      180.000000        3.957610         2    ;  uncertainty k = 0.395698
        11        40        10        12     4      180.000000        3.957610         2    ;  uncertainty k = 0.395698
        12        11        13        17     4      180.000000       16.837444         2    ;  uncertainty k = 0.135359
        12        13        17        11     4      180.000000       16.837444         2    ;  uncertainty k = 0.135359
        12        17        11        13     4      180.000000       16.837444         2    ;  uncertainty k = 0.135359
        13        12        14        41     4      180.000000        3.756057         2    ;  uncertainty k = 0.236002
        13        14        41        12     4      180.000000        3.756057         2    ;  uncertainty k = 0.236002
        13        41        12        14     4      180.000000        3.756057         2    ;  uncertainty k = 0.236002
        14        13        15        42     4      180.000000        1.836901         2    ;  uncertainty k = 0.395257
        14        15        42        13     4      180.000000        1.836901         2    ;  uncertainty k = 0.395257
        14        42        13        15     4      180.000000        1.836901         2    ;  uncertainty k = 0.395257
        15        10        14        16     4      180.000000       14.878616         2    ;  uncertainty k = 0.156272
        15        14        16        10     4      180.000000       14.878616         2    ;  uncertainty k = 0.156272
        15        16        10        14     4      180.000000       14.878616         2    ;  uncertainty k = 0.156272
        17        12        18        43     4      180.000000        0.933227         2    ;  uncertainty k = 0.761948
        17        18        43        12     4      180.000000        0.933227         2    ;  uncertainty k = 0.761948
        17        43        12        18     4      180.000000        0.933227         2    ;  uncertainty k = 0.761948
        18        17        19        20     4      180.000000       49.290867         2    ;  uncertainty k = 0.035669
        18        19        20        17     4      180.000000       49.290867         2    ;  uncertainty k = 0.035669
        18        20        17        19     4      180.000000       49.290867         2    ;  uncertainty k = 0.035669
        20        18        21        25     4      180.000000       12.529772         2    ;  uncertainty k = 0.275801
        20        21        25        18     4      180.000000       12.529772         2    ;  uncertainty k = 0.275801
        20        25        18        21     4      180.000000       12.529772         2    ;  uncertainty k = 0.275801
        21        20        22        44     4      180.000000       13.936807         2    ;  uncertainty k = 0.045568
        21        22        44        20     4      180.000000       13.936807         2    ;  uncertainty k = 0.045568
        21        44        20        22     4      180.000000       13.936807         2    ;  uncertainty k = 0.045568
        23        22        24        26     4      180.000000       29.449908         2    ;  uncertainty k = 0.029280
        23        24        26        22     4      180.000000       29.449908         2    ;  uncertainty k = 0.029280
        23        26        22        24     4      180.000000       29.449908         2    ;  uncertainty k = 0.029280
        24        23        25        45     4      180.000000        9.621464         2    ;  uncertainty k = 0.149597
        24        25        45        23     4      180.000000        9.621464         2    ;  uncertainty k = 0.149597
        24        45        23        25     4      180.000000        9.621464         2    ;  uncertainty k = 0.149597

[ pairs ]
;       ai        aj funct
         1         4     1
         1         5     1
         1         6     1
         1         9     1
         2         7     1
         2        10     1
         2        35     1
         2        36     1
         2        48     1
         3         7     1
         3         9     1
         3        10     1
         3        32     1
         3        33     1
         3        34     1
         4         6     1
         4         8     1
         4        48     1
         5         9     1
         5        11     1
         5        15     1
         5        35     1
         5        36     1
         5        37     1
         5        38     1
         5        39     1
         6        12     1
         6        14     1
         6        16     1
         6        40     1
         7         9     1
         7        11     1
         7        15     1
         7        48     1
         8        11     1
         8        15     1
         8        32     1
         8        33     1
         8        34     1
         8        37     1
         8        38     1
         8        39     1
         8        48     1
         9        10     1
        10        13     1
        10        17     1
        10        37     1
        10        38     1
        10        39     1
        10        42     1
        10        48     1
        11        14     1
        11        16     1
        11        18     1
        11        41     1
        11        43     1
        12        15     1
        12        19     1
        12        20     1
        12        42     1
        13        16     1
        13        18     1
        13        40     1
        13        43     1
        14        17     1
        15        40     1
        15        41     1
        16        42     1
        17        21     1
        17        25     1
        17        40     1
        17        41     1
        18        22     1
        18        24     1
        18        44     1
        19        21     1
        19        25     1
        19        43     1
        20        23     1
        20        43     1
        20        45     1
        21        24     1
        21        26     1
        22        25     1
        22        27     1
        22        45     1
        23        28     1
        23        44     1
        23        46     1
        23        47     1
        24        27     1
        25        26     1
        25        44     1
        26        29     1
        26        30     1
        26        31     1
        26        45     1
        29        46     1
        29        47     1
        30        46     1
        30        47     1
        31        46     1
        31        47     1
        41        42     1
