; ITP file created by ByteFF-joint-25, 2025-07-14 11:32:23.143196

[ atomtypes ]
;name           bonded.type        at.num        mass        charge   ptype           sigma         epsilon
 c0bf                                   6      0.0000       0.00000       A     3.39791e-01     4.51217e-01    ;  uncertainty sigma = 0.000006, epsilon = 0.000628
 o1bf                                   8      0.0000       0.00000       A     3.15600e-01     3.03379e-01    ;  uncertainty sigma = 0.000013, epsilon = 0.001092
 c2bf                                   6      0.0000       0.00000       A     3.39812e-01     4.50479e-01    ;  uncertainty sigma = 0.000009, epsilon = 0.000661
 c3bf                                   6      0.0000       0.00000       A     3.39770e-01     4.50061e-01    ;  uncertainty sigma = 0.000010, epsilon = 0.000408
 o4bf                                   8      0.0000       0.00000       A     3.15634e-01     3.04197e-01    ;  uncertainty sigma = 0.000027, epsilon = 0.001921
 c5bf                                   6      0.0000       0.00000       A     3.31539e-01     4.13089e-01    ;  uncertainty sigma = 0.000009, epsilon = 0.001995
 c6bf                                   6      0.0000       0.00000       A     3.31535e-01     4.13520e-01    ;  uncertainty sigma = 0.000009, epsilon = 0.001032
 n7bf                                   7      0.0000       0.00000       A     3.38390e-01     3.93325e-01    ;  uncertainty sigma = 0.000020, epsilon = 0.000402
 c8bf                                   6      0.0000       0.00000       A     3.31529e-01     4.12962e-01    ;  uncertainty sigma = 0.000009, epsilon = 0.000908
 c9bf                                   6      0.0000       0.00000       A     3.31550e-01     4.13644e-01    ;  uncertainty sigma = 0.000016, epsilon = 0.001518
 n10bf                                  7      0.0000       0.00000       A     3.38407e-01     3.93616e-01    ;  uncertainty sigma = 0.000019, epsilon = 0.000775
 c11bf                                  6      0.0000       0.00000       A     3.31512e-01     4.12533e-01    ;  uncertainty sigma = 0.000017, epsilon = 0.000770
 o12bf                                  8      0.0000       0.00000       A     3.04829e-01     6.12938e-01    ;  uncertainty sigma = 0.000026, epsilon = 0.001502
 n13bf                                  7      0.0000       0.00000       A     3.27000e-01     4.90774e-01    ;  uncertainty sigma = 0.000031, epsilon = 0.001085
 c14bf                                  6      0.0000       0.00000       A     3.31511e-01     4.13241e-01    ;  uncertainty sigma = 0.000009, epsilon = 0.001103
 c15bf                                  6      0.0000       0.00000       A     3.31527e-01     4.13349e-01    ;  uncertainty sigma = 0.000006, epsilon = 0.000428
 c16bf                                  6      0.0000       0.00000       A     3.31529e-01     4.13207e-01    ;  uncertainty sigma = 0.000002, epsilon = 0.000645
 c17bf                                  6      0.0000       0.00000       A     3.31537e-01     4.12958e-01    ;  uncertainty sigma = 0.000011, epsilon = 0.000445
 f18bf                                  9      0.0000       0.00000       A     3.03466e-01     3.47837e-01    ;  uncertainty sigma = 0.000024, epsilon = 0.001425
 c19bf                                  6      0.0000       0.00000       A     3.31491e-01     4.13511e-01    ;  uncertainty sigma = 0.000025, epsilon = 0.000549
 c20bf                                  6      0.0000       0.00000       A     3.31538e-01     4.14259e-01    ;  uncertainty sigma = 0.000011, epsilon = 0.001415
 c21bf                                  6      0.0000       0.00000       A     3.39753e-01     4.52738e-01    ;  uncertainty sigma = 0.000042, epsilon = 0.001595
 c22bf                                  6      0.0000       0.00000       A     3.39744e-01     4.50534e-01    ;  uncertainty sigma = 0.000020, epsilon = 0.000972
 n23bf                                  7      0.0000       0.00000       A     3.27634e-01     6.54915e-01    ;  uncertainty sigma = 0.000107, epsilon = 0.008004
 c24bf                                  6      0.0000       0.00000       A     3.31513e-01     4.12139e-01    ;  uncertainty sigma = 0.000056, epsilon = 0.001615
 n25bf                                  7      0.0000       0.00000       A     3.36545e-01     4.71525e-01    ;  uncertainty sigma = 0.000086, epsilon = 0.005555
 n26bf                                  7      0.0000       0.00000       A     3.18099e-01     6.83564e-01    ;  uncertainty sigma = 0.000071, epsilon = 0.006492
 c27bf                                  6      0.0000       0.00000       A     3.39732e-01     4.51240e-01    ;  uncertainty sigma = 0.000013, epsilon = 0.001269
 c28bf                                  6      0.0000       0.00000       A     3.31542e-01     4.13673e-01    ;  uncertainty sigma = 0.000009, epsilon = 0.000631
 o29bf                                  8      0.0000       0.00000       A     3.04810e-01     6.12222e-01    ;  uncertainty sigma = 0.000062, epsilon = 0.002116
 h30bf                                  1      0.0000       0.00000       A     2.42186e-01     8.67159e-02    ;  uncertainty sigma = 0.000012, epsilon = 0.000513
 h31bf                                  1      0.0000       0.00000       A     2.42186e-01     8.67159e-02    ;  uncertainty sigma = 0.000012, epsilon = 0.000513
 h32bf                                  1      0.0000       0.00000       A     2.42186e-01     8.67159e-02    ;  uncertainty sigma = 0.000012, epsilon = 0.000513
 h33bf                                  1      0.0000       0.00000       A     2.42197e-01     8.69739e-02    ;  uncertainty sigma = 0.000017, epsilon = 0.000748
 h34bf                                  1      0.0000       0.00000       A     2.42197e-01     8.69739e-02    ;  uncertainty sigma = 0.000017, epsilon = 0.000748
 h35bf                                  1      0.0000       0.00000       A     2.42194e-01     8.69864e-02    ;  uncertainty sigma = 0.000030, epsilon = 0.000708
 h36bf                                  1      0.0000       0.00000       A     2.42194e-01     8.69864e-02    ;  uncertainty sigma = 0.000030, epsilon = 0.000708
 h37bf                                  1      0.0000       0.00000       A     2.53590e-01     6.71067e-02    ;  uncertainty sigma = 0.000043, epsilon = 0.000735
 h38bf                                  1      0.0000       0.00000       A     2.53700e-01     6.73606e-02    ;  uncertainty sigma = 0.000029, epsilon = 0.000744
 h39bf                                  1      0.0000       0.00000       A     1.10674e-01     4.15811e-02    ;  uncertainty sigma = 0.000084, epsilon = 0.000795
 h40bf                                  1      0.0000       0.00000       A     2.62560e-01     6.69889e-02    ;  uncertainty sigma = 0.000013, epsilon = 0.000439
 h41bf                                  1      0.0000       0.00000       A     2.62564e-01     6.69923e-02    ;  uncertainty sigma = 0.000012, epsilon = 0.000408
 h42bf                                  1      0.0000       0.00000       A     2.62574e-01     6.70743e-02    ;  uncertainty sigma = 0.000008, epsilon = 0.000594
 h43bf                                  1      0.0000       0.00000       A     2.60006e-01     8.67799e-02    ;  uncertainty sigma = 0.000022, epsilon = 0.000839
 h44bf                                  1      0.0000       0.00000       A     2.60006e-01     8.67799e-02    ;  uncertainty sigma = 0.000022, epsilon = 0.000839
 h45bf                                  1      0.0000       0.00000       A     2.60006e-01     8.67799e-02    ;  uncertainty sigma = 0.000022, epsilon = 0.000839
 h46bf                                  1      0.0000       0.00000       A     1.10696e-01     4.12786e-02    ;  uncertainty sigma = 0.000128, epsilon = 0.001559
 h47bf                                  1      0.0000       0.00000       A     1.10696e-01     4.12786e-02    ;  uncertainty sigma = 0.000128, epsilon = 0.001559
 h48bf                                  1      0.0000       0.00000       A     2.42208e-01     8.66970e-02    ;  uncertainty sigma = 0.000028, epsilon = 0.000664
 h49bf                                  1      0.0000       0.00000       A     2.42208e-01     8.66970e-02    ;  uncertainty sigma = 0.000028, epsilon = 0.000664
 h50bf                                  1      0.0000       0.00000       A     2.42208e-01     8.66970e-02    ;  uncertainty sigma = 0.000028, epsilon = 0.000664
 h51bf                                  1      0.0000       0.00000       A     1.10603e-01     4.03330e-02    ;  uncertainty sigma = 0.000168, epsilon = 0.001487

[ moleculetype ]
;name             nrexcl
 MOL                   3

[ atoms ]
;       nr            type      resi   res      atom      cgnr      charge          mass ; qtot
         1            c0bf         1   UNL        c0         1     0.11743       12.0110 ; qtot    0.117
         2            o1bf         1   UNL        o1         2    -0.41190       15.9990 ; qtot   -0.294
         3            c2bf         1   UNL        c2         3     0.11428       12.0110 ; qtot   -0.180
         4            c3bf         1   UNL        c3         4     0.12435       12.0110 ; qtot   -0.056
         5            o4bf         1   UNL        o4         5    -0.43747       15.9990 ; qtot   -0.493
         6            c5bf         1   UNL        c5         6     0.55303       12.0110 ; qtot    0.060
         7            c6bf         1   UNL        c6         7     0.26816       12.0110 ; qtot    0.328
         8            n7bf         1   UNL        n7         8    -0.60304       14.0070 ; qtot   -0.275
         9            c8bf         1   UNL        c8         9     0.19946       12.0110 ; qtot   -0.076
        10            c9bf         1   UNL        c9        10     0.39065       12.0110 ; qtot    0.315
        11           n10bf         1   UNL       n10        11    -0.71811       14.0070 ; qtot   -0.403
        12           c11bf         1   UNL       c11        12     0.59150       12.0110 ; qtot    0.188
        13           o12bf         1   UNL       o12        13    -0.57869       15.9990 ; qtot   -0.390
        14           n13bf         1   UNL       n13        14    -0.46213       14.0070 ; qtot   -0.852
        15           c14bf         1   UNL       c14        15     0.08305       12.0110 ; qtot   -0.769
        16           c15bf         1   UNL       c15        16    -0.12400       12.0110 ; qtot   -0.893
        17           c16bf         1   UNL       c16        17    -0.10523       12.0110 ; qtot   -0.999
        18           c17bf         1   UNL       c17        18     0.12000       12.0110 ; qtot   -0.879
        19           f18bf         1   UNL       f18        19    -0.14660       18.9980 ; qtot   -1.025
        20           c19bf         1   UNL       c19        20    -0.14361       12.0110 ; qtot   -1.169
        21           c20bf         1   UNL       c20        21    -0.10356       12.0110 ; qtot   -1.272
        22           c21bf         1   UNL       c21        22     0.05406       12.0110 ; qtot   -1.218
        23           c22bf         1   UNL       c22        23    -0.10092       12.0110 ; qtot   -1.319
        24           n23bf         1   UNL       n23        24    -0.38521       14.0070 ; qtot   -1.705
        25           c24bf         1   UNL       c24        25     0.46437       12.0110 ; qtot   -1.240
        26           n25bf         1   UNL       n25        26    -0.47980       14.0070 ; qtot   -1.720
        27           n26bf         1   UNL       n26        27    -0.42192       14.0070 ; qtot   -2.142
        28           c27bf         1   UNL       c27        28     0.07382       12.0110 ; qtot   -2.068
        29           c28bf         1   UNL       c28        29     0.70283       12.0110 ; qtot   -1.365
        30           o29bf         1   UNL       o29        30    -0.44648       15.9990 ; qtot   -1.812
        31           h30bf         1   UNL       h30        31     0.03239        1.0080 ; qtot   -1.779
        32           h31bf         1   UNL       h31        32     0.03239        1.0080 ; qtot   -1.747
        33           h32bf         1   UNL       h32        33     0.03239        1.0080 ; qtot   -1.715
        34           h33bf         1   UNL       h33        34     0.04861        1.0080 ; qtot   -1.666
        35           h34bf         1   UNL       h34        35     0.04861        1.0080 ; qtot   -1.617
        36           h35bf         1   UNL       h35        36     0.06526        1.0080 ; qtot   -1.552
        37           h36bf         1   UNL       h36        37     0.06526        1.0080 ; qtot   -1.487
        38           h37bf         1   UNL       h37        38     0.04926        1.0080 ; qtot   -1.438
        39           h38bf         1   UNL       h38        39     0.05731        1.0080 ; qtot   -1.380
        40           h39bf         1   UNL       h39        40     0.34809        1.0080 ; qtot   -1.032
        41           h40bf         1   UNL       h40        41     0.15964        1.0080 ; qtot   -0.872
        42           h41bf         1   UNL       h41        42     0.16862        1.0080 ; qtot   -0.704
        43           h42bf         1   UNL       h42        43     0.16861        1.0080 ; qtot   -0.535
        44           h43bf         1   UNL       h43        44     0.07984        1.0080 ; qtot   -0.455
        45           h44bf         1   UNL       h44        45     0.07984        1.0080 ; qtot   -0.376
        46           h45bf         1   UNL       h45        46     0.07984        1.0080 ; qtot   -0.296
        47           h46bf         1   UNL       h46        47     0.33566        1.0080 ; qtot    0.040
        48           h47bf         1   UNL       h47        48     0.33566        1.0080 ; qtot    0.376
        49           h48bf         1   UNL       h48        49     0.09090        1.0080 ; qtot    0.467
        50           h49bf         1   UNL       h49        50     0.09090        1.0080 ; qtot    0.557
        51           h50bf         1   UNL       h50        51     0.09090        1.0080 ; qtot    0.648
        52           h51bf         1   UNL       h51        52     0.35170        1.0080 ; qtot    1.000

[ bonds ]
;       ai        aj funct               r               k
         1         2     1        0.141747   253246.406250    ;  uncertainty r = 0.000029, k = 5.060122
         1        31     1        0.109816   310520.217969    ;  uncertainty r = 0.000016, k = 1.445172
         1        32     1        0.109816   310520.217969    ;  uncertainty r = 0.000016, k = 1.445172
         1        33     1        0.109816   310520.217969    ;  uncertainty r = 0.000016, k = 1.445172
         2         3     1        0.141112   244752.916895    ;  uncertainty r = 0.000080, k = 5.673705
         3         4     1        0.151979   213683.116162    ;  uncertainty r = 0.000057, k = 5.551893
         3        34     1        0.109977   308476.125586    ;  uncertainty r = 0.000026, k = 2.120725
         3        35     1        0.109977   308476.125586    ;  uncertainty r = 0.000026, k = 2.120725
         4         5     1        0.142242   237298.660205    ;  uncertainty r = 0.000125, k = 7.278672
         4        36     1        0.109527   310227.332861    ;  uncertainty r = 0.000034, k = 2.000241
         4        37     1        0.109527   310227.332861    ;  uncertainty r = 0.000034, k = 2.000241
         5         6     1        0.134533   295319.968652    ;  uncertainty r = 0.000094, k = 6.039264
         6         7     1        0.139688   397273.813379    ;  uncertainty r = 0.000188, k = 7.300575
         6        11     1        0.131897   396506.576465    ;  uncertainty r = 0.000087, k = 8.061497
         7         8     1        0.131738   433834.526758    ;  uncertainty r = 0.000165, k = 13.706108
         7        38     1        0.109143   343830.287158    ;  uncertainty r = 0.000068, k = 3.095769
         8         9     1        0.133426   449310.679004    ;  uncertainty r = 0.000140, k = 18.294929
         9        10     1        0.138810   353774.080029    ;  uncertainty r = 0.000078, k = 20.234880
         9        12     1        0.149503   244951.212549    ;  uncertainty r = 0.000133, k = 20.899770
        10        11     1        0.132809   433907.103223    ;  uncertainty r = 0.000157, k = 14.555661
        10        39     1        0.108820   336159.067188    ;  uncertainty r = 0.000035, k = 1.832058
        12        13     1        0.123456   666741.749023    ;  uncertainty r = 0.000061, k = 4.842823
        12        14     1        0.136464   274625.282568    ;  uncertainty r = 0.000098, k = 19.136006
        14        15     1        0.140301   325782.241553    ;  uncertainty r = 0.000088, k = 12.193523
        14        40     1        0.101962   419239.915527    ;  uncertainty r = 0.000055, k = 6.177923
        15        16     1        0.140121   351861.478223    ;  uncertainty r = 0.000064, k = 4.347716
        15        21     1        0.140032   349060.670215    ;  uncertainty r = 0.000107, k = 5.440714
        16        17     1        0.138924   379307.180078    ;  uncertainty r = 0.000023, k = 4.287586
        16        41     1        0.108594   335965.674658    ;  uncertainty r = 0.000020, k = 2.825561
        17        18     1        0.138788   358879.663232    ;  uncertainty r = 0.000067, k = 6.224456
        17        42     1        0.108724   335191.517188    ;  uncertainty r = 0.000006, k = 0.941912
        18        19     1        0.136344   334455.180176    ;  uncertainty r = 0.000076, k = 5.871534
        18        20     1        0.139278   348949.685938    ;  uncertainty r = 0.000129, k = 9.610128
        20        21     1        0.139215   348277.472607    ;  uncertainty r = 0.000077, k = 2.308798
        20        22     1        0.150681   211451.147266    ;  uncertainty r = 0.000218, k = 10.382592
        21        43     1        0.108637   334645.687012    ;  uncertainty r = 0.000048, k = 3.746436
        22        23     1        0.152905   202609.076367    ;  uncertainty r = 0.000113, k = 6.873468
        22        24     1        0.149590   224745.945166    ;  uncertainty r = 0.000280, k = 51.158502
        22        29     1        0.153207   184849.472412    ;  uncertainty r = 0.000082, k = 18.283196
        23        44     1        0.109357   312704.355859    ;  uncertainty r = 0.000017, k = 2.494684
        23        45     1        0.109357   312704.355859    ;  uncertainty r = 0.000017, k = 2.494684
        23        46     1        0.109357   312704.355859    ;  uncertainty r = 0.000017, k = 2.494684
        24        25     1        0.133523   515001.164453    ;  uncertainty r = 0.000100, k = 46.996062
        24        52     1        0.101521   426524.963330    ;  uncertainty r = 0.000057, k = 5.253974
        25        26     1        0.133017   314195.365527    ;  uncertainty r = 0.000190, k = 44.855181
        25        27     1        0.135553   282297.549561    ;  uncertainty r = 0.000187, k = 45.488263
        26        47     1        0.101394   420987.496533    ;  uncertainty r = 0.000069, k = 12.104680
        26        48     1        0.101394   420987.496533    ;  uncertainty r = 0.000069, k = 12.104680
        27        28     1        0.146710   261079.914551    ;  uncertainty r = 0.000135, k = 11.513951
        27        29     1        0.142536   298215.774707    ;  uncertainty r = 0.000299, k = 75.837515
        28        49     1        0.109172   309349.367041    ;  uncertainty r = 0.000046, k = 3.240016
        28        50     1        0.109172   309349.367041    ;  uncertainty r = 0.000046, k = 3.240016
        28        51     1        0.109172   309349.367041    ;  uncertainty r = 0.000046, k = 3.240012
        29        30     1        0.120039   624447.035254    ;  uncertainty r = 0.000099, k = 10.782102

[ angles ]
;       ai        aj        ak funct           theta             cth
         1         2         3     1      108.884789      557.322960    ;  uncertainty theta = 0.001667, k = 0.051553
         2         1        31     1      109.448990      459.213664    ;  uncertainty theta = 0.001339, k = 0.022923
         2         1        32     1      109.448990      459.213664    ;  uncertainty theta = 0.001339, k = 0.022923
         2         1        33     1      109.448990      459.213664    ;  uncertainty theta = 0.001339, k = 0.022923
         2         3         4     1      108.202026      550.487698    ;  uncertainty theta = 0.000551, k = 0.086151
         2         3        34     1      108.367752      455.538554    ;  uncertainty theta = 0.000490, k = 0.037345
         2         3        35     1      108.367752      455.538554    ;  uncertainty theta = 0.000490, k = 0.037345
         3         4         5     1      107.835556      547.073961    ;  uncertainty theta = 0.002636, k = 0.048724
         3         4        36     1      109.930885      414.520466    ;  uncertainty theta = 0.002143, k = 0.063622
         3         4        37     1      109.930885      414.520466    ;  uncertainty theta = 0.002143, k = 0.063622
         4         3        34     1      108.527138      411.486402    ;  uncertainty theta = 0.001061, k = 0.042977
         4         3        35     1      108.527138      411.486402    ;  uncertainty theta = 0.001061, k = 0.042977
         4         5         6     1      109.474770      494.364473    ;  uncertainty theta = 0.001942, k = 0.116289
         5         4        36     1      106.167297      415.957759    ;  uncertainty theta = 0.002161, k = 0.054708
         5         4        37     1      106.167297      415.957759    ;  uncertainty theta = 0.002161, k = 0.054708
         5         6         7     1      118.930832      401.080317    ;  uncertainty theta = 0.007579, k = 0.246874
         5         6        11     1      118.988480      589.005767    ;  uncertainty theta = 0.003244, k = 0.135098
         6         7         8     1      119.818886      569.185267    ;  uncertainty theta = 0.002917, k = 0.076063
         6         7        38     1      123.092674      264.876740    ;  uncertainty theta = 0.006345, k = 0.054379
         6        11        10     1      115.089561      403.575165    ;  uncertainty theta = 0.009787, k = 0.183888
         7         6        11     1      120.336159      453.954041    ;  uncertainty theta = 0.005859, k = 0.177425
         7         8         9     1      120.774231      476.888663    ;  uncertainty theta = 0.005204, k = 0.200614
         8         7        38     1      118.557945      337.041451    ;  uncertainty theta = 0.004957, k = 0.210467
         8         9        10     1      121.923195      525.611936    ;  uncertainty theta = 0.004585, k = 0.116652
         8         9        12     1      116.233376      394.322145    ;  uncertainty theta = 0.005991, k = 0.221247
         9        10        11     1      121.936569      606.517009    ;  uncertainty theta = 0.003428, k = 0.186871
         9        10        39     1      120.281090      242.713530    ;  uncertainty theta = 0.006191, k = 0.102496
         9        12        13     1      121.462387      520.963862    ;  uncertainty theta = 0.002051, k = 0.123901
         9        12        14     1      111.542770      457.866134    ;  uncertainty theta = 0.003065, k = 0.108640
        10         9        12     1      121.976074      368.322622    ;  uncertainty theta = 0.006440, k = 0.125015
        11        10        39     1      119.325356      321.627060    ;  uncertainty theta = 0.003766, k = 0.192304
        12        14        15     1      116.760399      454.101198    ;  uncertainty theta = 0.005707, k = 0.053605
        12        14        40     1      116.942459      347.001307    ;  uncertainty theta = 0.004243, k = 0.138639
        13        12        14     1      122.926979      763.729264    ;  uncertainty theta = 0.001946, k = 0.062556
        14        15        16     1      119.903664      513.304645    ;  uncertainty theta = 0.004024, k = 0.178479
        14        15        21     1      119.113998      506.499644    ;  uncertainty theta = 0.005847, k = 0.020043
        15        14        40     1      113.254906      316.578501    ;  uncertainty theta = 0.005959, k = 0.110261
        15        16        17     1      118.944046      499.285219    ;  uncertainty theta = 0.002492, k = 0.112685
        15        16        41     1      118.815491      266.310936    ;  uncertainty theta = 0.001295, k = 0.055880
        15        21        20     1      121.884567      495.151335    ;  uncertainty theta = 0.004160, k = 0.171271
        15        21        43     1      118.775940      276.281741    ;  uncertainty theta = 0.002125, k = 0.077752
        16        15        21     1      120.176659      378.203600    ;  uncertainty theta = 0.009012, k = 0.213092
        16        17        18     1      119.512123      457.885574    ;  uncertainty theta = 0.003407, k = 0.254534
        16        17        42     1      121.217789      273.755578    ;  uncertainty theta = 0.003002, k = 0.015112
        17        16        41     1      120.276955      314.663090    ;  uncertainty theta = 0.001267, k = 0.084273
        17        18        19     1      118.627869      526.644752    ;  uncertainty theta = 0.002155, k = 0.221508
        17        18        20     1      124.588257      373.262138    ;  uncertainty theta = 0.008319, k = 0.211031
        18        17        42     1      119.557434      274.244358    ;  uncertainty theta = 0.000967, k = 0.049940
        18        20        21     1      122.221237      422.470871    ;  uncertainty theta = 0.004853, k = 0.147583
        18        20        22     1      116.213661      368.452351    ;  uncertainty theta = 0.007679, k = 0.305885
        19        18        20     1      115.755020      485.528059    ;  uncertainty theta = 0.002993, k = 0.055953
        20        21        43     1      117.458191      279.366592    ;  uncertainty theta = 0.002972, k = 0.112086
        20        22        23     1      111.881615      555.686862    ;  uncertainty theta = 0.009765, k = 0.196787
        20        22        24     1      109.928795      605.344856    ;  uncertainty theta = 0.003560, k = 0.179456
        20        22        29     1      109.134598      488.641958    ;  uncertainty theta = 0.007193, k = 0.130647
        21        20        22     1      117.895180      365.986168    ;  uncertainty theta = 0.010765, k = 0.134465
        22        23        44     1      106.927933      394.684772    ;  uncertainty theta = 0.002066, k = 0.089371
        22        23        45     1      106.927933      394.684772    ;  uncertainty theta = 0.002066, k = 0.089371
        22        23        46     1      106.927933      394.684772    ;  uncertainty theta = 0.002066, k = 0.089371
        22        24        25     1      111.653259      599.184028    ;  uncertainty theta = 0.017326, k = 0.376837
        22        24        52     1      116.963356      303.967255    ;  uncertainty theta = 0.009142, k = 0.399335
        22        29        27     1      109.736252      470.059434    ;  uncertainty theta = 0.002580, k = 0.550624
        22        29        30     1      125.841690      412.900647    ;  uncertainty theta = 0.008426, k = 0.238525
        23        22        24     1      110.591103      655.824443    ;  uncertainty theta = 0.006396, k = 0.338343
        23        22        29     1      107.670143      459.649007    ;  uncertainty theta = 0.006365, k = 0.123616
        24        22        29     1      102.792648      948.960006    ;  uncertainty theta = 0.008613, k = 0.584522
        24        25        26     1      128.549240      641.934618    ;  uncertainty theta = 0.008406, k = 0.356256
        24        25        27     1      113.323959      704.901724    ;  uncertainty theta = 0.008360, k = 0.287491
        25        24        52     1      119.312279      356.459167    ;  uncertainty theta = 0.007417, k = 0.091502
        25        26        47     1      114.819153      367.961847    ;  uncertainty theta = 0.004136, k = 0.184598
        25        26        48     1      114.819153      367.961847    ;  uncertainty theta = 0.004136, k = 0.184598
        25        27        28     1      118.608421      371.860853    ;  uncertainty theta = 0.007072, k = 0.458606
        25        27        29     1      110.318237      713.052914    ;  uncertainty theta = 0.010075, k = 0.264336
        26        25        27     1      125.853745      534.882225    ;  uncertainty theta = 0.010760, k = 0.302799
        27        28        49     1      107.395668      471.434032    ;  uncertainty theta = 0.002532, k = 0.225057
        27        28        50     1      107.395668      471.434032    ;  uncertainty theta = 0.002532, k = 0.225057
        27        28        51     1      107.395668      471.434032    ;  uncertainty theta = 0.002532, k = 0.225057
        27        29        30     1      125.416885      647.490982    ;  uncertainty theta = 0.010629, k = 0.094243
        28        27        29     1      119.198807      397.228619    ;  uncertainty theta = 0.008340, k = 0.319605
        31         1        32     1      108.631973      326.097459    ;  uncertainty theta = 0.002071, k = 0.017576
        31         1        33     1      108.631973      326.097459    ;  uncertainty theta = 0.002071, k = 0.017576
        32         1        33     1      108.631973      326.097459    ;  uncertainty theta = 0.002071, k = 0.017576
        34         3        35     1      107.448242      327.010794    ;  uncertainty theta = 0.001035, k = 0.061906
        36         4        37     1      108.599228      331.464242    ;  uncertainty theta = 0.002507, k = 0.032160
        44        23        45     1      106.291847      312.502459    ;  uncertainty theta = 0.001101, k = 0.051146
        44        23        46     1      106.291847      312.502459    ;  uncertainty theta = 0.001101, k = 0.051146
        45        23        46     1      106.291847      312.502459    ;  uncertainty theta = 0.001101, k = 0.051146
        47        26        48     1      112.416359      264.752614    ;  uncertainty theta = 0.015901, k = 0.355235
        49        28        50     1      107.633835      325.689216    ;  uncertainty theta = 0.003363, k = 0.104763
        49        28        51     1      107.633835      325.689216    ;  uncertainty theta = 0.003363, k = 0.104763
        50        28        51     1      107.633835      325.689216    ;  uncertainty theta = 0.003363, k = 0.104763

[ dihedrals ] ; propers for gromacs 4.5 or higher, use funct 9
;       ai        aj        ak        al funct           phase               k        pn
         1         2         3         4     9        0.000000       -2.991680         1    ;  uncertainty k = 0.585680
         1         2         3         4     9      180.000000       -1.225268         2    ;  uncertainty k = 0.064952
         1         2         3         4     9        0.000000        1.071209         3    ;  uncertainty k = 0.122550
         1         2         3         4     9      180.000000        0.055551         4    ;  uncertainty k = 0.057391
         1         2         3        34     9        0.000000       -1.112746         1    ;  uncertainty k = 0.302358
         1         2         3        34     9      180.000000       -1.442063         2    ;  uncertainty k = 0.157583
         1         2         3        34     9        0.000000        1.125492         3    ;  uncertainty k = 0.128008
         1         2         3        34     9      180.000000        0.063790         4    ;  uncertainty k = 0.073121
         1         2         3        35     9        0.000000       -1.112746         1    ;  uncertainty k = 0.302358
         1         2         3        35     9      180.000000       -1.442063         2    ;  uncertainty k = 0.157583
         1         2         3        35     9        0.000000        1.125492         3    ;  uncertainty k = 0.128008
         1         2         3        35     9      180.000000        0.063790         4    ;  uncertainty k = 0.073121
         2         3         4         5     9        0.000000       -1.498709         1    ;  uncertainty k = 0.588566
         2         3         4         5     9      180.000000       -5.792282         2    ;  uncertainty k = 0.293695
         2         3         4         5     9        0.000000        2.750151         3    ;  uncertainty k = 0.398831
         2         3         4         5     9      180.000000        0.078687         4    ;  uncertainty k = 0.104416
         2         3         4        36     9        0.000000        0.094986         1    ;  uncertainty k = 0.304261
         2         3         4        36     9      180.000000       -1.060691         2    ;  uncertainty k = 0.159040
         2         3         4        36     9        0.000000        1.070053         3    ;  uncertainty k = 0.090936
         2         3         4        36     9      180.000000       -0.078605         4    ;  uncertainty k = 0.094100
         2         3         4        37     9        0.000000        0.094986         1    ;  uncertainty k = 0.304261
         2         3         4        37     9      180.000000       -1.060691         2    ;  uncertainty k = 0.159040
         2         3         4        37     9        0.000000        1.070053         3    ;  uncertainty k = 0.090936
         2         3         4        37     9      180.000000       -0.078605         4    ;  uncertainty k = 0.094100
         3         2         1        31     9        0.000000       -1.366794         1    ;  uncertainty k = 0.368545
         3         2         1        31     9      180.000000       -1.956626         2    ;  uncertainty k = 0.226877
         3         2         1        31     9        0.000000        1.180522         3    ;  uncertainty k = 0.052656
         3         2         1        31     9      180.000000        0.015883         4    ;  uncertainty k = 0.024761
         3         2         1        32     9        0.000000       -1.366794         1    ;  uncertainty k = 0.368545
         3         2         1        32     9      180.000000       -1.956626         2    ;  uncertainty k = 0.226877
         3         2         1        32     9        0.000000        1.180522         3    ;  uncertainty k = 0.052656
         3         2         1        32     9      180.000000        0.015883         4    ;  uncertainty k = 0.024761
         3         2         1        33     9        0.000000       -1.366794         1    ;  uncertainty k = 0.368545
         3         2         1        33     9      180.000000       -1.956626         2    ;  uncertainty k = 0.226877
         3         2         1        33     9        0.000000        1.180522         3    ;  uncertainty k = 0.052656
         3         2         1        33     9      180.000000        0.015883         4    ;  uncertainty k = 0.024761
         3         4         5         6     9        0.000000       -1.282007         1    ;  uncertainty k = 0.476432
         3         4         5         6     9      180.000000        0.565720         2    ;  uncertainty k = 0.251171
         3         4         5         6     9        0.000000        0.008016         3    ;  uncertainty k = 0.248787
         3         4         5         6     9      180.000000        0.768933         4    ;  uncertainty k = 0.047172
         4         5         6         7     9        0.000000        1.316432         1    ;  uncertainty k = 0.833140
         4         5         6         7     9      180.000000        7.726268         2    ;  uncertainty k = 0.331022
         4         5         6         7     9        0.000000        0.667183         3    ;  uncertainty k = 0.299423
         4         5         6         7     9      180.000000        0.079362         4    ;  uncertainty k = 0.158168
         4         5         6        11     9        0.000000        1.245477         1    ;  uncertainty k = 0.916441
         4         5         6        11     9      180.000000       10.074003         2    ;  uncertainty k = 0.234492
         4         5         6        11     9        0.000000        0.443313         3    ;  uncertainty k = 0.188228
         4         5         6        11     9      180.000000        0.201569         4    ;  uncertainty k = 0.154109
         5         4         3        34     9        0.000000        0.886173         1    ;  uncertainty k = 0.583525
         5         4         3        34     9      180.000000       -1.906748         2    ;  uncertainty k = 0.159154
         5         4         3        34     9        0.000000        1.137860         3    ;  uncertainty k = 0.088932
         5         4         3        34     9      180.000000        0.016290         4    ;  uncertainty k = 0.082509
         5         4         3        35     9        0.000000        0.886173         1    ;  uncertainty k = 0.583525
         5         4         3        35     9      180.000000       -1.906748         2    ;  uncertainty k = 0.159154
         5         4         3        35     9        0.000000        1.137860         3    ;  uncertainty k = 0.088932
         5         4         3        35     9      180.000000        0.016290         4    ;  uncertainty k = 0.082509
         5         6         7         8     9        0.000000        0.051311         1    ;  uncertainty k = 0.614449
         5         6         7         8     9      180.000000        6.236464         2    ;  uncertainty k = 0.971589
         5         6         7         8     9        0.000000        0.414808         3    ;  uncertainty k = 0.382785
         5         6         7         8     9      180.000000        1.101235         4    ;  uncertainty k = 0.477826
         5         6         7        38     9        0.000000       -0.332476         1    ;  uncertainty k = 0.908884
         5         6         7        38     9      180.000000        4.973347         2    ;  uncertainty k = 0.418908
         5         6         7        38     9        0.000000        0.520929         3    ;  uncertainty k = 0.258732
         5         6         7        38     9      180.000000        0.669114         4    ;  uncertainty k = 0.276543
         5         6        11        10     9        0.000000        1.089793         1    ;  uncertainty k = 1.302798
         5         6        11        10     9      180.000000       13.993664         2    ;  uncertainty k = 0.146623
         5         6        11        10     9        0.000000        2.560786         3    ;  uncertainty k = 0.285616
         5         6        11        10     9      180.000000        1.616563         4    ;  uncertainty k = 0.228429
         6         5         4        36     9        0.000000        1.966161         1    ;  uncertainty k = 0.750160
         6         5         4        36     9      180.000000        0.066437         2    ;  uncertainty k = 0.132922
         6         5         4        36     9        0.000000        0.047722         3    ;  uncertainty k = 0.143402
         6         5         4        36     9      180.000000        0.368019         4    ;  uncertainty k = 0.076311
         6         5         4        37     9        0.000000        1.966161         1    ;  uncertainty k = 0.750160
         6         5         4        37     9      180.000000        0.066437         2    ;  uncertainty k = 0.132922
         6         5         4        37     9        0.000000        0.047722         3    ;  uncertainty k = 0.143402
         6         5         4        37     9      180.000000        0.368019         4    ;  uncertainty k = 0.076311
         6         7         8         9     9        0.000000        0.264487         1    ;  uncertainty k = 1.078309
         6         7         8         9     9      180.000000       15.222083         2    ;  uncertainty k = 0.439180
         6         7         8         9     9        0.000000        1.094249         3    ;  uncertainty k = 0.539761
         6         7         8         9     9      180.000000        1.596257         4    ;  uncertainty k = 0.319970
         6        11        10         9     9        0.000000       -0.158993         1    ;  uncertainty k = 1.185479
         6        11        10         9     9      180.000000       13.347606         2    ;  uncertainty k = 0.633134
         6        11        10         9     9        0.000000        0.976733         3    ;  uncertainty k = 0.636360
         6        11        10         9     9      180.000000        1.293400         4    ;  uncertainty k = 0.318590
         6        11        10        39     9        0.000000        0.499179         1    ;  uncertainty k = 0.402083
         6        11        10        39     9      180.000000       15.540100         2    ;  uncertainty k = 0.575593
         6        11        10        39     9        0.000000        2.095288         3    ;  uncertainty k = 0.862571
         6        11        10        39     9      180.000000        1.518796         4    ;  uncertainty k = 0.410737
         7         6        11        10     9        0.000000        0.036821         1    ;  uncertainty k = 0.709595
         7         6        11        10     9      180.000000        9.420733         2    ;  uncertainty k = 0.735638
         7         6        11        10     9        0.000000        1.619249         3    ;  uncertainty k = 0.402702
         7         6        11        10     9      180.000000        1.103624         4    ;  uncertainty k = 0.134179
         7         8         9        10     9        0.000000       -0.461240         1    ;  uncertainty k = 0.695678
         7         8         9        10     9      180.000000       11.275023         2    ;  uncertainty k = 0.361533
         7         8         9        10     9        0.000000        1.580583         3    ;  uncertainty k = 0.276124
         7         8         9        10     9      180.000000        1.138585         4    ;  uncertainty k = 0.256678
         7         8         9        12     9        0.000000        0.314360         1    ;  uncertainty k = 1.730825
         7         8         9        12     9      180.000000       13.546233         2    ;  uncertainty k = 0.704290
         7         8         9        12     9        0.000000        2.441120         3    ;  uncertainty k = 0.311818
         7         8         9        12     9      180.000000        1.438713         4    ;  uncertainty k = 0.440260
         8         7         6        11     9        0.000000       -0.834467         1    ;  uncertainty k = 0.254147
         8         7         6        11     9      180.000000        7.425456         2    ;  uncertainty k = 0.892115
         8         7         6        11     9        0.000000       -0.721786         3    ;  uncertainty k = 0.359513
         8         7         6        11     9      180.000000        0.994779         4    ;  uncertainty k = 0.634110
         8         9        10        11     9        0.000000       -0.404234         1    ;  uncertainty k = 0.231683
         8         9        10        11     9      180.000000       12.091496         2    ;  uncertainty k = 0.927262
         8         9        10        11     9        0.000000       -0.298526         3    ;  uncertainty k = 0.248932
         8         9        10        11     9      180.000000        1.239550         4    ;  uncertainty k = 0.497270
         8         9        10        39     9        0.000000       -0.211361         1    ;  uncertainty k = 0.461512
         8         9        10        39     9      180.000000        5.738048         2    ;  uncertainty k = 1.172620
         8         9        10        39     9        0.000000        0.881556         3    ;  uncertainty k = 0.236380
         8         9        10        39     9      180.000000        1.387547         4    ;  uncertainty k = 0.267866
         8         9        12        13     9        0.000000       -3.674156         1    ;  uncertainty k = 1.802642
         8         9        12        13     9      180.000000        4.850866         2    ;  uncertainty k = 0.864770
         8         9        12        13     9        0.000000        0.765586         3    ;  uncertainty k = 0.374761
         8         9        12        13     9      180.000000        0.008963         4    ;  uncertainty k = 0.103061
         8         9        12        14     9        0.000000        2.682009         1    ;  uncertainty k = 1.461412
         8         9        12        14     9      180.000000        4.207333         2    ;  uncertainty k = 0.315765
         8         9        12        14     9        0.000000        0.358798         3    ;  uncertainty k = 0.431666
         8         9        12        14     9      180.000000        0.121278         4    ;  uncertainty k = 0.102028
         9         8         7        38     9        0.000000        0.258705         1    ;  uncertainty k = 0.279782
         9         8         7        38     9      180.000000       16.639773         2    ;  uncertainty k = 0.353796
         9         8         7        38     9        0.000000        2.406439         3    ;  uncertainty k = 0.611487
         9         8         7        38     9      180.000000        1.563585         4    ;  uncertainty k = 0.230585
         9        12        14        15     9        0.000000        3.846125         1    ;  uncertainty k = 1.266001
         9        12        14        15     9      180.000000       12.023623         2    ;  uncertainty k = 0.205419
         9        12        14        15     9        0.000000        2.101524         3    ;  uncertainty k = 0.228818
         9        12        14        15     9      180.000000       -1.536121         4    ;  uncertainty k = 0.351126
         9        12        14        40     9        0.000000        0.764393         1    ;  uncertainty k = 1.333006
         9        12        14        40     9      180.000000        5.551418         2    ;  uncertainty k = 0.537259
         9        12        14        40     9        0.000000        2.121244         3    ;  uncertainty k = 0.383614
         9        12        14        40     9      180.000000        0.251337         4    ;  uncertainty k = 0.167325
        10         9        12        13     9        0.000000       -0.336719         1    ;  uncertainty k = 1.020029
        10         9        12        13     9      180.000000        3.844186         2    ;  uncertainty k = 0.830722
        10         9        12        13     9        0.000000        0.275673         3    ;  uncertainty k = 0.354119
        10         9        12        13     9      180.000000       -0.048057         4    ;  uncertainty k = 0.070291
        10         9        12        14     9        0.000000       -2.571109         1    ;  uncertainty k = 1.304795
        10         9        12        14     9      180.000000        3.063761         2    ;  uncertainty k = 0.445757
        10         9        12        14     9        0.000000       -0.058230         3    ;  uncertainty k = 0.621982
        10         9        12        14     9      180.000000       -0.029332         4    ;  uncertainty k = 0.366799
        11         6         7        38     9        0.000000       -0.294926         1    ;  uncertainty k = 0.943421
        11         6         7        38     9      180.000000        4.311920         2    ;  uncertainty k = 0.908679
        11         6         7        38     9        0.000000        0.673599         3    ;  uncertainty k = 0.247238
        11         6         7        38     9      180.000000        0.993933         4    ;  uncertainty k = 0.216730
        11        10         9        12     9        0.000000        0.458217         1    ;  uncertainty k = 0.610833
        11        10         9        12     9      180.000000        8.068357         2    ;  uncertainty k = 0.680207
        11        10         9        12     9        0.000000        0.930492         3    ;  uncertainty k = 0.285414
        11        10         9        12     9      180.000000        1.581250         4    ;  uncertainty k = 0.125066
        12         9        10        39     9        0.000000       -0.046601         1    ;  uncertainty k = 1.801172
        12         9        10        39     9      180.000000        6.073022         2    ;  uncertainty k = 0.532848
        12         9        10        39     9        0.000000        0.588814         3    ;  uncertainty k = 0.187458
        12         9        10        39     9      180.000000        0.695730         4    ;  uncertainty k = 0.393673
        12        14        15        16     9        0.000000        1.222473         1    ;  uncertainty k = 0.299407
        12        14        15        16     9      180.000000        4.690019         2    ;  uncertainty k = 0.120491
        12        14        15        16     9        0.000000        1.103745         3    ;  uncertainty k = 0.154087
        12        14        15        16     9      180.000000        0.092641         4    ;  uncertainty k = 0.052997
        12        14        15        21     9        0.000000        1.143456         1    ;  uncertainty k = 0.646861
        12        14        15        21     9      180.000000        5.004253         2    ;  uncertainty k = 0.156481
        12        14        15        21     9        0.000000        0.933960         3    ;  uncertainty k = 0.112209
        12        14        15        21     9      180.000000        0.074158         4    ;  uncertainty k = 0.090008
        13        12        14        15     9        0.000000        3.240917         1    ;  uncertainty k = 0.711831
        13        12        14        15     9      180.000000       14.139725         2    ;  uncertainty k = 0.198817
        13        12        14        15     9        0.000000        0.806920         3    ;  uncertainty k = 0.155686
        13        12        14        15     9      180.000000       -0.669259         4    ;  uncertainty k = 0.316641
        13        12        14        40     9        0.000000        1.052514         1    ;  uncertainty k = 1.227001
        13        12        14        40     9      180.000000       12.943511         2    ;  uncertainty k = 0.547781
        13        12        14        40     9        0.000000        2.400548         3    ;  uncertainty k = 0.461044
        13        12        14        40     9      180.000000        0.061342         4    ;  uncertainty k = 0.236993
        14        15        16        17     9        0.000000        0.110410         1    ;  uncertainty k = 0.159558
        14        15        16        17     9      180.000000       10.378064         2    ;  uncertainty k = 0.513953
        14        15        16        17     9        0.000000        1.062886         3    ;  uncertainty k = 0.483142
        14        15        16        17     9      180.000000        1.659404         4    ;  uncertainty k = 0.182108
        14        15        16        41     9        0.000000       -0.237243         1    ;  uncertainty k = 0.217332
        14        15        16        41     9      180.000000        8.504290         2    ;  uncertainty k = 0.497513
        14        15        16        41     9        0.000000        0.834768         3    ;  uncertainty k = 0.228877
        14        15        16        41     9      180.000000        1.179401         4    ;  uncertainty k = 0.200197
        14        15        21        20     9        0.000000        0.186639         1    ;  uncertainty k = 0.136519
        14        15        21        20     9      180.000000        9.168847         2    ;  uncertainty k = 0.710434
        14        15        21        20     9        0.000000        1.194032         3    ;  uncertainty k = 0.452202
        14        15        21        20     9      180.000000        1.657871         4    ;  uncertainty k = 0.309125
        14        15        21        43     9        0.000000       -0.014478         1    ;  uncertainty k = 0.273665
        14        15        21        43     9      180.000000        8.469351         2    ;  uncertainty k = 0.545734
        14        15        21        43     9        0.000000        0.851015         3    ;  uncertainty k = 0.151069
        14        15        21        43     9      180.000000        1.314612         4    ;  uncertainty k = 0.245899
        15        16        17        18     9        0.000000       -0.146441         1    ;  uncertainty k = 0.293671
        15        16        17        18     9      180.000000       14.050923         2    ;  uncertainty k = 0.332831
        15        16        17        18     9        0.000000       -0.739201         3    ;  uncertainty k = 0.507005
        15        16        17        18     9      180.000000        0.853742         4    ;  uncertainty k = 0.256322
        15        16        17        42     9        0.000000        0.080121         1    ;  uncertainty k = 0.387915
        15        16        17        42     9      180.000000        7.987227         2    ;  uncertainty k = 0.361472
        15        16        17        42     9        0.000000        1.316220         3    ;  uncertainty k = 0.317947
        15        16        17        42     9      180.000000        1.773079         4    ;  uncertainty k = 0.109851
        15        21        20        18     9        0.000000       -0.363162         1    ;  uncertainty k = 0.433207
        15        21        20        18     9      180.000000       11.389700         2    ;  uncertainty k = 0.299180
        15        21        20        18     9        0.000000       -0.040426         3    ;  uncertainty k = 0.527247
        15        21        20        18     9      180.000000        1.047917         4    ;  uncertainty k = 0.337470
        15        21        20        22     9        0.000000        0.179787         1    ;  uncertainty k = 0.373675
        15        21        20        22     9      180.000000        8.369800         2    ;  uncertainty k = 0.305379
        15        21        20        22     9        0.000000        1.570627         3    ;  uncertainty k = 0.283741
        15        21        20        22     9      180.000000        1.911516         4    ;  uncertainty k = 0.106893
        16        15        14        40     9        0.000000        0.584747         1    ;  uncertainty k = 1.227391
        16        15        14        40     9      180.000000        3.634003         2    ;  uncertainty k = 0.100057
        16        15        14        40     9        0.000000        0.725293         3    ;  uncertainty k = 0.148940
        16        15        14        40     9      180.000000        0.633216         4    ;  uncertainty k = 0.154147
        16        15        21        20     9        0.000000       -0.038045         1    ;  uncertainty k = 0.253047
        16        15        21        20     9      180.000000        8.084246         2    ;  uncertainty k = 0.525225
        16        15        21        20     9        0.000000        0.195335         3    ;  uncertainty k = 0.205947
        16        15        21        20     9      180.000000        1.325760         4    ;  uncertainty k = 0.331881
        16        15        21        43     9        0.000000        0.111578         1    ;  uncertainty k = 0.233158
        16        15        21        43     9      180.000000        6.849570         2    ;  uncertainty k = 0.564465
        16        15        21        43     9        0.000000        1.357311         3    ;  uncertainty k = 0.244478
        16        15        21        43     9      180.000000        1.567497         4    ;  uncertainty k = 0.123625
        16        17        18        19     9        0.000000       -0.114150         1    ;  uncertainty k = 0.292411
        16        17        18        19     9      180.000000       12.746392         2    ;  uncertainty k = 0.487807
        16        17        18        19     9        0.000000        1.376758         3    ;  uncertainty k = 0.328547
        16        17        18        19     9      180.000000        1.579279         4    ;  uncertainty k = 0.251795
        16        17        18        20     9        0.000000       -0.011917         1    ;  uncertainty k = 0.212388
        16        17        18        20     9      180.000000        8.198847         2    ;  uncertainty k = 0.559378
        16        17        18        20     9        0.000000        0.151773         3    ;  uncertainty k = 0.313351
        16        17        18        20     9      180.000000        1.312583         4    ;  uncertainty k = 0.229427
        17        16        15        21     9        0.000000       -0.162584         1    ;  uncertainty k = 0.154832
        17        16        15        21     9      180.000000        9.585313         2    ;  uncertainty k = 0.431928
        17        16        15        21     9        0.000000       -0.019447         3    ;  uncertainty k = 0.161922
        17        16        15        21     9      180.000000        1.248867         4    ;  uncertainty k = 0.225066
        17        18        20        21     9        0.000000       -0.505942         1    ;  uncertainty k = 0.234821
        17        18        20        21     9      180.000000        6.841639         2    ;  uncertainty k = 0.609761
        17        18        20        21     9        0.000000        0.216558         3    ;  uncertainty k = 0.238103
        17        18        20        21     9      180.000000        1.176370         4    ;  uncertainty k = 0.357681
        17        18        20        22     9        0.000000        0.529530         1    ;  uncertainty k = 0.670946
        17        18        20        22     9      180.000000        6.761303         2    ;  uncertainty k = 0.283571
        17        18        20        22     9        0.000000        1.100400         3    ;  uncertainty k = 0.299995
        17        18        20        22     9      180.000000        1.588834         4    ;  uncertainty k = 0.263845
        18        17        16        41     9        0.000000        0.022040         1    ;  uncertainty k = 0.329407
        18        17        16        41     9      180.000000        8.003128         2    ;  uncertainty k = 0.219508
        18        17        16        41     9        0.000000        1.360654         3    ;  uncertainty k = 0.321807
        18        17        16        41     9      180.000000        1.777550         4    ;  uncertainty k = 0.142628
        18        20        21        43     9        0.000000        0.221495         1    ;  uncertainty k = 0.232049
        18        20        21        43     9      180.000000        8.396551         2    ;  uncertainty k = 0.441879
        18        20        21        43     9        0.000000        1.451912         3    ;  uncertainty k = 0.307483
        18        20        21        43     9      180.000000        1.715393         4    ;  uncertainty k = 0.081530
        18        20        22        23     9        0.000000       -0.270385         1    ;  uncertainty k = 1.023327
        18        20        22        23     9      180.000000        2.714624         2    ;  uncertainty k = 0.278925
        18        20        22        23     9        0.000000        0.468797         3    ;  uncertainty k = 0.264544
        18        20        22        23     9      180.000000        0.134596         4    ;  uncertainty k = 0.182020
        18        20        22        24     9        0.000000       -0.581225         1    ;  uncertainty k = 1.193647
        18        20        22        24     9      180.000000        2.020535         2    ;  uncertainty k = 0.538625
        18        20        22        24     9        0.000000        0.711976         3    ;  uncertainty k = 0.351572
        18        20        22        24     9      180.000000        0.230637         4    ;  uncertainty k = 0.028540
        18        20        22        29     9        0.000000        1.319884         1    ;  uncertainty k = 1.095596
        18        20        22        29     9      180.000000        1.619465         2    ;  uncertainty k = 0.542713
        18        20        22        29     9        0.000000        0.197663         3    ;  uncertainty k = 0.237792
        18        20        22        29     9      180.000000        0.230876         4    ;  uncertainty k = 0.167412
        19        18        17        42     9        0.000000       -0.375838         1    ;  uncertainty k = 0.348166
        19        18        17        42     9      180.000000        9.433969         2    ;  uncertainty k = 0.324300
        19        18        17        42     9        0.000000        0.832173         3    ;  uncertainty k = 0.148084
        19        18        17        42     9      180.000000        1.086079         4    ;  uncertainty k = 0.147203
        19        18        20        21     9        0.000000        0.029067         1    ;  uncertainty k = 0.387136
        19        18        20        21     9      180.000000       11.081867         2    ;  uncertainty k = 0.414134
        19        18        20        21     9        0.000000        1.448956         3    ;  uncertainty k = 0.289331
        19        18        20        21     9      180.000000        1.443204         4    ;  uncertainty k = 0.268400
        19        18        20        22     9        0.000000       -0.039127         1    ;  uncertainty k = 0.351605
        19        18        20        22     9      180.000000       10.209285         2    ;  uncertainty k = 0.362915
        19        18        20        22     9        0.000000        1.038037         3    ;  uncertainty k = 0.292099
        19        18        20        22     9      180.000000        1.301282         4    ;  uncertainty k = 0.258186
        20        18        17        42     9        0.000000       -0.069057         1    ;  uncertainty k = 0.450100
        20        18        17        42     9      180.000000        5.546134         2    ;  uncertainty k = 0.735329
        20        18        17        42     9        0.000000        1.241184         3    ;  uncertainty k = 0.255558
        20        18        17        42     9      180.000000        1.477122         4    ;  uncertainty k = 0.130531
        20        22        23        44     9        0.000000        0.312533         1    ;  uncertainty k = 0.415968
        20        22        23        44     9      180.000000       -0.283059         2    ;  uncertainty k = 0.375910
        20        22        23        44     9        0.000000        0.850060         3    ;  uncertainty k = 0.138554
        20        22        23        44     9      180.000000       -0.051090         4    ;  uncertainty k = 0.096153
        20        22        23        45     9        0.000000        0.312533         1    ;  uncertainty k = 0.415968
        20        22        23        45     9      180.000000       -0.283059         2    ;  uncertainty k = 0.375910
        20        22        23        45     9        0.000000        0.850060         3    ;  uncertainty k = 0.138554
        20        22        23        45     9      180.000000       -0.051090         4    ;  uncertainty k = 0.096153
        20        22        23        46     9        0.000000        0.312533         1    ;  uncertainty k = 0.415968
        20        22        23        46     9      180.000000       -0.283059         2    ;  uncertainty k = 0.375910
        20        22        23        46     9        0.000000        0.850060         3    ;  uncertainty k = 0.138554
        20        22        23        46     9      180.000000       -0.051090         4    ;  uncertainty k = 0.096153
        20        22        24        25     9        0.000000       -0.248044         1    ;  uncertainty k = 0.817129
        20        22        24        25     9      180.000000        0.768093         2    ;  uncertainty k = 0.602809
        20        22        24        25     9        0.000000        0.633133         3    ;  uncertainty k = 0.162809
        20        22        24        25     9      180.000000        0.464893         4    ;  uncertainty k = 0.272490
        20        22        24        52     9        0.000000        3.518093         1    ;  uncertainty k = 1.426672
        20        22        24        52     9      180.000000       -0.310267         2    ;  uncertainty k = 0.933682
        20        22        24        52     9        0.000000        0.626499         3    ;  uncertainty k = 0.431949
        20        22        24        52     9      180.000000        0.048490         4    ;  uncertainty k = 0.083666
        20        22        29        27     9        0.000000       -3.053504         1    ;  uncertainty k = 3.028871
        20        22        29        27     9      180.000000        2.213091         2    ;  uncertainty k = 0.949129
        20        22        29        27     9        0.000000        1.022529         3    ;  uncertainty k = 0.564238
        20        22        29        27     9      180.000000        0.566968         4    ;  uncertainty k = 0.221433
        20        22        29        30     9        0.000000        0.454409         1    ;  uncertainty k = 0.923921
        20        22        29        30     9      180.000000        3.516645         2    ;  uncertainty k = 0.647923
        20        22        29        30     9        0.000000        0.531499         3    ;  uncertainty k = 0.122451
        20        22        29        30     9      180.000000        0.063681         4    ;  uncertainty k = 0.242501
        21        15        14        40     9        0.000000        0.831759         1    ;  uncertainty k = 1.309715
        21        15        14        40     9      180.000000        3.832921         2    ;  uncertainty k = 0.158146
        21        15        14        40     9        0.000000        0.647634         3    ;  uncertainty k = 0.141138
        21        15        14        40     9      180.000000        0.534269         4    ;  uncertainty k = 0.109700
        21        15        16        41     9        0.000000        0.175302         1    ;  uncertainty k = 0.362200
        21        15        16        41     9      180.000000        6.984279         2    ;  uncertainty k = 0.434911
        21        15        16        41     9        0.000000        1.168023         3    ;  uncertainty k = 0.377958
        21        15        16        41     9      180.000000        1.509532         4    ;  uncertainty k = 0.159808
        21        20        22        23     9        0.000000       -0.600551         1    ;  uncertainty k = 0.559556
        21        20        22        23     9      180.000000        2.552826         2    ;  uncertainty k = 0.521413
        21        20        22        23     9        0.000000       -0.047861         3    ;  uncertainty k = 0.482538
        21        20        22        23     9      180.000000        0.210648         4    ;  uncertainty k = 0.142425
        21        20        22        24     9        0.000000       -0.634670         1    ;  uncertainty k = 1.094882
        21        20        22        24     9      180.000000        2.387570         2    ;  uncertainty k = 0.385363
        21        20        22        24     9        0.000000        0.175403         3    ;  uncertainty k = 0.320043
        21        20        22        24     9      180.000000        0.298122         4    ;  uncertainty k = 0.195505
        21        20        22        29     9        0.000000        0.225427         1    ;  uncertainty k = 1.372669
        21        20        22        29     9      180.000000        1.206747         2    ;  uncertainty k = 0.401618
        21        20        22        29     9        0.000000        0.140616         3    ;  uncertainty k = 0.125438
        21        20        22        29     9      180.000000        0.247422         4    ;  uncertainty k = 0.165668
        22        20        21        43     9        0.000000       -0.317050         1    ;  uncertainty k = 0.256472
        22        20        21        43     9      180.000000        7.162709         2    ;  uncertainty k = 0.185587
        22        20        21        43     9        0.000000        0.661050         3    ;  uncertainty k = 0.408586
        22        20        21        43     9      180.000000        1.120966         4    ;  uncertainty k = 0.224736
        22        24        25        26     9        0.000000        2.227260         1    ;  uncertainty k = 1.724120
        22        24        25        26     9      180.000000       10.770478         2    ;  uncertainty k = 0.774386
        22        24        25        26     9        0.000000        0.476839         3    ;  uncertainty k = 0.373601
        22        24        25        26     9      180.000000       -0.460324         4    ;  uncertainty k = 0.653557
        22        24        25        27     9        0.000000        1.314212         1    ;  uncertainty k = 1.882880
        22        24        25        27     9      180.000000       15.739451         2    ;  uncertainty k = 0.336636
        22        24        25        27     9        0.000000       -0.011929         3    ;  uncertainty k = 0.898367
        22        24        25        27     9      180.000000       -0.496370         4    ;  uncertainty k = 0.163526
        22        29        27        25     9        0.000000        2.554011         1    ;  uncertainty k = 1.821209
        22        29        27        25     9      180.000000        3.629366         2    ;  uncertainty k = 0.899348
        22        29        27        25     9        0.000000       -0.189400         3    ;  uncertainty k = 0.795395
        22        29        27        25     9      180.000000        0.698047         4    ;  uncertainty k = 0.253108
        22        29        27        28     9        0.000000        4.733262         1    ;  uncertainty k = 2.801564
        22        29        27        28     9      180.000000        5.000444         2    ;  uncertainty k = 1.068532
        22        29        27        28     9        0.000000        1.224391         3    ;  uncertainty k = 0.696987
        22        29        27        28     9      180.000000        0.124532         4    ;  uncertainty k = 0.429473
        23        22        24        25     9        0.000000       -1.768280         1    ;  uncertainty k = 0.963691
        23        22        24        25     9      180.000000        1.030634         2    ;  uncertainty k = 0.384337
        23        22        24        25     9        0.000000        0.833219         3    ;  uncertainty k = 0.514849
        23        22        24        25     9      180.000000        0.378694         4    ;  uncertainty k = 0.089650
        23        22        24        52     9        0.000000        0.209465         1    ;  uncertainty k = 1.012081
        23        22        24        52     9      180.000000        0.290776         2    ;  uncertainty k = 0.940320
        23        22        24        52     9        0.000000        0.698587         3    ;  uncertainty k = 0.250034
        23        22        24        52     9      180.000000        0.252914         4    ;  uncertainty k = 0.088294
        23        22        29        27     9        0.000000       -5.459101         1    ;  uncertainty k = 2.138812
        23        22        29        27     9      180.000000        2.137991         2    ;  uncertainty k = 0.858661
        23        22        29        27     9        0.000000        0.907685         3    ;  uncertainty k = 0.303301
        23        22        29        27     9      180.000000        0.446968         4    ;  uncertainty k = 0.365483
        23        22        29        30     9        0.000000       -1.493551         1    ;  uncertainty k = 0.978835
        23        22        29        30     9      180.000000        4.121242         2    ;  uncertainty k = 0.869565
        23        22        29        30     9        0.000000        0.353920         3    ;  uncertainty k = 0.349664
        23        22        29        30     9      180.000000        0.066553         4    ;  uncertainty k = 0.313812
        24        22        23        44     9        0.000000       -1.524118         1    ;  uncertainty k = 0.630709
        24        22        23        44     9      180.000000       -0.626839         2    ;  uncertainty k = 0.513094
        24        22        23        44     9        0.000000        0.687103         3    ;  uncertainty k = 0.248160
        24        22        23        44     9      180.000000       -0.221289         4    ;  uncertainty k = 0.125238
        24        22        23        45     9        0.000000       -1.524118         1    ;  uncertainty k = 0.630709
        24        22        23        45     9      180.000000       -0.626839         2    ;  uncertainty k = 0.513094
        24        22        23        45     9        0.000000        0.687103         3    ;  uncertainty k = 0.248160
        24        22        23        45     9      180.000000       -0.221289         4    ;  uncertainty k = 0.125238
        24        22        23        46     9        0.000000       -1.524118         1    ;  uncertainty k = 0.630709
        24        22        23        46     9      180.000000       -0.626839         2    ;  uncertainty k = 0.513094
        24        22        23        46     9        0.000000        0.687103         3    ;  uncertainty k = 0.248160
        24        22        23        46     9      180.000000       -0.221289         4    ;  uncertainty k = 0.125238
        24        22        29        27     9        0.000000       -0.716640         1    ;  uncertainty k = 2.239440
        24        22        29        27     9      180.000000        6.682535         2    ;  uncertainty k = 1.018547
        24        22        29        27     9        0.000000        0.353968         3    ;  uncertainty k = 0.515552
        24        22        29        27     9      180.000000        0.283476         4    ;  uncertainty k = 0.660955
        24        22        29        30     9        0.000000       -0.761554         1    ;  uncertainty k = 1.974874
        24        22        29        30     9      180.000000        2.556744         2    ;  uncertainty k = 1.276159
        24        22        29        30     9        0.000000        0.300190         3    ;  uncertainty k = 0.529858
        24        22        29        30     9      180.000000        0.477792         4    ;  uncertainty k = 0.125630
        24        25        26        47     9        0.000000        5.951628         1    ;  uncertainty k = 1.240340
        24        25        26        47     9      180.000000       10.477432         2    ;  uncertainty k = 0.400264
        24        25        26        47     9        0.000000        1.450085         3    ;  uncertainty k = 0.445961
        24        25        26        47     9      180.000000       -0.757809         4    ;  uncertainty k = 0.301853
        24        25        26        48     9        0.000000        5.951628         1    ;  uncertainty k = 1.240340
        24        25        26        48     9      180.000000       10.477432         2    ;  uncertainty k = 0.400264
        24        25        26        48     9        0.000000        1.450085         3    ;  uncertainty k = 0.445961
        24        25        26        48     9      180.000000       -0.757809         4    ;  uncertainty k = 0.301853
        24        25        27        28     9        0.000000       -0.338911         1    ;  uncertainty k = 2.701744
        24        25        27        28     9      180.000000        8.123470         2    ;  uncertainty k = 0.482069
        24        25        27        28     9        0.000000        0.257255         3    ;  uncertainty k = 0.271535
        24        25        27        28     9      180.000000       -0.127051         4    ;  uncertainty k = 0.226060
        24        25        27        29     9        0.000000       -0.178390         1    ;  uncertainty k = 1.721906
        24        25        27        29     9      180.000000        8.395283         2    ;  uncertainty k = 0.771609
        24        25        27        29     9        0.000000       -1.230226         3    ;  uncertainty k = 1.159858
        24        25        27        29     9      180.000000        0.049642         4    ;  uncertainty k = 0.456621
        25        24        22        29     9        0.000000        1.696653         1    ;  uncertainty k = 1.411131
        25        24        22        29     9      180.000000        2.228596         2    ;  uncertainty k = 0.858420
        25        24        22        29     9        0.000000        0.065234         3    ;  uncertainty k = 0.524319
        25        24        22        29     9      180.000000        0.455620         4    ;  uncertainty k = 0.419668
        25        27        28        49     9        0.000000       -0.368054         1    ;  uncertainty k = 0.533391
        25        27        28        49     9      180.000000       -1.097989         2    ;  uncertainty k = 0.431740
        25        27        28        49     9        0.000000        0.444235         3    ;  uncertainty k = 0.203193
        25        27        28        49     9      180.000000        0.192960         4    ;  uncertainty k = 0.047618
        25        27        28        50     9        0.000000       -0.368054         1    ;  uncertainty k = 0.533391
        25        27        28        50     9      180.000000       -1.097989         2    ;  uncertainty k = 0.431740
        25        27        28        50     9        0.000000        0.444235         3    ;  uncertainty k = 0.203193
        25        27        28        50     9      180.000000        0.192960         4    ;  uncertainty k = 0.047618
        25        27        28        51     9        0.000000       -0.368054         1    ;  uncertainty k = 0.533391
        25        27        28        51     9      180.000000       -1.097989         2    ;  uncertainty k = 0.431740
        25        27        28        51     9        0.000000        0.444235         3    ;  uncertainty k = 0.203193
        25        27        28        51     9      180.000000        0.192960         4    ;  uncertainty k = 0.047618
        25        27        29        30     9        0.000000        0.214377         1    ;  uncertainty k = 2.739187
        25        27        29        30     9      180.000000        7.611615         2    ;  uncertainty k = 0.738631
        25        27        29        30     9        0.000000        0.467600         3    ;  uncertainty k = 0.535385
        25        27        29        30     9      180.000000        0.046274         4    ;  uncertainty k = 0.266784
        26        25        24        52     9        0.000000        2.319623         1    ;  uncertainty k = 2.365765
        26        25        24        52     9      180.000000        7.773358         2    ;  uncertainty k = 1.133746
        26        25        24        52     9        0.000000        0.972931         3    ;  uncertainty k = 0.175062
        26        25        24        52     9      180.000000       -0.266871         4    ;  uncertainty k = 0.299137
        26        25        27        28     9        0.000000        0.086518         1    ;  uncertainty k = 0.685014
        26        25        27        28     9      180.000000        6.805088         2    ;  uncertainty k = 0.686694
        26        25        27        28     9        0.000000        0.933095         3    ;  uncertainty k = 0.700945
        26        25        27        28     9      180.000000        0.013505         4    ;  uncertainty k = 0.290417
        26        25        27        29     9        0.000000       -0.553297         1    ;  uncertainty k = 0.797976
        26        25        27        29     9      180.000000        6.632879         2    ;  uncertainty k = 1.259058
        26        25        27        29     9        0.000000        0.178471         3    ;  uncertainty k = 0.699167
        26        25        27        29     9      180.000000       -0.061987         4    ;  uncertainty k = 0.488485
        27        25        24        52     9        0.000000        3.995460         1    ;  uncertainty k = 3.384332
        27        25        24        52     9      180.000000       10.839580         2    ;  uncertainty k = 0.576278
        27        25        24        52     9        0.000000        1.022269         3    ;  uncertainty k = 0.689619
        27        25        24        52     9      180.000000       -0.407477         4    ;  uncertainty k = 0.193785
        27        25        26        47     9        0.000000        7.489287         1    ;  uncertainty k = 2.005621
        27        25        26        47     9      180.000000        9.419121         2    ;  uncertainty k = 0.600949
        27        25        26        47     9        0.000000        1.014531         3    ;  uncertainty k = 0.497200
        27        25        26        47     9      180.000000       -0.959331         4    ;  uncertainty k = 0.218136
        27        25        26        48     9        0.000000        7.489287         1    ;  uncertainty k = 2.005621
        27        25        26        48     9      180.000000        9.419121         2    ;  uncertainty k = 0.600949
        27        25        26        48     9        0.000000        1.014531         3    ;  uncertainty k = 0.497200
        27        25        26        48     9      180.000000       -0.959331         4    ;  uncertainty k = 0.218136
        28        27        29        30     9        0.000000       -0.533505         1    ;  uncertainty k = 3.058787
        28        27        29        30     9      180.000000        8.205830         2    ;  uncertainty k = 0.416012
        28        27        29        30     9        0.000000        0.583843         3    ;  uncertainty k = 0.546658
        28        27        29        30     9      180.000000        0.202348         4    ;  uncertainty k = 0.240495
        29        22        23        44     9        0.000000        0.092899         1    ;  uncertainty k = 0.790800
        29        22        23        44     9      180.000000       -1.050457         2    ;  uncertainty k = 0.162594
        29        22        23        44     9        0.000000        0.547450         3    ;  uncertainty k = 0.120559
        29        22        23        44     9      180.000000       -0.069471         4    ;  uncertainty k = 0.055709
        29        22        23        45     9        0.000000        0.092899         1    ;  uncertainty k = 0.790800
        29        22        23        45     9      180.000000       -1.050457         2    ;  uncertainty k = 0.162594
        29        22        23        45     9        0.000000        0.547450         3    ;  uncertainty k = 0.120559
        29        22        23        45     9      180.000000       -0.069471         4    ;  uncertainty k = 0.055709
        29        22        23        46     9        0.000000        0.092899         1    ;  uncertainty k = 0.790800
        29        22        23        46     9      180.000000       -1.050457         2    ;  uncertainty k = 0.162594
        29        22        23        46     9        0.000000        0.547450         3    ;  uncertainty k = 0.120559
        29        22        23        46     9      180.000000       -0.069471         4    ;  uncertainty k = 0.055709
        29        22        24        52     9        0.000000        0.206412         1    ;  uncertainty k = 3.025551
        29        22        24        52     9      180.000000       -0.074299         2    ;  uncertainty k = 1.701070
        29        22        24        52     9        0.000000        0.277420         3    ;  uncertainty k = 0.502576
        29        22        24        52     9      180.000000       -0.010881         4    ;  uncertainty k = 0.140361
        29        27        28        49     9        0.000000        0.251548         1    ;  uncertainty k = 0.450728
        29        27        28        49     9      180.000000        0.075788         2    ;  uncertainty k = 0.251866
        29        27        28        49     9        0.000000        0.376576         3    ;  uncertainty k = 0.212575
        29        27        28        49     9      180.000000        0.307932         4    ;  uncertainty k = 0.079961
        29        27        28        50     9        0.000000        0.251548         1    ;  uncertainty k = 0.450728
        29        27        28        50     9      180.000000        0.075788         2    ;  uncertainty k = 0.251866
        29        27        28        50     9        0.000000        0.376576         3    ;  uncertainty k = 0.212575
        29        27        28        50     9      180.000000        0.307932         4    ;  uncertainty k = 0.079961
        29        27        28        51     9        0.000000        0.251548         1    ;  uncertainty k = 0.450728
        29        27        28        51     9      180.000000        0.075788         2    ;  uncertainty k = 0.251866
        29        27        28        51     9        0.000000        0.376576         3    ;  uncertainty k = 0.212575
        29        27        28        51     9      180.000000        0.307932         4    ;  uncertainty k = 0.079961
        34         3         4        36     9        0.000000        0.020652         1    ;  uncertainty k = 0.277203
        34         3         4        36     9      180.000000       -0.393086         2    ;  uncertainty k = 0.097527
        34         3         4        36     9        0.000000        0.252991         3    ;  uncertainty k = 0.022278
        34         3         4        36     9      180.000000        0.061623         4    ;  uncertainty k = 0.108174
        34         3         4        37     9        0.000000        0.020652         1    ;  uncertainty k = 0.277203
        34         3         4        37     9      180.000000       -0.393086         2    ;  uncertainty k = 0.097527
        34         3         4        37     9        0.000000        0.252991         3    ;  uncertainty k = 0.022278
        34         3         4        37     9      180.000000        0.061623         4    ;  uncertainty k = 0.108174
        35         3         4        36     9        0.000000        0.020652         1    ;  uncertainty k = 0.277203
        35         3         4        36     9      180.000000       -0.393086         2    ;  uncertainty k = 0.097527
        35         3         4        36     9        0.000000        0.252991         3    ;  uncertainty k = 0.022278
        35         3         4        36     9      180.000000        0.061623         4    ;  uncertainty k = 0.108174
        35         3         4        37     9        0.000000        0.020652         1    ;  uncertainty k = 0.277203
        35         3         4        37     9      180.000000       -0.393086         2    ;  uncertainty k = 0.097527
        35         3         4        37     9        0.000000        0.252991         3    ;  uncertainty k = 0.022278
        35         3         4        37     9      180.000000        0.061623         4    ;  uncertainty k = 0.108174
        41        16        17        42     9        0.000000       -0.150186         1    ;  uncertainty k = 0.338565
        41        16        17        42     9      180.000000        8.242439         2    ;  uncertainty k = 0.374970
        41        16        17        42     9        0.000000       -0.410027         3    ;  uncertainty k = 0.246833
        41        16        17        42     9      180.000000        0.145292         4    ;  uncertainty k = 0.230993

[ dihedrals ] ; impropers
;       ai        aj        ak        al funct           phase               k        pn
         6         5         7        11     4      180.000000       30.118177         2    ;  uncertainty k = 0.040120
         6         7        11         5     4      180.000000       30.118177         2    ;  uncertainty k = 0.040120
         6        11         5         7     4      180.000000       30.118177         2    ;  uncertainty k = 0.040120
         7         6         8        38     4      180.000000        9.717862         2    ;  uncertainty k = 0.161684
         7         8        38         6     4      180.000000        9.717862         2    ;  uncertainty k = 0.161684
         7        38         6         8     4      180.000000        9.717862         2    ;  uncertainty k = 0.161684
         9         8        10        12     4      180.000000       12.529771         2    ;  uncertainty k = 0.275801
         9        10        12         8     4      180.000000       12.529771         2    ;  uncertainty k = 0.275801
         9        12         8        10     4      180.000000       12.529771         2    ;  uncertainty k = 0.275801
        10         9        11        39     4      180.000000       13.936810         2    ;  uncertainty k = 0.045567
        10        11        39         9     4      180.000000       13.936810         2    ;  uncertainty k = 0.045567
        10        39         9        11     4      180.000000       13.936810         2    ;  uncertainty k = 0.045567
        12         9        13        14     4      180.000000       49.290861         2    ;  uncertainty k = 0.035669
        12        13        14         9     4      180.000000       49.290861         2    ;  uncertainty k = 0.035669
        12        14         9        13     4      180.000000       49.290861         2    ;  uncertainty k = 0.035669
        14        12        15        40     4      180.000000        0.933225         2    ;  uncertainty k = 0.761947
        14        15        40        12     4      180.000000        0.933225         2    ;  uncertainty k = 0.761947
        14        40        12        15     4      180.000000        0.933225         2    ;  uncertainty k = 0.761947
        15        14        16        21     4      180.000000       16.837442         2    ;  uncertainty k = 0.135360
        15        16        21        14     4      180.000000       16.837442         2    ;  uncertainty k = 0.135360
        15        21        14        16     4      180.000000       16.837442         2    ;  uncertainty k = 0.135360
        16        15        17        41     4      180.000000        3.756058         2    ;  uncertainty k = 0.236003
        16        17        41        15     4      180.000000        3.756058         2    ;  uncertainty k = 0.236003
        16        41        15        17     4      180.000000        3.756058         2    ;  uncertainty k = 0.236003
        17        16        18        42     4      180.000000        1.836899         2    ;  uncertainty k = 0.395257
        17        18        42        16     4      180.000000        1.836899         2    ;  uncertainty k = 0.395257
        17        42        16        18     4      180.000000        1.836899         2    ;  uncertainty k = 0.395257
        18        17        19        20     4      180.000000       14.878614         2    ;  uncertainty k = 0.156272
        18        19        20        17     4      180.000000       14.878614         2    ;  uncertainty k = 0.156272
        18        20        17        19     4      180.000000       14.878614         2    ;  uncertainty k = 0.156272
        20        18        21        22     4      180.000000        8.516788         2    ;  uncertainty k = 0.273710
        20        21        22        18     4      180.000000        8.516788         2    ;  uncertainty k = 0.273710
        20        22        18        21     4      180.000000        8.516788         2    ;  uncertainty k = 0.273710
        21        15        20        43     4      180.000000        3.957612         2    ;  uncertainty k = 0.395699
        21        20        43        15     4      180.000000        3.957612         2    ;  uncertainty k = 0.395699
        21        43        15        20     4      180.000000        3.957612         2    ;  uncertainty k = 0.395699
        25        24        26        27     4      180.000000       30.541077         2    ;  uncertainty k = 0.134872
        25        26        27        24     4      180.000000       30.541077         2    ;  uncertainty k = 0.134872
        25        27        24        26     4      180.000000       30.541077         2    ;  uncertainty k = 0.134872
        27        25        28        29     4      180.000000        2.050788         2    ;  uncertainty k = 0.595493
        27        28        29        25     4      180.000000        2.050788         2    ;  uncertainty k = 0.595493
        27        29        25        28     4      180.000000        2.050788         2    ;  uncertainty k = 0.595493
        29        22        27        30     4      180.000000       50.608837         2    ;  uncertainty k = 0.038350
        29        27        30        22     4      180.000000       50.608837         2    ;  uncertainty k = 0.038350
        29        30        22        27     4      180.000000       50.608837         2    ;  uncertainty k = 0.038350

[ pairs ]
;       ai        aj funct
         1         4     1
         1        34     1
         1        35     1
         2         5     1
         2        36     1
         2        37     1
         3         6     1
         3        31     1
         3        32     1
         3        33     1
         4         7     1
         4        11     1
         5         8     1
         5        10     1
         5        34     1
         5        35     1
         5        38     1
         6         9     1
         6        36     1
         6        37     1
         6        39     1
         7        10     1
         7        12     1
         8        11     1
         8        13     1
         8        14     1
         8        39     1
         9        15     1
         9        38     1
         9        40     1
        10        13     1
        10        14     1
        11        12     1
        11        38     1
        12        16     1
        12        21     1
        12        39     1
        13        15     1
        13        40     1
        14        17     1
        14        20     1
        14        41     1
        14        43     1
        15        18     1
        15        22     1
        15        42     1
        16        19     1
        16        20     1
        16        40     1
        16        43     1
        17        21     1
        17        22     1
        18        23     1
        18        24     1
        18        29     1
        18        41     1
        18        43     1
        19        21     1
        19        22     1
        19        42     1
        20        25     1
        20        27     1
        20        30     1
        20        42     1
        20        44     1
        20        45     1
        20        46     1
        20        52     1
        21        23     1
        21        24     1
        21        29     1
        21        40     1
        21        41     1
        22        26     1
        22        28     1
        22        43     1
        23        25     1
        23        27     1
        23        30     1
        23        52     1
        24        28     1
        24        30     1
        24        44     1
        24        45     1
        24        46     1
        24        47     1
        24        48     1
        25        30     1
        25        49     1
        25        50     1
        25        51     1
        26        28     1
        26        29     1
        26        52     1
        27        47     1
        27        48     1
        27        52     1
        28        30     1
        29        44     1
        29        45     1
        29        46     1
        29        49     1
        29        50     1
        29        51     1
        29        52     1
        34        36     1
        34        37     1
        35        36     1
        35        37     1
        41        42     1
