clashed crystal waters from fragments/frag_liga_auto
6
  159SOL     OW  475   2.912   1.537   0.914
  159SOL    HW1  476   2.876   1.624   0.879
  159SOL    HW2  477   2.901   1.535   1.014
  161SOL     OW  481   2.913   1.811   1.455
  161SOL    HW1  482   2.914   1.888   1.392
  161SOL    HW2  483   2.844   1.826   1.525
    6.2011    6.2011    6.2011
