Generated by PDBParser
894
    1SOL     OW    1  -0.737   1.328   4.069
    1SOL    HW1    2  -0.706   1.377   3.987
    1SOL    HW2    3  -0.660   1.315   4.131
    2SOL     OW    4  -1.041   1.468   4.545
    2SOL    HW1    5  -1.102   1.390   4.562
    2SOL    HW2    6  -1.079   1.550   4.589
    3SOL     OW    7  -0.889   1.983   4.542
    3SOL    HW1    8  -0.951   2.059   4.563
    3SOL    HW2    9  -0.802   1.997   4.590
    4SOL     OW   10  -0.614   2.018   4.644
    4SOL    HW1   11  -0.566   2.034   4.558
    4SOL    HW2   12  -0.551   2.034   4.720
    5SOL     OW   13  -0.370   2.329   4.297
    5SOL    HW1   14  -0.417   2.247   4.329
    5SOL    HW2   15  -0.436   2.388   4.250
    6SOL     OW   16  -0.649   2.125   3.822
    6SOL    HW1   17  -0.634   2.172   3.909
    6SOL    HW2   18  -0.734   2.159   3.780
    7SOL     OW   19  -1.003   2.355   4.060
    7SOL    HW1   20  -0.910   2.366   4.095
    7SOL    HW2   21  -1.066   2.346   4.137
    8SOL     OW   22  -0.019   1.958   4.613
    8SOL    HW1   23  -0.059   2.029   4.555
    8SOL    HW2   24  -0.061   1.961   4.704
    9SOL     OW   25  -0.130   2.201   4.462
    9SOL    HW1   26  -0.211   2.234   4.413
    9SOL    HW2   27  -0.103   2.267   4.531
   10SOL     OW   28  -0.085   2.142   3.593
   10SOL    HW1   29  -0.025   2.219   3.570
   10SOL    HW2   30  -0.058   2.106   3.682
   11SOL     OW   31  -0.282   2.645   3.972
   11SOL    HW1   32  -0.318   2.553   3.952
   11SOL    HW2   33  -0.358   2.710   3.974
   12SOL     OW   34   0.282   2.709   4.033
   12SOL    HW1   35   0.277   2.625   4.088
   12SOL    HW2   36   0.195   2.721   3.984
   13SOL     OW   37   1.022   2.582   3.188
   13SOL    HW1   38   0.932   2.564   3.228
   13SOL    HW2   39   1.085   2.610   3.260
   14SOL     OW   40   0.973   2.744   4.034
   14SOL    HW1   41   0.878   2.766   4.013
   14SOL    HW2   42   0.980   2.715   4.129
   15SOL     OW   43   1.018   2.095   4.779
   15SOL    HW1   44   1.015   2.157   4.858
   15SOL    HW2   45   1.101   2.111   4.727
   16SOL     OW   46   1.439   2.248   2.761
   16SOL    HW1   47   1.515   2.189   2.736
   16SOL    HW2   48   1.461   2.343   2.736
   17SOL     OW   49   1.163   2.323   2.937
   17SOL    HW1   50   1.186   2.367   2.850
   17SOL    HW2   51   1.246   2.292   2.982
   18SOL     OW   52   1.084   2.406   4.628
   18SOL    HW1   53   1.004   2.435   4.576
   18SOL    HW2   54   1.106   2.475   4.697
   19SOL     OW   55  -0.002   2.736   3.899
   19SOL    HW1   56  -0.004   2.836   3.895
   19SOL    HW2   57  -0.090   2.701   3.932
   20SOL     OW   58   2.613   1.631   3.076
   20SOL    HW1   59   2.594   1.677   3.162
   20SOL    HW2   60   2.708   1.646   3.050
   21SOL     OW   61   3.002   2.018   2.729
   21SOL    HW1   62   3.008   1.919   2.748
   21SOL    HW2   63   2.912   2.052   2.757
   22SOL     OW   64   0.388   2.098   3.043
   22SOL    HW1   65   0.362   2.025   3.107
   22SOL    HW2   66   0.414   2.057   2.955
   23SOL     OW   67   0.509   2.333   3.213
   23SOL    HW1   68   0.482   2.267   3.142
   23SOL    HW2   69   0.464   2.308   3.299
   24SOL     OW   70   0.722   2.089   3.148
   24SOL    HW1   71   0.643   2.085   3.210
   24SOL    HW2   72   0.718   2.011   3.085
   25SOL     OW   73   0.280   1.624   3.595
   25SOL    HW1   74   0.200   1.627   3.535
   25SOL    HW2   75   0.335   1.543   3.571
   26SOL     OW   76   0.769   2.475   3.308
   26SOL    HW1   77   0.683   2.435   3.274
   26SOL    HW2   78   0.749   2.532   3.389
   27SOL     OW   79   1.213   2.657   3.421
   27SOL    HW1   80   1.206   2.598   3.502
   27SOL    HW2   81   1.205   2.753   3.449
   28SOL     OW   82   1.198   2.783   3.829
   28SOL    HW1   83   1.126   2.769   3.898
   28SOL    HW2   84   1.287   2.760   3.869
   29SOL     OW   85   0.670   2.796   3.994
   29SOL    HW1   86   0.674   2.788   3.894
   29SOL    HW2   87   0.574   2.795   4.023
   30SOL     OW   88   2.131   1.121   4.709
   30SOL    HW1   89   2.054   1.092   4.651
   30SOL    HW2   90   2.217   1.094   4.665
   31SOL     OW   91   1.672   0.848   4.667
   31SOL    HW1   92   1.593   0.902   4.639
   31SOL    HW2   93   1.756   0.896   4.642
   32SOL     OW   94   1.220   1.106   4.755
   32SOL    HW1   95   1.134   1.156   4.740
   32SOL    HW2   96   1.266   1.142   4.836
   33SOL     OW   97   1.347   1.798   3.382
   33SOL    HW1   98   1.339   1.893   3.413
   33SOL    HW2   99   1.319   1.791   3.287
   34SOL     OW  100   1.433   2.237   3.055
   34SOL    HW1  101   1.472   2.295   3.126
   34SOL    HW2  102   1.461   2.269   2.965
   35SOL     OW  103   1.043   1.927   3.003
   35SOL    HW1  104   0.946   1.910   2.984
   35SOL    HW2  105   1.051   1.985   3.085
   36SOL     OW  106   0.758   0.826   3.452
   36SOL    HW1  107   0.665   0.862   3.443
   36SOL    HW2  108   0.796   0.807   3.361
   37SOL     OW  109   0.854   0.587   3.598
   37SOL    HW1  110   0.832   0.677   3.560
   37SOL    HW2  111   0.771   0.547   3.639
   38SOL     OW  112   1.777   2.740   4.272
   38SOL    HW1  113   1.857   2.703   4.224
   38SOL    HW2  114   1.727   2.664   4.315
   39SOL     OW  115   2.092   1.909   3.962
   39SOL    HW1  116   2.123   1.966   4.038
   39SOL    HW2  117   2.139   1.820   3.965
   40SOL     OW  118   1.362   2.303   4.524
   40SOL    HW1  119   1.273   2.336   4.555
   40SOL    HW2  120   1.380   2.212   4.562
   41SOL     OW  121   1.518   1.962   3.009
   41SOL    HW1  122   1.495   2.058   3.024
   41SOL    HW2  123   1.590   1.934   3.073
   42SOL     OW  124  -0.230   1.763   2.865
   42SOL    HW1  125  -0.217   1.777   2.963
   42SOL    HW2  126  -0.292   1.686   2.850
   43SOL     OW  127   0.039   1.937   2.454
   43SOL    HW1  128  -0.021   1.980   2.522
   43SOL    HW2  129   0.063   2.004   2.383
   44SOL     OW  130  -0.129   2.009   2.696
   44SOL    HW1  131  -0.174   1.936   2.749
   44SOL    HW2  132  -0.131   2.094   2.749
   45SOL     OW  133   0.901   2.524   2.899
   45SOL    HW1  134   0.951   2.545   2.984
   45SOL    HW2  135   0.881   2.426   2.895
   46SOL     OW  136   1.704   2.932   2.674
   46SOL    HW1  137   1.744   2.961   2.586
   46SOL    HW2  138   1.778   2.913   2.739
   47SOL     OW  139   1.968   2.700   2.533
   47SOL    HW1  140   2.009   2.639   2.465
   47SOL    HW2  141   1.941   2.785   2.489
   48SOL     OW  142   2.052   2.232   3.958
   48SOL    HW1  143   2.040   2.158   3.891
   48SOL    HW2  144   2.024   2.319   3.918
   49SOL     OW  145   0.454   0.331   2.070
   49SOL    HW1  146   0.395   0.402   2.109
   49SOL    HW2  147   0.532   0.375   2.024
   50SOL     OW  148   2.408   1.689   2.869
   50SOL    HW1  149   2.401   1.789   2.873
   50SOL    HW2  150   2.478   1.658   2.933
   51SOL     OW  151   2.636   2.106   2.775
   51SOL    HW1  152   2.596   2.198   2.777
   51SOL    HW2  153   2.593   2.049   2.844
   52SOL     OW  154   1.937   1.345   3.683
   52SOL    HW1  155   1.998   1.361   3.605
   52SOL    HW2  156   1.985   1.293   3.753
   53SOL     OW  157   0.780   1.219   0.310
   53SOL    HW1  158   0.740   1.280   0.241
   53SOL    HW2  159   0.842   1.155   0.265
   54SOL     OW  160   1.961   2.177   0.412
   54SOL    HW1  161   1.961   2.265   0.460
   54SOL    HW2  162   2.052   2.160   0.373
   55SOL     OW  163   2.763   1.256   0.542
   55SOL    HW1  164   2.706   1.267   0.623
   55SOL    HW2  165   2.785   1.159   0.530
   56SOL     OW  166   3.715   1.335   0.061
   56SOL    HW1  167   3.801   1.291   0.035
   56SOL    HW2  168   3.683   1.298   0.148
   57SOL     OW  169   2.245   2.769   4.496
   57SOL    HW1  170   2.208   2.683   4.461
   57SOL    HW2  171   2.237   2.771   4.595
   58SOL     OW  172   2.345   1.478   4.563
   58SOL    HW1  173   2.342   1.478   4.663
   58SOL    HW2  174   2.417   1.417   4.531
   59SOL     OW  175   1.677   1.183   4.661
   59SOL    HW1  176   1.672   1.282   4.650
   59SOL    HW2  177   1.591   1.142   4.631
   60SOL     OW  178   1.409   1.397   3.479
   60SOL    HW1  179   1.463   1.480   3.492
   60SOL    HW2  180   1.319   1.421   3.441
   61SOL     OW  181   1.441   0.896   4.290
   61SOL    HW1  182   1.444   0.971   4.224
   61SOL    HW2  183   1.519   0.835   4.273
   62SOL     OW  184   2.017   1.115   3.925
   62SOL    HW1  185   1.930   1.145   3.966
   62SOL    HW2  186   2.083   1.096   3.998
   63SOL     OW  187   1.906   1.049   4.525
   63SOL    HW1  188   1.830   1.101   4.565
   63SOL    HW2  189   1.908   1.065   4.426
   64SOL     OW  190   2.767   2.136   1.681
   64SOL    HW1  191   2.861   2.153   1.711
   64SOL    HW2  192   2.752   2.037   1.671
   65SOL     OW  193   1.443   1.027   4.565
   65SOL    HW1  194   1.422   0.987   4.475
   65SOL    HW2  195   1.357   1.042   4.615
   66SOL     OW  196   0.968   1.258   4.692
   66SOL    HW1  197   1.004   1.299   4.608
   66SOL    HW2  198   0.873   1.232   4.678
   67SOL     OW  199   0.946   1.575   4.763
   67SOL    HW1  200   0.891   1.617   4.690
   67SOL    HW2  201   0.949   1.476   4.749
   68SOL     OW  202   0.918   1.752   5.105
   68SOL    HW1  203   0.838   1.738   5.046
   68SOL    HW2  204   0.890   1.749   5.201
   69SOL     OW  205   0.753   0.769   4.226
   69SOL    HW1  206   0.837   0.743   4.177
   69SOL    HW2  207   0.760   0.864   4.256
   70SOL     OW  208   1.155   0.812   4.811
   70SOL    HW1  209   1.097   0.784   4.734
   70SOL    HW2  210   1.186   0.906   4.796
   71SOL     OW  211   1.011   0.691   4.078
   71SOL    HW1  212   0.983   0.596   4.062
   71SOL    HW2  213   1.042   0.732   3.992
   72SOL     OW  214   0.715   0.645   4.748
   72SOL    HW1  215   0.782   0.688   4.687
   72SOL    HW2  216   0.743   0.550   4.766
   73SOL     OW  217   0.696   1.706   4.906
   73SOL    HW1  218   0.763   1.659   4.848
   73SOL    HW2  219   0.620   1.739   4.849
   74SOL     OW  220   0.290   1.613   4.657
   74SOL    HW1  221   0.379   1.654   4.638
   74SOL    HW2  222   0.219   1.664   4.609
   75SOL     OW  223   0.419   0.814   3.637
   75SOL    HW1  224   0.449   0.874   3.562
   75SOL    HW2  225   0.422   0.866   3.723
   76SOL     OW  226  -0.074   0.620   3.575
   76SOL    HW1  227  -0.123   0.639   3.660
   76SOL    HW2  228   0.022   0.601   3.596
   77SOL     OW  229   0.390   1.269   3.164
   77SOL    HW1  230   0.385   1.259   3.264
   77SOL    HW2  231   0.462   1.209   3.129
   78SOL     OW  232   0.493   0.940   3.366
   78SOL    HW1  233   0.522   0.949   3.270
   78SOL    HW2  234   0.457   1.028   3.397
   79SOL     OW  235   0.564   0.547   3.686
   79SOL    HW1  236   0.554   0.526   3.784
   79SOL    HW2  237   0.522   0.636   3.667
   80SOL     OW  238  -0.705   0.998   4.147
   80SOL    HW1  239  -0.610   0.971   4.134
   80SOL    HW2  240  -0.709   1.080   4.205
   81SOL     OW  241   0.054   1.202   4.479
   81SOL    HW1  242   0.025   1.107   4.489
   81SOL    HW2  243   0.084   1.238   4.567
   82SOL     OW  244  -0.252   1.087   4.643
   82SOL    HW1  245  -0.176   1.034   4.603
   82SOL    HW2  246  -0.288   1.038   4.722
   83SOL     OW  247   0.246   0.535   4.401
   83SOL    HW1  248   0.187   0.614   4.420
   83SOL    HW2  249   0.273   0.536   4.305
   84SOL     OW  250  -0.224   1.779   3.176
   84SOL    HW1  251  -0.166   1.830   3.239
   84SOL    HW2  252  -0.282   1.716   3.227
   85SOL     OW  253  -0.337   1.463   3.048
   85SOL    HW1  254  -0.374   1.499   3.134
   85SOL    HW2  255  -0.237   1.474   3.048
   86SOL     OW  256  -0.752   1.071   3.844
   86SOL    HW1  257  -0.747   1.075   3.944
   86SOL    HW2  258  -0.697   1.144   3.804
   87SOL     OW  259   1.424   2.603   3.199
   87SOL    HW1  260   1.469   2.524   3.241
   87SOL    HW2  261   1.350   2.635   3.259
   88SOL     OW  262  -0.050   1.915   3.381
   88SOL    HW1  263   0.031   1.863   3.409
   88SOL    HW2  264  -0.061   1.995   3.441
   89SOL     OW  265   0.229   0.605   3.549
   89SOL    HW1  266   0.288   0.678   3.584
   89SOL    HW2  267   0.274   0.517   3.564
   90SOL     OW  268   0.706   2.919   0.759
   90SOL    HW1  269   0.729   2.995   0.820
   90SOL    HW2  270   0.789   2.877   0.725
   91SOL     OW  271   0.427   1.178   2.832
   91SOL    HW1  272   0.420   1.270   2.871
   91SOL    HW2  273   0.336   1.135   2.833
   92SOL     OW  274   0.021   1.719   2.675
   92SOL    HW1  275  -0.060   1.735   2.730
   92SOL    HW2  276   0.025   1.786   2.600
   93SOL     OW  277   0.620   1.240   2.553
   93SOL    HW1  278   0.641   1.336   2.573
   93SOL    HW2  279   0.573   1.199   2.631
   94SOL     OW  280   0.843   1.560   2.380
   94SOL    HW1  281   0.783   1.552   2.460
   94SOL    HW2  282   0.799   1.618   2.311
   95SOL     OW  283   0.356   2.298   2.776
   95SOL    HW1  284   0.305   2.273   2.859
   95SOL    HW2  285   0.437   2.239   2.769
   96SOL     OW  286   0.817   2.237   2.897
   96SOL    HW1  287   0.743   2.205   2.837
   96SOL    HW2  288   0.800   2.203   2.990
   97SOL     OW  289   0.775   0.830   3.137
   97SOL    HW1  290   0.831   0.906   3.171
   97SOL    HW2  291   0.836   0.756   3.106
   98SOL     OW  292   0.582   1.053   3.073
   98SOL    HW1  293   0.557   1.073   2.979
   98SOL    HW2  294   0.647   0.976   3.075
   99SOL     OW  295   0.895   0.875   2.821
   99SOL    HW1  296   0.972   0.929   2.855
   99SOL    HW2  297   0.911   0.849   2.726
  100SOL     OW  298   1.781   1.057   3.117
  100SOL    HW1  299   1.846   0.981   3.110
  100SOL    HW2  300   1.756   1.087   3.025
  101SOL     OW  301   1.289   1.803   3.100
  101SOL    HW1  302   1.356   1.875   3.079
  101SOL    HW2  303   1.199   1.830   3.063
  102SOL     OW  304   1.226   2.037   2.781
  102SOL    HW1  305   1.279   2.122   2.791
  102SOL    HW2  306   1.163   2.028   2.859
  103SOL     OW  307   1.534   0.466   3.352
  103SOL    HW1  308   1.454   0.517   3.320
  103SOL    HW2  309   1.580   0.424   3.273
  104SOL     OW  310   0.862   0.466   3.312
  104SOL    HW1  311   0.917   0.524   3.251
  104SOL    HW2  312   0.872   0.497   3.406
  105SOL     OW  313   0.853   0.603   2.590
  105SOL    HW1  314   0.908   0.683   2.565
  105SOL    HW2  315   0.866   0.532   2.521
  106SOL     OW  316   1.037   0.213   2.566
  106SOL    HW1  317   0.976   0.255   2.500
  106SOL    HW2  318   0.990   0.204   2.654
  107SOL     OW  319   0.500   0.547   2.886
  107SOL    HW1  320   0.484   0.618   2.818
  107SOL    HW2  321   0.516   0.589   2.975
  108SOL     OW  322   2.821   0.142   1.343
  108SOL    HW1  323   2.874   0.146   1.258
  108SOL    HW2  324   2.779   0.052   1.353
  109SOL     OW  325   0.323   0.118   2.480
  109SOL    HW1  326   0.416   0.095   2.510
  109SOL    HW2  327   0.267   0.138   2.559
  110SOL     OW  328   0.516   0.062   2.181
  110SOL    HW1  329   0.487   0.145   2.132
  110SOL    HW2  330   0.443   0.032   2.242
  111SOL     OW  331   0.927  -0.103   1.810
  111SOL    HW1  332   0.926  -0.146   1.901
  111SOL    HW2  333   0.991  -0.026   1.810
  112SOL     OW  334   0.704  -0.278   1.710
  112SOL    HW1  335   0.785  -0.223   1.730
  112SOL    HW2  336   0.629  -0.249   1.769
  113SOL     OW  337   1.231   0.313   2.286
  113SOL    HW1  338   1.326   0.346   2.286
  113SOL    HW2  339   1.229   0.216   2.312
  114SOL     OW  340   0.900   0.584   1.702
  114SOL    HW1  341   0.893   0.610   1.799
  114SOL    HW2  342   0.944   0.659   1.651
  115SOL     OW  343   0.672   0.608   1.331
  115SOL    HW1  344   0.748   0.670   1.353
  115SOL    HW2  345   0.700   0.513   1.345
  116SOL     OW  346   1.526   0.017   1.070
  116SOL    HW1  347   1.579  -0.017   1.148
  116SOL    HW2  348   1.443   0.061   1.103
  117SOL     OW  349   0.461   0.177   1.110
  117SOL    HW1  350   0.529   0.240   1.149
  117SOL    HW2  351   0.373   0.190   1.155
  118SOL     OW  352   0.626   0.616   1.035
  118SOL    HW1  353   0.641   0.603   1.133
  118SOL    HW2  354   0.583   0.705   1.020
  119SOL     OW  355   0.646   0.128   0.863
  119SOL    HW1  356   0.595   0.145   0.948
  119SOL    HW2  357   0.582   0.103   0.790
  120SOL     OW  358   0.935   0.148   0.774
  120SOL    HW1  359   0.841   0.149   0.809
  120SOL    HW2  360   0.938   0.092   0.691
  121SOL     OW  361   1.879   0.065   0.859
  121SOL    HW1  362   1.874   0.107   0.950
  121SOL    HW2  363   1.975   0.054   0.833
  122SOL     OW  364   0.815   1.214   0.619
  122SOL    HW1  365   0.804   1.251   0.527
  122SOL    HW2  366   0.896   1.253   0.662
  123SOL     OW  367   0.830   0.933   0.515
  123SOL    HW1  368   0.829   0.939   0.415
  123SOL    HW2  369   0.802   1.022   0.554
  124SOL     OW  370   0.922   1.422   0.864
  124SOL    HW1  371   0.961   1.499   0.813
  124SOL    HW2  372   0.987   1.392   0.934
  125SOL     OW  373   1.247   1.285   0.065
  125SOL    HW1  374   1.308   1.337   0.126
  125SOL    HW2  375   1.245   1.189   0.093
  126SOL     OW  376   1.481   3.143   0.366
  126SOL    HW1  377   1.527   3.062   0.402
  126SOL    HW2  378   1.486   3.217   0.433
  127SOL     OW  379   1.420   1.410   0.280
  127SOL    HW1  380   1.350   1.456   0.335
  127SOL    HW2  381   1.465   1.341   0.336
  128SOL     OW  382   1.021   2.163   0.949
  128SOL    HW1  383   1.019   2.064   0.931
  128SOL    HW2  384   0.946   2.186   1.012
  129SOL     OW  385   1.145   2.168   0.507
  129SOL    HW1  386   1.072   2.236   0.506
  129SOL    HW2  387   1.121   2.093   0.444
  130SOL     OW  388   1.912   1.959   0.136
  130SOL    HW1  389   1.916   1.907   0.222
  130SOL    HW2  390   1.892   2.055   0.156
  131SOL     OW  391   2.154   1.429   0.149
  131SOL    HW1  392   2.128   1.337   0.121
  131SOL    HW2  393   2.133   1.441   0.246
  132SOL     OW  394   2.194   1.711   0.060
  132SOL    HW1  395   2.107   1.756   0.042
  132SOL    HW2  396   2.177   1.615   0.082
  133SOL     OW  397   1.496   3.314   1.995
  133SOL    HW1  398   1.435   3.305   2.074
  133SOL    HW2  399   1.543   3.227   1.979
  134SOL     OW  400   2.170   1.982   0.701
  134SOL    HW1  401   2.239   1.926   0.747
  134SOL    HW2  402   2.192   2.079   0.713
  135SOL     OW  403   2.479   1.810   0.060
  135SOL    HW1  404   2.382   1.786   0.051
  135SOL    HW2  405   2.532   1.760  -0.009
  136SOL     OW  406   2.940   1.487   0.615
  136SOL    HW1  407   2.938   1.494   0.715
  136SOL    HW2  408   2.891   1.405   0.586
  137SOL     OW  409   3.147   2.046   0.156
  137SOL    HW1  410   3.087   2.098   0.095
  137SOL    HW2  411   3.205   2.110   0.207
  138SOL     OW  412   3.562   1.560  -0.060
  138SOL    HW1  413   3.615   1.485  -0.020
  138SOL    HW2  414   3.576   1.561  -0.159
  139SOL     OW  415   3.636   1.870  -0.025
  139SOL    HW1  416   3.712   1.860   0.040
  139SOL    HW2  417   3.607   1.780  -0.057
  140SOL     OW  418   3.901   3.053   1.903
  140SOL    HW1  419   3.989   3.040   1.857
  140SOL    HW2  420   3.869   3.146   1.885
  141SOL     OW  421   4.431   1.497   0.849
  141SOL    HW1  422   4.476   1.562   0.788
  141SOL    HW2  423   4.347   1.539   0.885
  142SOL     OW  424   4.925   2.155   0.322
  142SOL    HW1  425   4.990   2.232   0.328
  142SOL    HW2  426   4.943   2.103   0.238
  143SOL     OW  427   4.893   2.119   0.693
  143SOL    HW1  428   4.925   2.212   0.711
  143SOL    HW2  429   4.962   2.070   0.640
  144SOL     OW  430   3.913   2.192  -0.111
  144SOL    HW1  431   3.963   2.228  -0.032
  144SOL    HW2  432   3.885   2.097  -0.092
  145SOL     OW  433   4.405   3.074   0.050
  145SOL    HW1  434   4.318   3.113   0.083
  145SOL    HW2  435   4.386   3.010  -0.025
  146SOL     OW  436   4.066   3.441   0.381
  146SOL    HW1  437   4.126   3.492   0.318
  146SOL    HW2  438   4.029   3.360   0.334
  147SOL     OW  439   2.292   3.782  -0.216
  147SOL    HW1  440   2.289   3.843  -0.137
  147SOL    HW2  441   2.385   3.782  -0.254
  148SOL     OW  442   3.414   2.072  -0.060
  148SOL    HW1  443   3.342   2.051   0.007
  148SOL    HW2  444   3.491   2.010  -0.048
  149SOL     OW  445   3.553   3.777  -0.611
  149SOL    HW1  446   3.622   3.734  -0.552
  149SOL    HW2  447   3.542   3.722  -0.694
  150SOL     OW  448   3.242   3.970  -0.005
  150SOL    HW1  449   3.304   3.933   0.065
  150SOL    HW2  450   3.227   3.902  -0.076
  151SOL     OW  451   3.835   3.651   0.396
  151SOL    HW1  452   3.907   3.584   0.413
  151SOL    HW2  453   3.767   3.646   0.469
  152SOL     OW  454   3.617   3.917   0.637
  152SOL    HW1  455   3.683   3.844   0.655
  152SOL    HW2  456   3.529   3.877   0.614
  153SOL     OW  457   3.035   3.588   0.590
  153SOL    HW1  458   3.000   3.668   0.640
  153SOL    HW2  459   3.019   3.602   0.492
  154SOL     OW  460   3.087   2.557   1.087
  154SOL    HW1  461   3.181   2.555   1.122
  154SOL    HW2  462   3.026   2.596   1.157
  155SOL     OW  463   2.659   2.520   1.194
  155SOL    HW1  464   2.742   2.562   1.232
  155SOL    HW2  465   2.585   2.524   1.261
  156SOL     OW  466   2.889   2.502   1.724
  156SOL    HW1  467   2.807   2.466   1.769
  156SOL    HW2  468   2.877   2.497   1.624
  157SOL     OW  469   3.178   2.436   1.808
  157SOL    HW1  470   3.092   2.482   1.784
  157SOL    HW2  471   3.191   2.440   1.907
  158SOL     OW  472   3.033   2.181   1.768
  158SOL    HW1  473   3.087   2.126   1.704
  158SOL    HW2  474   3.081   2.267   1.787
  159SOL     OW  475   2.912   1.537   0.914
  159SOL    HW1  476   2.876   1.624   0.879
  159SOL    HW2  477   2.901   1.535   1.014
  160SOL     OW  478   3.096   1.366   1.311
  160SOL    HW1  479   3.195   1.380   1.320
  160SOL    HW2  480   3.053   1.379   1.401
  161SOL     OW  481   2.913   1.811   1.455
  161SOL    HW1  482   2.914   1.888   1.392
  161SOL    HW2  483   2.844   1.826   1.525
  162SOL     OW  484   3.199   1.008   2.025
  162SOL    HW1  485   3.160   1.026   1.934
  162SOL    HW2  486   3.278   0.947   2.015
  163SOL     OW  487   3.109   1.070   1.355
  163SOL    HW1  488   3.184   1.039   1.414
  163SOL    HW2  489   3.126   1.165   1.327
  164SOL     OW  490   3.419   0.836   1.933
  164SOL    HW1  491   3.440   0.875   1.843
  164SOL    HW2  492   3.493   0.859   1.997
  165SOL     OW  493   3.739   1.102   1.716
  165SOL    HW1  494   3.652   1.052   1.706
  165SOL    HW2  495   3.721   1.200   1.726
  166SOL     OW  496   2.822   1.140   1.247
  166SOL    HW1  497   2.913   1.128   1.287
  166SOL    HW2  498   2.831   1.166   1.151
  167SOL     OW  499   2.292   0.844   1.317
  167SOL    HW1  500   2.263   0.940   1.317
  167SOL    HW2  501   2.277   0.804   1.408
  168SOL     OW  502   1.320   1.468   1.175
  168SOL    HW1  503   1.326   1.525   1.093
  168SOL    HW2  504   1.234   1.416   1.172
  169SOL     OW  505   0.787   2.109   1.133
  169SOL    HW1  506   0.813   2.111   1.230
  169SOL    HW2  507   0.689   2.127   1.124
  170SOL     OW  508   0.281   1.941   1.843
  170SOL    HW1  509   0.323   1.850   1.845
  170SOL    HW2  510   0.348   2.007   1.809
  171SOL     OW  511   0.467   2.607   2.218
  171SOL    HW1  512   0.537   2.679   2.223
  171SOL    HW2  513   0.471   2.563   2.128
  172SOL     OW  514   0.177   2.363   1.313
  172SOL    HW1  515   0.160   2.386   1.409
  172SOL    HW2  516   0.276   2.355   1.299
  173SOL     OW  517   0.170   2.672   1.287
  173SOL    HW1  518   0.195   2.715   1.374
  173SOL    HW2  519   0.134   2.580   1.304
  174SOL     OW  520   0.269   2.750   1.561
  174SOL    HW1  521   0.366   2.762   1.587
  174SOL    HW2  522   0.242   2.655   1.575
  175SOL     OW  523   0.051   2.128   1.892
  175SOL    HW1  524   0.053   2.192   1.814
  175SOL    HW2  525   0.121   2.058   1.880
  176SOL     OW  526   0.652   1.772   2.330
  176SOL    HW1  527   0.617   1.740   2.418
  176SOL    HW2  528   0.724   1.841   2.345
  177SOL     OW  529   0.571   1.416   2.116
  177SOL    HW1  530   0.495   1.480   2.130
  177SOL    HW2  531   0.655   1.468   2.099
  178SOL     OW  532   0.435   1.681   2.134
  178SOL    HW1  533   0.509   1.718   2.191
  178SOL    HW2  534   0.354   1.739   2.142
  179SOL     OW  535   0.484   1.258   1.871
  179SOL    HW1  536   0.561   1.271   1.807
  179SOL    HW2  537   0.503   1.308   1.956
  180SOL     OW  538   0.675   1.049   1.610
  180SOL    HW1  539   0.698   1.138   1.651
  180SOL    HW2  540   0.680   0.978   1.680
  181SOL     OW  541   0.757   1.000   1.330
  181SOL    HW1  542   0.813   0.916   1.337
  181SOL    HW2  543   0.718   1.021   1.420
  182SOL     OW  544   2.688   1.342   0.843
  182SOL    HW1  545   2.643   1.401   0.910
  182SOL    HW2  546   2.786   1.362   0.843
  183SOL     OW  547   2.462   0.832   0.866
  183SOL    HW1  548   2.395   0.810   0.794
  183SOL    HW2  549   2.553   0.806   0.836
  184SOL     OW  550   2.265   0.710   1.058
  184SOL    HW1  551   2.338   0.744   0.998
  184SOL    HW2  552   2.278   0.749   1.150
  185SOL     OW  553   2.102   1.139   0.074
  185SOL    HW1  554   2.143   1.079   0.143
  185SOL    HW2  555   2.121   1.103  -0.017
  186SOL     OW  556   1.638   0.777   0.054
  186SOL    HW1  557   1.627   0.749  -0.042
  186SOL    HW2  558   1.732   0.756   0.084
  187SOL     OW  559   1.967   0.434   0.072
  187SOL    HW1  560   1.939   0.528   0.092
  187SOL    HW2  561   2.021   0.433  -0.012
  188SOL     OW  562   1.791   0.504   0.579
  188SOL    HW1  563   1.771   0.602   0.588
  188SOL    HW2  564   1.859   0.491   0.506
  189SOL     OW  565   1.002   0.858   2.544
  189SOL    HW1  566   1.094   0.828   2.518
  189SOL    HW2  567   0.980   0.943   2.496
  190SOL     OW  568   0.285   0.548   2.198
  190SOL    HW1  569   0.309   0.645   2.187
  190SOL    HW2  570   0.206   0.540   2.258
  191SOL     OW  571   1.981   0.994   2.809
  191SOL    HW1  572   2.029   0.909   2.830
  191SOL    HW2  573   1.894   0.973   2.765
  192SOL     OW  574   2.039   1.256   2.949
  192SOL    HW1  575   2.128   1.279   2.909
  192SOL    HW2  576   2.008   1.169   2.910
  193SOL     OW  577   2.158   1.538   2.817
  193SOL    HW1  578   2.196   1.449   2.789
  193SOL    HW2  579   2.233   1.600   2.842
  194SOL     OW  580   1.673   2.086   2.700
  194SOL    HW1  581   1.743   2.132   2.645
  194SOL    HW2  582   1.712   2.004   2.743
  195SOL     OW  583   1.562   1.144   3.422
  195SOL    HW1  584   1.518   1.231   3.442
  195SOL    HW2  585   1.612   1.151   3.335
  196SOL     OW  586   1.859   2.240   2.544
  196SOL    HW1  587   1.799   2.313   2.511
  196SOL    HW2  588   1.953   2.273   2.548
  197SOL     OW  589   1.925   2.076   2.182
  197SOL    HW1  590   1.923   2.028   2.270
  197SOL    HW2  591   1.963   2.015   2.112
  198SOL     OW  592   0.679   2.808   2.276
  198SOL    HW1  593   0.762   2.759   2.302
  198SOL    HW2  594   0.689   2.905   2.299
  199SOL     OW  595   0.886   2.702   2.656
  199SOL    HW1  596   0.896   2.639   2.734
  199SOL    HW2  597   0.910   2.654   2.571
  200SOL     OW  598   0.919   3.180   2.594
  200SOL    HW1  599   0.905   3.147   2.500
  200SOL    HW2  600   0.949   3.275   2.592
  201SOL     OW  601   1.564   2.717   2.968
  201SOL    HW1  602   1.661   2.715   2.994
  201SOL    HW2  603   1.509   2.680   3.042
  202SOL     OW  604   1.150   3.380   2.379
  202SOL    HW1  605   1.087   3.371   2.301
  202SOL    HW2  606   1.162   3.477   2.401
  203SOL     OW  607   0.901   3.391   1.713
  203SOL    HW1  608   0.866   3.378   1.806
  203SOL    HW2  609   0.994   3.354   1.707
  204SOL     OW  610   0.661   2.823   1.223
  204SOL    HW1  611   0.744   2.865   1.186
  204SOL    HW2  612   0.605   2.893   1.267
  205SOL     OW  613   0.555   2.739   0.955
  205SOL    HW1  614   0.594   2.789   0.877
  205SOL    HW2  615   0.597   2.771   1.039
  206SOL     OW  616   2.714   1.855   1.674
  206SOL    HW1  617   2.619   1.871   1.702
  206SOL    HW2  618   2.755   1.786   1.734
  207SOL     OW  619   2.621   1.543   1.049
  207SOL    HW1  620   2.636   1.518   1.145
  207SOL    HW2  621   2.652   1.637   1.034
  208SOL     OW  622   2.930   1.601   1.225
  208SOL    HW1  623   2.920   1.668   1.298
  208SOL    HW2  624   2.971   1.517   1.263
  209SOL     OW  625   2.623   1.922   2.538
  209SOL    HW1  626   2.618   1.991   2.611
  209SOL    HW2  627   2.553   1.942   2.469
  210SOL     OW  628   2.985   1.709   2.761
  210SOL    HW1  629   2.994   1.619   2.803
  210SOL    HW2  630   2.923   1.703   2.682
  211SOL     OW  631   2.932   0.959   2.126
  211SOL    HW1  632   3.023   0.982   2.091
  211SOL    HW2  633   2.929   0.862   2.149
  212SOL     OW  634   3.213   1.158   2.279
  212SOL    HW1  635   3.147   1.116   2.342
  212SOL    HW2  636   3.207   1.112   2.190
  213SOL     OW  637   2.668   0.613   2.987
  213SOL    HW1  638   2.719   0.557   3.053
  213SOL    HW2  639   2.720   0.619   2.902
  214SOL     OW  640   3.294   1.340   2.984
  214SOL    HW1  641   3.291   1.372   2.889
  214SOL    HW2  642   3.285   1.418   3.046
  215SOL     OW  643   3.749   0.782   2.339
  215SOL    HW1  644   3.701   0.839   2.272
  215SOL    HW2  645   3.818   0.726   2.292
  216SOL     OW  646   3.794   1.542   2.141
  216SOL    HW1  647   3.866   1.577   2.202
  216SOL    HW2  648   3.706   1.543   2.190
  217SOL     OW  649   3.762   1.325   3.576
  217SOL    HW1  650   3.857   1.349   3.556
  217SOL    HW2  651   3.712   1.407   3.605
  218SOL     OW  652   3.162   0.284   3.695
  218SOL    HW1  653   3.132   0.258   3.603
  218SOL    HW2  654   3.263   0.288   3.697
  219SOL     OW  655   2.583  -0.083   3.315
  219SOL    HW1  656   2.620  -0.015   3.379
  219SOL    HW2  657   2.579  -0.172   3.361
  220SOL     OW  658   2.557   0.314   3.668
  220SOL    HW1  659   2.603   0.250   3.606
  220SOL    HW2  660   2.580   0.292   3.763
  221SOL     OW  661   4.063  -0.352   3.075
  221SOL    HW1  662   4.021  -0.380   3.161
  221SOL    HW2  663   4.013  -0.392   2.999
  222SOL     OW  664   2.836  -0.878   2.615
  222SOL    HW1  665   2.759  -0.846   2.670
  222SOL    HW2  666   2.818  -0.972   2.585
  223SOL     OW  667   3.773   0.263   1.854
  223SOL    HW1  668   3.871   0.252   1.836
  223SOL    HW2  669   3.756   0.250   1.952
  224SOL     OW  670   2.836   0.348   1.560
  224SOL    HW1  671   2.752   0.341   1.614
  224SOL    HW2  672   2.834   0.280   1.487
  225SOL     OW  673   2.467   0.002   1.740
  225SOL    HW1  674   2.516   0.013   1.827
  225SOL    HW2  675   2.467  -0.094   1.713
  226SOL     OW  676   2.204  -0.217   2.123
  226SOL    HW1  677   2.177  -0.125   2.150
  226SOL    HW2  678   2.140  -0.252   2.054
  227SOL     OW  679   2.328  -0.130   2.436
  227SOL    HW1  680   2.256  -0.069   2.404
  227SOL    HW2  681   2.356  -0.191   2.362
  228SOL     OW  682   1.673  -0.215   1.740
  228SOL    HW1  683   1.729  -0.170   1.809
  228SOL    HW2  684   1.720  -0.296   1.706
  229SOL     OW  685   1.646  -0.380   2.186
  229SOL    HW1  686   1.612  -0.411   2.098
  229SOL    HW2  687   1.744  -0.397   2.193
  230SOL     OW  688   1.655  -0.268   2.804
  230SOL    HW1  689   1.582  -0.212   2.845
  230SOL    HW2  690   1.668  -0.240   2.708
  231SOL     OW  691   1.495  -0.421   2.446
  231SOL    HW1  692   1.539  -0.350   2.501
  231SOL    HW2  693   1.535  -0.422   2.354
  232SOL     OW  694   2.496   0.386   3.239
  232SOL    HW1  695   2.427   0.456   3.260
  232SOL    HW2  696   2.557   0.375   3.318
  233SOL     OW  697   1.964   0.057   3.686
  233SOL    HW1  698   1.932   0.077   3.779
  233SOL    HW2  699   2.063   0.041   3.688
  234SOL     OW  700   2.405   0.110   3.157
  234SOL    HW1  701   2.427   0.204   3.186
  234SOL    HW2  702   2.451   0.045   3.218
  235SOL     OW  703   2.430  -0.325   2.652
  235SOL    HW1  704   2.392  -0.291   2.566
  235SOL    HW2  705   2.393  -0.416   2.671
  236SOL     OW  706   2.539  -0.202   3.040
  236SOL    HW1  707   2.566  -0.151   3.122
  236SOL    HW2  708   2.518  -0.297   3.066
  237SOL     OW  709   2.657   2.356   1.824
  237SOL    HW1  710   2.561   2.368   1.798
  237SOL    HW2  711   2.695   2.278   1.774
  238SOL     OW  712   2.370   1.791   0.795
  238SOL    HW1  713   2.394   1.774   0.891
  238SOL    HW2  714   2.444   1.759   0.736
  239SOL     OW  715   2.427   2.451   0.766
  239SOL    HW1  716   2.463   2.400   0.688
  239SOL    HW2  717   2.389   2.539   0.733
  240SOL     OW  718   2.185   2.271   0.739
  240SOL    HW1  719   2.264   2.330   0.759
  240SOL    HW2  720   2.119   2.323   0.684
  241SOL     OW  721   1.976   2.431   0.579
  241SOL    HW1  722   1.938   2.441   0.671
  241SOL    HW2  723   1.941   2.505   0.521
  242SOL     OW  724   1.800   2.643   0.442
  242SOL    HW1  725   1.726   2.586   0.478
  242SOL    HW2  726   1.800   2.638   0.342
  243SOL     OW  727   1.218   2.868   1.015
  243SOL    HW1  728   1.290   2.800   1.000
  243SOL    HW2  729   1.128   2.825   1.002
  244SOL     OW  730   1.596   2.884   0.465
  244SOL    HW1  731   1.682   2.834   0.452
  244SOL    HW2  732   1.522   2.833   0.422
  245SOL     OW  733   1.372   2.716   0.362
  245SOL    HW1  734   1.328   2.756   0.443
  245SOL    HW2  735   1.314   2.643   0.326
  246SOL     OW  736   1.501   3.357   0.575
  246SOL    HW1  737   1.495   3.332   0.672
  246SOL    HW2  738   1.541   3.448   0.567
  247SOL     OW  739   1.256   3.645   1.044
  247SOL    HW1  740   1.327   3.574   1.031
  247SOL    HW2  741   1.198   3.620   1.121
  248SOL     OW  742   1.112   3.574   1.302
  248SOL    HW1  743   1.088   3.619   1.389
  248SOL    HW2  744   1.145   3.482   1.320
  249SOL     OW  745   1.099   3.697   1.576
  249SOL    HW1  746   1.198   3.695   1.591
  249SOL    HW2  747   1.053   3.655   1.654
  250SOL     OW  748   1.915   3.631   1.530
  250SOL    HW1  749   1.861   3.549   1.507
  250SOL    HW2  750   1.913   3.695   1.452
  251SOL     OW  751   2.192   3.687   0.538
  251SOL    HW1  752   2.165   3.731   0.451
  251SOL    HW2  753   2.286   3.711   0.559
  252SOL     OW  754   2.719   3.800   1.243
  252SOL    HW1  755   2.770   3.838   1.165
  252SOL    HW2  756   2.626   3.838   1.244
  253SOL     OW  757   2.280   2.677   0.653
  253SOL    HW1  758   2.337   2.736   0.596
  253SOL    HW2  759   2.197   2.727   0.680
  254SOL     OW  760   2.782   3.222   1.775
  254SOL    HW1  761   2.754   3.267   1.860
  254SOL    HW2  762   2.709   3.233   1.707
  255SOL     OW  763   2.736   3.724   1.538
  255SOL    HW1  764   2.648   3.726   1.586
  255SOL    HW2  765   2.725   3.761   1.446
  256SOL     OW  766   2.092   3.578   1.758
  256SOL    HW1  767   2.138   3.497   1.720
  256SOL    HW2  768   2.028   3.614   1.690
  257SOL     OW  769   2.263   3.373   2.271
  257SOL    HW1  770   2.208   3.323   2.205
  257SOL    HW2  771   2.328   3.432   2.223
  258SOL     OW  772   2.494   3.200   2.365
  258SOL    HW1  773   2.465   3.109   2.336
  258SOL    HW2  774   2.417   3.264   2.353
  259SOL     OW  775   2.268   3.788   1.872
  259SOL    HW1  776   2.207   3.719   1.833
  259SOL    HW2  777   2.220   3.875   1.877
  260SOL     OW  778   2.514   3.694   1.729
  260SOL    HW1  779   2.437   3.744   1.770
  260SOL    HW2  780   2.541   3.619   1.790
  261SOL     OW  781   1.337   3.333   1.729
  261SOL    HW1  782   1.403   3.365   1.661
  261SOL    HW2  783   1.381   3.332   1.820
  262SOL     OW  784   2.372   2.596   2.482
  262SOL    HW1  785   2.336   2.657   2.411
  262SOL    HW2  786   2.354   2.636   2.572
  263SOL     OW  787   2.623   2.779   2.372
  263SOL    HW1  788   2.540   2.832   2.352
  263SOL    HW2  789   2.597   2.683   2.389
  264SOL     OW  790   1.513   3.262   2.580
  264SOL    HW1  791   1.508   3.223   2.488
  264SOL    HW2  792   1.464   3.349   2.582
  265SOL     OW  793   1.666   3.545   1.897
  265SOL    HW1  794   1.600   3.478   1.933
  265SOL    HW2  795   1.639   3.571   1.804
  266SOL     OW  796   1.539   2.520   2.723
  266SOL    HW1  797   1.609   2.510   2.652
  266SOL    HW2  798   1.569   2.588   2.790
  267SOL     OW  799   3.001   2.317   2.486
  267SOL    HW1  800   2.925   2.287   2.543
  267SOL    HW2  801   3.086   2.278   2.521
  268SOL     OW  802   3.767   2.828   2.045
  268SOL    HW1  803   3.801   2.910   1.997
  268SOL    HW2  804   3.669   2.819   2.030
  269SOL     OW  805   3.240   2.180   2.616
  269SOL    HW1  806   3.323   2.171   2.671
  269SOL    HW2  807   3.166   2.128   2.658
  270SOL     OW  808   3.349   3.448   1.805
  270SOL    HW1  809   3.427   3.495   1.846
  270SOL    HW2  810   3.284   3.423   1.877
  271SOL     OW  811   3.805   3.399   1.701
  271SOL    HW1  812   3.737   3.422   1.632
  271SOL    HW2  813   3.894   3.384   1.657
  272SOL     OW  814   2.907   3.708   1.787
  272SOL    HW1  815   2.854   3.667   1.862
  272SOL    HW2  816   2.849   3.715   1.706
  273SOL     OW  817   4.025   3.610   1.265
  273SOL    HW1  818   4.120   3.602   1.234
  273SOL    HW2  819   4.022   3.614   1.365
  274SOL     OW  820   3.947   4.204   1.392
  274SOL    HW1  821   3.944   4.302   1.371
  274SOL    HW2  822   3.985   4.191   1.484
  275SOL     OW  823   4.502   3.869   0.950
  275SOL    HW1  824   4.517   3.928   1.029
  275SOL    HW2  825   4.580   3.808   0.939
  276SOL     OW  826   4.651   3.458   1.268
  276SOL    HW1  827   4.674   3.401   1.189
  276SOL    HW2  828   4.598   3.405   1.334
  277SOL     OW  829   4.129   3.225   1.532
  277SOL    HW1  830   4.116   3.167   1.452
  277SOL    HW2  831   4.217   3.272   1.526
  278SOL     OW  832   4.160   3.029   1.754
  278SOL    HW1  833   4.251   2.988   1.745
  278SOL    HW2  834   4.149   3.100   1.684
  279SOL     OW  835   4.863   2.173   1.781
  279SOL    HW1  836   4.799   2.249   1.768
  279SOL    HW2  837   4.943   2.187   1.723
  280SOL     OW  838   3.904   2.772   2.474
  280SOL    HW1  839   3.853   2.843   2.524
  280SOL    HW2  840   3.931   2.700   2.538
  281SOL     OW  841   4.583   1.811   1.316
  281SOL    HW1  842   4.567   1.882   1.385
  281SOL    HW2  843   4.547   1.843   1.228
  282SOL     OW  844   4.665   2.501   2.386
  282SOL    HW1  845   4.727   2.508   2.307
  282SOL    HW2  846   4.717   2.471   2.466
  283SOL     OW  847   3.883   1.306   1.988
  283SOL    HW1  848   3.866   1.385   2.048
  283SOL    HW2  849   3.861   1.222   2.037
  284SOL     OW  850   3.946   1.187   1.231
  284SOL    HW1  851   3.889   1.268   1.241
  284SOL    HW2  852   4.037   1.214   1.199
  285SOL     OW  853   2.336   3.964   0.446
  285SOL    HW1  854   2.410   3.903   0.477
  285SOL    HW2  855   2.278   3.915   0.381
  286SOL     OW  856   2.642   3.841   0.829
  286SOL    HW1  857   2.593   3.818   0.744
  286SOL    HW2  858   2.692   3.927   0.816
  287SOL     OW  859   1.970   3.363   0.311
  287SOL    HW1  860   1.996   3.453   0.273
  287SOL    HW2  861   1.981   3.294   0.239
  288SOL     OW  862   2.189   3.499  -0.213
  288SOL    HW1  863   2.258   3.459  -0.152
  288SOL    HW2  864   2.207   3.597  -0.223
  289SOL     OW  865   1.940   3.527   0.567
  289SOL    HW1  866   2.023   3.584   0.562
  289SOL    HW2  867   1.938   3.466   0.487
  290SOL     OW  868   2.340   2.717  -0.079
  290SOL    HW1  869   2.412   2.787  -0.074
  290SOL    HW2  870   2.253   2.761  -0.101
  291SOL     OW  871   2.232   2.763   0.202
  291SOL    HW1  872   2.184   2.847   0.175
  291SOL    HW2  873   2.282   2.728   0.123
  292SOL     OW  874   3.159   1.730  -0.474
  292SOL    HW1  875   3.244   1.756  -0.429
  292SOL    HW2  876   3.179   1.666  -0.548
  293SOL     OW  877   2.917   1.900  -0.934
  293SOL    HW1  878   2.979   1.835  -0.978
  293SOL    HW2  879   2.861   1.945  -1.004
  294SOL     OW  880   3.204   2.354  -0.814
  294SOL    HW1  881   3.136   2.398  -0.872
  294SOL    HW2  882   3.249   2.281  -0.865
  295SOL     OW  883   4.681   2.041   0.895
  295SOL    HW1  884   4.752   2.057   0.826
  295SOL    HW2  885   4.684   2.114   0.964
  296SOL     OW  886   3.269   1.178   0.760
  296SOL    HW1  887   3.243   1.187   0.664
  296SOL    HW2  888   3.218   1.103   0.801
  297SOL     OW  889   4.308   0.778   1.224
  297SOL    HW1  890   4.358   0.847   1.170
  297SOL    HW2  891   4.215   0.770   1.189
  298SOL     OW  892   4.526   0.836   1.428
  298SOL    HW1  893   4.447   0.810   1.373
  298SOL    HW2  894   4.610   0.808   1.381
    6.2011    6.2011    6.2011
