; ITP file created by ByteFF-ML, 2025-12-06 08:17:17.645480

[ atomtypes ]
;name           bonded.type        at.num        mass        charge   ptype           sigma         epsilon
 c0bf                                   6      0.0000       0.00000       A     3.31514e-01     4.13791e-01
 c1bf                                   6      0.0000       0.00000       A     3.31532e-01     4.12562e-01
 c2bf                                   6      0.0000       0.00000       A     3.31477e-01     4.12772e-01
 c3bf                                   6      0.0000       0.00000       A     3.31456e-01     4.12667e-01
 c4bf                                   6      0.0000       0.00000       A     3.31437e-01     4.12011e-01
 n5bf                                   7      0.0000       0.00000       A     3.38438e-01     3.92568e-01
 c6bf                                   6      0.0000       0.00000       A     3.31436e-01     4.13751e-01
 n7bf                                   7      0.0000       0.00000       A     3.38318e-01     3.91181e-01
 c8bf                                   6      0.0000       0.00000       A     3.31414e-01     4.12337e-01
 c9bf                                   6      0.0000       0.00000       A     3.31636e-01     4.13283e-01
 n10bf                                  7      0.0000       0.00000       A     3.27839e-01     6.50634e-01
 c11bf                                  6      0.0000       0.00000       A     3.39792e-01     4.53665e-01
 c12bf                                  6      0.0000       0.00000       A     3.39977e-01     4.49597e-01
 c13bf                                  6      0.0000       0.00000       A     3.31523e-01     4.12617e-01
 c14bf                                  6      0.0000       0.00000       A     3.39859e-01     4.50261e-01
 c15bf                                  6      0.0000       0.00000       A     3.31481e-01     4.13328e-01
 c16bf                                  6      0.0000       0.00000       A     3.31506e-01     4.13446e-01
 c17bf                                  6      0.0000       0.00000       A     3.31497e-01     4.12820e-01
 c18bf                                  6      0.0000       0.00000       A     3.31506e-01     4.13446e-01
 c19bf                                  6      0.0000       0.00000       A     3.31481e-01     4.13328e-01
 c20bf                                  6      0.0000       0.00000       A     3.31523e-01     4.12617e-01
 c21bf                                  6      0.0000       0.00000       A     3.31481e-01     4.13328e-01
 c22bf                                  6      0.0000       0.00000       A     3.31506e-01     4.13446e-01
 c23bf                                  6      0.0000       0.00000       A     3.31497e-01     4.12820e-01
 c24bf                                  6      0.0000       0.00000       A     3.31506e-01     4.13446e-01
 c25bf                                  6      0.0000       0.00000       A     3.31481e-01     4.13328e-01
 h26bf                                  1      0.0000       0.00000       A     2.62487e-01     6.75680e-02
 h27bf                                  1      0.0000       0.00000       A     2.62489e-01     6.75504e-02
 h28bf                                  1      0.0000       0.00000       A     2.62455e-01     6.76877e-02
 h29bf                                  1      0.0000       0.00000       A     2.62555e-01     6.73589e-02
 h30bf                                  1      0.0000       0.00000       A     1.10462e-01     4.07812e-02
 h31bf                                  1      0.0000       0.00000       A     2.42268e-01     8.71055e-02
 h32bf                                  1      0.0000       0.00000       A     2.42268e-01     8.71055e-02
 h33bf                                  1      0.0000       0.00000       A     2.60105e-01     8.67623e-02
 h34bf                                  1      0.0000       0.00000       A     2.62480e-01     6.76701e-02
 h35bf                                  1      0.0000       0.00000       A     2.62458e-01     6.72983e-02
 h36bf                                  1      0.0000       0.00000       A     2.62457e-01     6.73477e-02
 h37bf                                  1      0.0000       0.00000       A     2.62458e-01     6.72983e-02
 h38bf                                  1      0.0000       0.00000       A     2.62480e-01     6.76717e-02
 h39bf                                  1      0.0000       0.00000       A     2.62480e-01     6.76717e-02
 h40bf                                  1      0.0000       0.00000       A     2.62458e-01     6.72983e-02
 h41bf                                  1      0.0000       0.00000       A     2.62457e-01     6.73477e-02
 h42bf                                  1      0.0000       0.00000       A     2.62458e-01     6.72983e-02
 h43bf                                  1      0.0000       0.00000       A     2.62480e-01     6.76717e-02
 h44bf                                  1      0.0000       0.00000       A     2.60105e-01     8.67623e-02
 h45bf                                  1      0.0000       0.00000       A     2.59889e-01     8.79115e-02
 h46bf                                  1      0.0000       0.00000       A     2.44790e-01     6.75377e-02

[ moleculetype ]
;name             nrexcl
 2d                    3

[ atoms ]
;       nr            type      resi   res      atom      cgnr      charge          mass ; qtot
         1            c0bf         1   UNL        c0         1    -0.07217       12.0110 ; qtot   -0.072
         2            c1bf         1   UNL        c1         2    -0.12261       12.0110 ; qtot   -0.195
         3            c2bf         1   UNL        c2         3    -0.08231       12.0110 ; qtot   -0.277
         4            c3bf         1   UNL        c3         4    -0.09825       12.0110 ; qtot   -0.375
         5            c4bf         1   UNL        c4         5     0.04426       12.0110 ; qtot   -0.331
         6            n5bf         1   UNL        n5         6    -0.19423       14.0070 ; qtot   -0.525
         7            c6bf         1   UNL        c6         7     0.15386       12.0110 ; qtot   -0.371
         8            n7bf         1   UNL        n7         8    -0.27468       14.0070 ; qtot   -0.646
         9            c8bf         1   UNL        c8         9     0.38544       12.0110 ; qtot   -0.261
        10            c9bf         1   UNL        c9        10    -0.17605       12.0110 ; qtot   -0.437
        11           n10bf         1   UNL       n10        11    -0.91791       14.0070 ; qtot   -1.355
        12           c11bf         1   UNL       c11        12     0.22033       12.0110 ; qtot   -1.134
        13           c12bf         1   UNL       c12        13    -0.09282       12.0110 ; qtot   -1.227
        14           c13bf         1   UNL       c13        14    -0.08511       12.0110 ; qtot   -1.312
        15           c14bf         1   UNL       c14        15     0.03364       12.0110 ; qtot   -1.279
        16           c15bf         1   UNL       c15        16    -0.10676       12.0110 ; qtot   -1.385
        17           c16bf         1   UNL       c16        17    -0.11255       12.0110 ; qtot   -1.498
        18           c17bf         1   UNL       c17        18    -0.10702       12.0110 ; qtot   -1.605
        19           c18bf         1   UNL       c18        19    -0.11255       12.0110 ; qtot   -1.717
        20           c19bf         1   UNL       c19        20    -0.10676       12.0110 ; qtot   -1.824
        21           c20bf         1   UNL       c20        21    -0.08511       12.0110 ; qtot   -1.909
        22           c21bf         1   UNL       c21        22    -0.10676       12.0110 ; qtot   -2.016
        23           c22bf         1   UNL       c22        23    -0.11255       12.0110 ; qtot   -2.129
        24           c23bf         1   UNL       c23        24    -0.10702       12.0110 ; qtot   -2.236
        25           c24bf         1   UNL       c24        25    -0.11255       12.0110 ; qtot   -2.348
        26           c25bf         1   UNL       c25        26    -0.10676       12.0110 ; qtot   -2.455
        27           h26bf         1   UNL       h26        27     0.11374        1.0080 ; qtot   -2.341
        28           h27bf         1   UNL       h27        28     0.11975        1.0080 ; qtot   -2.222
        29           h28bf         1   UNL       h28        29     0.11823        1.0080 ; qtot   -2.103
        30           h29bf         1   UNL       h29        30     0.13904        1.0080 ; qtot   -1.964
        31           h30bf         1   UNL       h30        31     0.48431        1.0080 ; qtot   -1.480
        32           h31bf         1   UNL       h31        32     0.05707        1.0080 ; qtot   -1.423
        33           h32bf         1   UNL       h32        33     0.05707        1.0080 ; qtot   -1.366
        34           h33bf         1   UNL       h33        34     0.05642        1.0080 ; qtot   -1.309
        35           h34bf         1   UNL       h34        35     0.11602        1.0080 ; qtot   -1.193
        36           h35bf         1   UNL       h35        36     0.11408        1.0080 ; qtot   -1.079
        37           h36bf         1   UNL       h36        37     0.11320        1.0080 ; qtot   -0.966
        38           h37bf         1   UNL       h37        38     0.11408        1.0080 ; qtot   -0.852
        39           h38bf         1   UNL       h38        39     0.11602        1.0080 ; qtot   -0.736
        40           h39bf         1   UNL       h39        40     0.11602        1.0080 ; qtot   -0.620
        41           h40bf         1   UNL       h40        41     0.11408        1.0080 ; qtot   -0.506
        42           h41bf         1   UNL       h41        42     0.11320        1.0080 ; qtot   -0.393
        43           h42bf         1   UNL       h42        43     0.11408        1.0080 ; qtot   -0.279
        44           h43bf         1   UNL       h43        44     0.11602        1.0080 ; qtot   -0.163
        45           h44bf         1   UNL       h44        45     0.05642        1.0080 ; qtot   -0.106
        46           h45bf         1   UNL       h45        46     0.05670        1.0080 ; qtot   -0.049
        47           h46bf         1   UNL       h46        47     0.04945        1.0080 ; qtot   -0.000

[ bonds ]
;       ai        aj funct               r               k
         1         2     1        0.138375   342324.900098
         1        10     1        0.141699   274893.345605
         1        27     1        0.108513   319953.575098
         2         3     1        0.141518   278668.164502
         2        28     1        0.108579   321463.660986
         3         4     1        0.138104   352835.208203
         3        29     1        0.108627   319930.106494
         4         5     1        0.141867   278937.249023
         4        30     1        0.108494   324728.631494
         5         6     1        0.137129   265354.213770
         5        10     1        0.142427   249375.874268
         6         7     1        0.131556   375186.920703
         7         8     1        0.135447   281531.666113
         7        47     1        0.108881   311012.343604
         8         9     1        0.133139   329150.790576
         9        10     1        0.144592   222356.539990
         9        11     1        0.136370   322745.904785
        11        12     1        0.146342   204687.362939
        11        31     1        0.101085   421894.140527
        12        13     1        0.153335   184040.469556
        12        32     1        0.109340   299452.000635
        12        33     1        0.109340   299452.000635
        13        15     1        0.154759   161874.296924
        13        34     1        0.109477   297153.277734
        13        45     1        0.109477   297153.277734
        14        15     1        0.152487   177829.231665
        14        16     1        0.140288   288053.435254
        14        20     1        0.140288   288053.435254
        15        21     1        0.152487   177829.231665
        15        46     1        0.109609   292897.007715
        16        17     1        0.139831   309672.130566
        16        35     1        0.108651   316913.229004
        17        18     1        0.139910   306540.770215
        17        36     1        0.108649   318926.293799
        18        19     1        0.139910   306540.770215
        18        37     1        0.108629   319751.295654
        19        20     1        0.139831   309672.130566
        19        38     1        0.108649   318926.293799
        20        39     1        0.108651   316913.229004
        21        22     1        0.140288   288053.435254
        21        26     1        0.140288   288053.435254
        22        23     1        0.139831   309672.130566
        22        40     1        0.108651   316913.229004
        23        24     1        0.139910   306540.770215
        23        41     1        0.108649   318926.293799
        24        25     1        0.139910   306540.770215
        24        42     1        0.108629   319751.295654
        25        26     1        0.139831   309672.105029
        25        43     1        0.108649   318926.293799
        26        44     1        0.108651   316913.254541

[ angles ]
;       ai        aj        ak funct           theta             cth
         1         2         3     1      120.159500      684.048120
         1         2        28     1      120.070618      443.630664
         1        10         5     1      119.429665      749.041596
         1        10         9     1      124.964401      499.992597
         2         1        10     1      120.452133      588.632925
         2         1        27     1      119.109207      445.365304
         2         3         4     1      120.455017      719.811629
         2         3        29     1      119.677170      442.338391
         3         2        28     1      119.782921      446.363135
         3         4         5     1      120.273026      638.872080
         3         4        30     1      121.974648      427.768129
         4         3        29     1      119.960022      442.338997
         4         5         6     1      118.857239      469.610236
         4         5        10     1      119.032204      664.063928
         5         4        30     1      117.827171      446.773165
         5         6         7     1      115.654030      542.728247
         5        10         9     1      115.438660      978.404293
         6         5        10     1      121.982864      776.930226
         6         7         8     1      128.201859      695.734987
         6         7        47     1      116.804184      375.937756
         7         8         9     1      117.089615      876.770364
         8         7        47     1      114.966812      384.026604
         8         9        10     1      121.039757      640.632800
         8         9        11     1      118.034927      625.087148
         9        11        12     1      122.810448      485.284594
         9        11        31     1      116.860558      443.493594
        10         1        27     1      120.732872      419.668428
        10         9        11     1      121.080124      476.589624
        11        12        13     1      112.051285      576.046705
        11        12        32     1      108.348732      481.697907
        11        12        33     1      108.348732      481.697907
        12        11        31     1      116.765724      428.700233
        12        13        15     1      113.867271      577.821917
        12        13        34     1      108.935509      505.486331
        12        13        45     1      108.935509      505.486331
        13        12        32     1      110.141953      492.680492
        13        12        33     1      110.141953      492.680492
        13        15        14     1      112.161743      576.300735
        13        15        21     1      112.161743      576.300735
        13        15        46     1      106.367836      495.187470
        14        15        21     1      111.951767      502.502224
        14        15        46     1      106.611694      487.625485
        14        16        17     1      120.963661      707.473566
        14        16        35     1      119.594765      388.507185
        14        20        19     1      120.963661      707.473566
        14        20        39     1      119.594765      388.507154
        15        13        34     1      109.060265      469.060677
        15        13        45     1      109.060265      469.060677
        15        14        16     1      120.819603      485.006655
        15        14        20     1      120.819603      485.006655
        15        21        22     1      120.819603      485.006655
        15        21        26     1      120.819603      485.006655
        16        14        20     1      118.240677      721.110766
        16        17        18     1      120.154312      709.440179
        16        17        36     1      119.775925      429.066244
        17        16        35     1      119.555504      431.916856
        17        18        19     1      119.475426      707.369056
        17        18        37     1      120.262108      430.653790
        18        17        36     1      120.092667      423.840107
        18        19        20     1      120.154312      709.440179
        18        19        38     1      120.092667      423.840107
        19        18        37     1      120.262108      430.653790
        19        20        39     1      119.555504      431.916856
        20        19        38     1      119.775925      429.066276
        21        15        46     1      106.611710      487.625485
        21        22        23     1      120.963661      707.473566
        21        22        40     1      119.594765      388.507154
        21        26        25     1      120.963661      707.473566
        21        26        44     1      119.594765      388.507185
        22        21        26     1      118.240677      721.110829
        22        23        24     1      120.154312      709.440179
        22        23        41     1      119.775925      429.066276
        23        22        40     1      119.555496      431.916856
        23        24        25     1      119.475426      707.369056
        23        24        42     1      120.262100      430.653790
        24        23        41     1      120.092667      423.840107
        24        25        26     1      120.154312      709.440179
        24        25        43     1      120.092667      423.840107
        25        24        42     1      120.262100      430.653790
        25        26        44     1      119.555496      431.916856
        26        25        43     1      119.775925      429.066276
        32        12        33     1      107.320374      350.486452
        34        13        45     1      106.935898      358.072090

[ dihedrals ] ; propers for gromacs 4.5 or higher, use funct 9
;       ai        aj        ak        al funct           phase               k        pn
         1         2         3         4     9        0.000000        0.171776         1
         1         2         3         4     9      180.000000       16.183977         2
         1         2         3         4     9        0.000000       -1.399201         3
         1         2         3         4     9      180.000000       -0.304079         4
         1         2         3        29     9        0.000000        0.015323         1
         1         2         3        29     9      180.000000       12.905212         2
         1         2         3        29     9        0.000000       -0.648953         3
         1         2         3        29     9      180.000000        0.128494         4
         1        10         5         4     9        0.000000        0.139645         1
         1        10         5         4     9      180.000000       11.259245         2
         1        10         5         4     9        0.000000       -0.794464         3
         1        10         5         4     9      180.000000       -0.091232         4
         1        10         5         6     9        0.000000        0.027274         1
         1        10         5         6     9      180.000000       10.979198         2
         1        10         5         6     9        0.000000       -0.027618         3
         1        10         5         6     9      180.000000       -0.290970         4
         1        10         9         8     9        0.000000       -0.704666         1
         1        10         9         8     9      180.000000        5.010254         2
         1        10         9         8     9        0.000000        0.071627         3
         1        10         9         8     9      180.000000       -0.167527         4
         1        10         9        11     9        0.000000        0.023410         1
         1        10         9        11     9      180.000000        6.597126         2
         1        10         9        11     9        0.000000        0.070748         3
         1        10         9        11     9      180.000000       -0.335175         4
         2         1        10         5     9        0.000000       -0.095781         1
         2         1        10         5     9      180.000000       17.312049         2
         2         1        10         5     9        0.000000       -1.113778         3
         2         1        10         5     9      180.000000       -0.325260         4
         2         1        10         9     9        0.000000        0.226897         1
         2         1        10         9     9      180.000000       14.428154         2
         2         1        10         9     9        0.000000       -0.783890         3
         2         1        10         9     9      180.000000       -0.299689         4
         2         3         4         5     9        0.000000       -0.079495         1
         2         3         4         5     9      180.000000       20.026093         2
         2         3         4         5     9        0.000000       -1.321400         3
         2         3         4         5     9      180.000000       -0.391654         4
         2         3         4        30     9        0.000000       -0.053191         1
         2         3         4        30     9      180.000000       15.765161         2
         2         3         4        30     9        0.000000       -0.425920         3
         2         3         4        30     9      180.000000        0.094105         4
         3         2         1        10     9        0.000000       -0.041452         1
         3         2         1        10     9      180.000000       20.471898         2
         3         2         1        10     9        0.000000       -2.048946         3
         3         2         1        10     9      180.000000       -0.445508         4
         3         2         1        27     9        0.000000       -0.008745         1
         3         2         1        27     9      180.000000       16.204323         2
         3         2         1        27     9        0.000000       -0.520676         3
         3         2         1        27     9      180.000000        0.084312         4
         3         4         5         6     9        0.000000       -0.003628         1
         3         4         5         6     9      180.000000       15.782841         2
         3         4         5         6     9        0.000000        0.033035         3
         3         4         5         6     9      180.000000       -0.463900         4
         3         4         5        10     9        0.000000       -0.309653         1
         3         4         5        10     9      180.000000       15.620459         2
         3         4         5        10     9        0.000000       -1.160899         3
         3         4         5        10     9      180.000000       -0.249127         4
         4         3         2        28     9        0.000000        0.035385         1
         4         3         2        28     9      180.000000       13.227889         2
         4         3         2        28     9        0.000000       -0.612532         3
         4         3         2        28     9      180.000000        0.079250         4
         4         5         6         7     9        0.000000       -0.226429         1
         4         5         6         7     9      180.000000       15.355911         2
         4         5         6         7     9        0.000000       -0.257397         3
         4         5         6         7     9      180.000000       -0.320359         4
         4         5        10         9     9        0.000000       -0.272272         1
         4         5        10         9     9      180.000000       11.508230         2
         4         5        10         9     9        0.000000       -0.949438         3
         4         5        10         9     9      180.000000       -0.249641         4
         5         4         3        29     9        0.000000        0.153501         1
         5         4         3        29     9      180.000000       15.839164         2
         5         4         3        29     9        0.000000       -0.311314         3
         5         4         3        29     9      180.000000       -0.005613         4
         5         6         7         8     9        0.000000        0.055345         1
         5         6         7         8     9      180.000000       21.276398         2
         5         6         7         8     9        0.000000        0.686230         3
         5         6         7         8     9      180.000000       -0.741818         4
         5         6         7        47     9        0.000000        0.846283         1
         5         6         7        47     9      180.000000       19.395415         2
         5         6         7        47     9        0.000000        0.403113         3
         5         6         7        47     9      180.000000       -0.488161         4
         5        10         1        27     9        0.000000        0.136152         1
         5        10         1        27     9      180.000000       12.519138         2
         5        10         1        27     9        0.000000       -0.195355         3
         5        10         1        27     9      180.000000        0.087340         4
         5        10         9         8     9        0.000000        0.011791         1
         5        10         9         8     9      180.000000        6.315959         2
         5        10         9         8     9        0.000000        0.210314         3
         5        10         9         8     9      180.000000       -0.292722         4
         5        10         9        11     9        0.000000        0.221246         1
         5        10         9        11     9      180.000000        8.649305         2
         5        10         9        11     9        0.000000        0.095535         3
         5        10         9        11     9      180.000000       -0.491288         4
         6         5         4        30     9        0.000000       -0.182203         1
         6         5         4        30     9      180.000000       13.318148         2
         6         5         4        30     9        0.000000       -0.168855         3
         6         5         4        30     9      180.000000       -0.092916         4
         6         5        10         9     9        0.000000       -0.075788         1
         6         5        10         9     9      180.000000       11.203212         2
         6         5        10         9     9        0.000000       -0.180771         3
         6         5        10         9     9      180.000000       -0.292040         4
         6         7         8         9     9        0.000000       -0.376699         1
         6         7         8         9     9      180.000000       13.544542         2
         6         7         8         9     9        0.000000        0.060396         3
         6         7         8         9     9      180.000000       -0.205139         4
         7         6         5        10     9        0.000000       -0.195789         1
         7         6         5        10     9      180.000000       15.626933         2
         7         6         5        10     9        0.000000       -0.666930         3
         7         6         5        10     9      180.000000       -0.253513         4
         7         8         9        10     9        0.000000       -0.030071         1
         7         8         9        10     9      180.000000       17.783041         2
         7         8         9        10     9        0.000000       -0.306818         3
         7         8         9        10     9      180.000000       -0.504190         4
         7         8         9        11     9        0.000000        0.047697         1
         7         8         9        11     9      180.000000       21.997185         2
         7         8         9        11     9        0.000000        0.011231         3
         7         8         9        11     9      180.000000       -0.821732         4
         8         9        11        12     9        0.000000       -2.280193         1
         8         9        11        12     9      180.000000        7.851817         2
         8         9        11        12     9        0.000000        0.137707         3
         8         9        11        12     9      180.000000       -0.640495         4
         8         9        11        31     9        0.000000       -2.387384         1
         8         9        11        31     9      180.000000       10.234032         2
         8         9        11        31     9        0.000000       -0.227009         3
         8         9        11        31     9      180.000000       -0.307884         4
         9         8         7        47     9        0.000000        0.620467         1
         9         8         7        47     9      180.000000       14.075584         2
         9         8         7        47     9        0.000000        0.015820         3
         9         8         7        47     9      180.000000       -0.270017         4
         9        10         1        27     9        0.000000        0.154288         1
         9        10         1        27     9      180.000000       11.047475         2
         9        10         1        27     9        0.000000       -0.431533         3
         9        10         1        27     9      180.000000       -0.002664         4
         9        11        12        13     9        0.000000       -1.135335         1
         9        11        12        13     9      180.000000       -0.510996         2
         9        11        12        13     9        0.000000        0.456081         3
         9        11        12        13     9      180.000000       -0.098793         4
         9        11        12        32     9        0.000000        0.125366         1
         9        11        12        32     9      180.000000        0.180480         2
         9        11        12        32     9        0.000000        0.449642         3
         9        11        12        32     9      180.000000        0.041101         4
         9        11        12        33     9        0.000000        0.125366         1
         9        11        12        33     9      180.000000        0.180480         2
         9        11        12        33     9        0.000000        0.449642         3
         9        11        12        33     9      180.000000        0.041101         4
        10         1         2        28     9        0.000000        0.017302         1
        10         1         2        28     9      180.000000       15.590693         2
        10         1         2        28     9        0.000000       -0.685135         3
        10         1         2        28     9      180.000000        0.023548         4
        10         5         4        30     9        0.000000       -0.225090         1
        10         5         4        30     9      180.000000       12.527815         2
        10         5         4        30     9        0.000000       -0.460599         3
        10         5         4        30     9      180.000000        0.015209         4
        10         9        11        12     9        0.000000        6.452291         1
        10         9        11        12     9      180.000000        6.374268         2
        10         9        11        12     9        0.000000        0.563898         3
        10         9        11        12     9      180.000000       -0.249375         4
        10         9        11        31     9        0.000000        1.592783         1
        10         9        11        31     9      180.000000        8.504649         2
        10         9        11        31     9        0.000000       -0.494063         3
        10         9        11        31     9      180.000000       -0.320796         4
        11        12        13        15     9        0.000000       -2.214803         1
        11        12        13        15     9      180.000000       -0.395093         2
        11        12        13        15     9        0.000000        0.409053         3
        11        12        13        15     9      180.000000        0.019254         4
        11        12        13        34     9        0.000000        0.180094         1
        11        12        13        34     9      180.000000        0.047771         2
        11        12        13        34     9        0.000000        0.543995         3
        11        12        13        34     9      180.000000        0.040738         4
        11        12        13        45     9        0.000000        0.180095         1
        11        12        13        45     9      180.000000        0.047771         2
        11        12        13        45     9        0.000000        0.543995         3
        11        12        13        45     9      180.000000        0.040738         4
        12        13        15        14     9        0.000000        1.004312         1
        12        13        15        14     9      180.000000       -0.435938         2
        12        13        15        14     9        0.000000        0.714467         3
        12        13        15        14     9      180.000000        0.060964         4
        12        13        15        21     9        0.000000        1.004312         1
        12        13        15        21     9      180.000000       -0.435938         2
        12        13        15        21     9        0.000000        0.714467         3
        12        13        15        21     9      180.000000        0.060964         4
        12        13        15        46     9        0.000000       -0.766157         1
        12        13        15        46     9      180.000000        0.147403         2
        12        13        15        46     9        0.000000        0.590298         3
        12        13        15        46     9      180.000000        0.050879         4
        13        12        11        31     9        0.000000        1.041880         1
        13        12        11        31     9      180.000000       -1.198779         2
        13        12        11        31     9        0.000000        0.156574         3
        13        12        11        31     9      180.000000       -0.004856         4
        13        15        14        16     9        0.000000       -0.164636         1
        13        15        14        16     9      180.000000        0.554299         2
        13        15        14        16     9        0.000000        0.131997         3
        13        15        14        16     9      180.000000        0.154996         4
        13        15        14        20     9        0.000000       -0.164636         1
        13        15        14        20     9      180.000000        0.554299         2
        13        15        14        20     9        0.000000        0.131997         3
        13        15        14        20     9      180.000000        0.154996         4
        13        15        21        22     9        0.000000       -0.164636         1
        13        15        21        22     9      180.000000        0.554299         2
        13        15        21        22     9        0.000000        0.131997         3
        13        15        21        22     9      180.000000        0.154996         4
        13        15        21        26     9        0.000000       -0.164637         1
        13        15        21        26     9      180.000000        0.554299         2
        13        15        21        26     9        0.000000        0.131997         3
        13        15        21        26     9      180.000000        0.154995         4
        14        15        13        34     9        0.000000       -0.085864         1
        14        15        13        34     9      180.000000        0.059867         2
        14        15        13        34     9        0.000000        0.671941         3
        14        15        13        34     9      180.000000        0.000302         4
        14        15        13        45     9        0.000000       -0.085864         1
        14        15        13        45     9      180.000000        0.059866         2
        14        15        13        45     9        0.000000        0.671941         3
        14        15        13        45     9      180.000000        0.000303         4
        14        15        21        22     9        0.000000        0.077723         1
        14        15        21        22     9      180.000000       -0.062176         2
        14        15        21        22     9        0.000000        0.085376         3
        14        15        21        22     9      180.000000        0.032799         4
        14        15        21        26     9        0.000000        0.077723         1
        14        15        21        26     9      180.000000       -0.062176         2
        14        15        21        26     9        0.000000        0.085376         3
        14        15        21        26     9      180.000000        0.032799         4
        14        16        17        18     9        0.000000        0.100567         1
        14        16        17        18     9      180.000000       18.461774         2
        14        16        17        18     9        0.000000       -1.434414         3
        14        16        17        18     9      180.000000       -0.416065         4
        14        16        17        36     9        0.000000        0.052087         1
        14        16        17        36     9      180.000000       14.496526         2
        14        16        17        36     9        0.000000       -0.651621         3
        14        16        17        36     9      180.000000        0.091153         4
        14        20        19        18     9        0.000000        0.100567         1
        14        20        19        18     9      180.000000       18.461774         2
        14        20        19        18     9        0.000000       -1.434414         3
        14        20        19        18     9      180.000000       -0.416065         4
        14        20        19        38     9        0.000000        0.052087         1
        14        20        19        38     9      180.000000       14.496526         2
        14        20        19        38     9        0.000000       -0.651621         3
        14        20        19        38     9      180.000000        0.091153         4
        15        13        12        32     9        0.000000       -0.043647         1
        15        13        12        32     9      180.000000        0.078068         2
        15        13        12        32     9        0.000000        0.511153         3
        15        13        12        32     9      180.000000        0.047625         4
        15        13        12        33     9        0.000000       -0.043647         1
        15        13        12        33     9      180.000000        0.078068         2
        15        13        12        33     9        0.000000        0.511153         3
        15        13        12        33     9      180.000000        0.047625         4
        15        14        16        17     9        0.000000       -0.025329         1
        15        14        16        17     9      180.000000       15.206117         2
        15        14        16        17     9        0.000000       -0.139314         3
        15        14        16        17     9      180.000000       -0.241050         4
        15        14        16        35     9        0.000000       -0.115993         1
        15        14        16        35     9      180.000000       12.691917         2
        15        14        16        35     9        0.000000       -0.371633         3
        15        14        16        35     9      180.000000        0.137850         4
        15        14        20        19     9        0.000000       -0.025329         1
        15        14        20        19     9      180.000000       15.206117         2
        15        14        20        19     9        0.000000       -0.139314         3
        15        14        20        19     9      180.000000       -0.241050         4
        15        14        20        39     9        0.000000       -0.115993         1
        15        14        20        39     9      180.000000       12.691916         2
        15        14        20        39     9        0.000000       -0.371632         3
        15        14        20        39     9      180.000000        0.137850         4
        15        21        22        23     9        0.000000       -0.025329         1
        15        21        22        23     9      180.000000       15.206117         2
        15        21        22        23     9        0.000000       -0.139314         3
        15        21        22        23     9      180.000000       -0.241050         4
        15        21        22        40     9        0.000000       -0.115993         1
        15        21        22        40     9      180.000000       12.691916         2
        15        21        22        40     9        0.000000       -0.371632         3
        15        21        22        40     9      180.000000        0.137850         4
        15        21        26        25     9        0.000000       -0.025328         1
        15        21        26        25     9      180.000000       15.206118         2
        15        21        26        25     9        0.000000       -0.139314         3
        15        21        26        25     9      180.000000       -0.241050         4
        15        21        26        44     9        0.000000       -0.115993         1
        15        21        26        44     9      180.000000       12.691917         2
        15        21        26        44     9        0.000000       -0.371633         3
        15        21        26        44     9      180.000000        0.137850         4
        16        14        15        21     9        0.000000        0.077723         1
        16        14        15        21     9      180.000000       -0.062176         2
        16        14        15        21     9        0.000000        0.085376         3
        16        14        15        21     9      180.000000        0.032799         4
        16        14        15        46     9        0.000000        0.074058         1
        16        14        15        46     9      180.000000        0.012946         2
        16        14        15        46     9        0.000000        0.050980         3
        16        14        15        46     9      180.000000        0.018322         4
        16        14        20        19     9        0.000000       -0.132971         1
        16        14        20        19     9      180.000000       19.357324         2
        16        14        20        19     9        0.000000       -1.328931         3
        16        14        20        19     9      180.000000       -0.533039         4
        16        14        20        39     9        0.000000       -0.065375         1
        16        14        20        39     9      180.000000       14.383812         2
        16        14        20        39     9        0.000000       -0.544127         3
        16        14        20        39     9      180.000000        0.004061         4
        16        17        18        19     9        0.000000       -0.055832         1
        16        17        18        19     9      180.000000       18.644568         2
        16        17        18        19     9        0.000000       -1.603952         3
        16        17        18        19     9      180.000000       -0.402848         4
        16        17        18        37     9        0.000000        0.018306         1
        16        17        18        37     9      180.000000       14.324078         2
        16        17        18        37     9        0.000000       -0.776018         3
        16        17        18        37     9      180.000000        0.121301         4
        17        16        14        20     9        0.000000       -0.132971         1
        17        16        14        20     9      180.000000       19.357324         2
        17        16        14        20     9        0.000000       -1.328931         3
        17        16        14        20     9      180.000000       -0.533039         4
        17        18        19        20     9        0.000000       -0.055832         1
        17        18        19        20     9      180.000000       18.644568         2
        17        18        19        20     9        0.000000       -1.603952         3
        17        18        19        20     9      180.000000       -0.402848         4
        17        18        19        38     9        0.000000        0.029742         1
        17        18        19        38     9      180.000000       14.140938         2
        17        18        19        38     9        0.000000       -0.787921         3
        17        18        19        38     9      180.000000        0.139391         4
        18        17        16        35     9        0.000000        0.098232         1
        18        17        16        35     9      180.000000       14.518926         2
        18        17        16        35     9        0.000000       -0.662681         3
        18        17        16        35     9      180.000000        0.103259         4
        18        19        20        39     9        0.000000        0.098232         1
        18        19        20        39     9      180.000000       14.518926         2
        18        19        20        39     9        0.000000       -0.662681         3
        18        19        20        39     9      180.000000        0.103259         4
        19        18        17        36     9        0.000000        0.029742         1
        19        18        17        36     9      180.000000       14.140938         2
        19        18        17        36     9        0.000000       -0.787921         3
        19        18        17        36     9      180.000000        0.139392         4
        20        14        15        21     9        0.000000        0.077723         1
        20        14        15        21     9      180.000000       -0.062176         2
        20        14        15        21     9        0.000000        0.085376         3
        20        14        15        21     9      180.000000        0.032799         4
        20        14        15        46     9        0.000000        0.074058         1
        20        14        15        46     9      180.000000        0.012946         2
        20        14        15        46     9        0.000000        0.050980         3
        20        14        15        46     9      180.000000        0.018322         4
        20        14        16        35     9        0.000000       -0.065375         1
        20        14        16        35     9      180.000000       14.383809         2
        20        14        16        35     9        0.000000       -0.544127         3
        20        14        16        35     9      180.000000        0.004060         4
        20        19        18        37     9        0.000000        0.018306         1
        20        19        18        37     9      180.000000       14.324078         2
        20        19        18        37     9        0.000000       -0.776018         3
        20        19        18        37     9      180.000000        0.121301         4
        21        15        13        34     9        0.000000       -0.085864         1
        21        15        13        34     9      180.000000        0.059867         2
        21        15        13        34     9        0.000000        0.671941         3
        21        15        13        34     9      180.000000        0.000302         4
        21        15        13        45     9        0.000000       -0.085864         1
        21        15        13        45     9      180.000000        0.059866         2
        21        15        13        45     9        0.000000        0.671941         3
        21        15        13        45     9      180.000000        0.000303         4
        21        22        23        24     9        0.000000        0.100567         1
        21        22        23        24     9      180.000000       18.461774         2
        21        22        23        24     9        0.000000       -1.434414         3
        21        22        23        24     9      180.000000       -0.416065         4
        21        22        23        41     9        0.000000        0.052087         1
        21        22        23        41     9      180.000000       14.496526         2
        21        22        23        41     9        0.000000       -0.651621         3
        21        22        23        41     9      180.000000        0.091153         4
        21        26        25        24     9        0.000000        0.100567         1
        21        26        25        24     9      180.000000       18.461776         2
        21        26        25        24     9        0.000000       -1.434414         3
        21        26        25        24     9      180.000000       -0.416065         4
        21        26        25        43     9        0.000000        0.052087         1
        21        26        25        43     9      180.000000       14.496526         2
        21        26        25        43     9        0.000000       -0.651621         3
        21        26        25        43     9      180.000000        0.091153         4
        22        21        15        46     9        0.000000        0.074058         1
        22        21        15        46     9      180.000000        0.012946         2
        22        21        15        46     9        0.000000        0.050980         3
        22        21        15        46     9      180.000000        0.018322         4
        22        21        26        25     9        0.000000       -0.132971         1
        22        21        26        25     9      180.000000       19.357324         2
        22        21        26        25     9        0.000000       -1.328931         3
        22        21        26        25     9      180.000000       -0.533039         4
        22        21        26        44     9        0.000000       -0.065375         1
        22        21        26        44     9      180.000000       14.383807         2
        22        21        26        44     9        0.000000       -0.544127         3
        22        21        26        44     9      180.000000        0.004060         4
        22        23        24        25     9        0.000000       -0.055833         1
        22        23        24        25     9      180.000000       18.644568         2
        22        23        24        25     9        0.000000       -1.603952         3
        22        23        24        25     9      180.000000       -0.402849         4
        22        23        24        42     9        0.000000        0.018306         1
        22        23        24        42     9      180.000000       14.324078         2
        22        23        24        42     9        0.000000       -0.776018         3
        22        23        24        42     9      180.000000        0.121301         4
        23        22        21        26     9        0.000000       -0.132971         1
        23        22        21        26     9      180.000000       19.357320         2
        23        22        21        26     9        0.000000       -1.328931         3
        23        22        21        26     9      180.000000       -0.533040         4
        23        24        25        26     9        0.000000       -0.055832         1
        23        24        25        26     9      180.000000       18.644570         2
        23        24        25        26     9        0.000000       -1.603952         3
        23        24        25        26     9      180.000000       -0.402849         4
        23        24        25        43     9        0.000000        0.029741         1
        23        24        25        43     9      180.000000       14.140935         2
        23        24        25        43     9        0.000000       -0.787921         3
        23        24        25        43     9      180.000000        0.139391         4
        24        23        22        40     9        0.000000        0.098232         1
        24        23        22        40     9      180.000000       14.518926         2
        24        23        22        40     9        0.000000       -0.662681         3
        24        23        22        40     9      180.000000        0.103259         4
        24        25        26        44     9        0.000000        0.098232         1
        24        25        26        44     9      180.000000       14.518926         2
        24        25        26        44     9        0.000000       -0.662680         3
        24        25        26        44     9      180.000000        0.103259         4
        25        24        23        41     9        0.000000        0.029742         1
        25        24        23        41     9      180.000000       14.140937         2
        25        24        23        41     9        0.000000       -0.787921         3
        25        24        23        41     9      180.000000        0.139391         4
        26        21        15        46     9        0.000000        0.074059         1
        26        21        15        46     9      180.000000        0.012946         2
        26        21        15        46     9        0.000000        0.050980         3
        26        21        15        46     9      180.000000        0.018322         4
        26        21        22        40     9        0.000000       -0.065375         1
        26        21        22        40     9      180.000000       14.383807         2
        26        21        22        40     9        0.000000       -0.544126         3
        26        21        22        40     9      180.000000        0.004060         4
        26        25        24        42     9        0.000000        0.018306         1
        26        25        24        42     9      180.000000       14.324078         2
        26        25        24        42     9        0.000000       -0.776018         3
        26        25        24        42     9      180.000000        0.121300         4
        27         1         2        28     9        0.000000       -0.137634         1
        27         1         2        28     9      180.000000       12.589764         2
        27         1         2        28     9        0.000000       -0.667354         3
        27         1         2        28     9      180.000000        0.345819         4
        28         2         3        29     9        0.000000       -0.147962         1
        28         2         3        29     9      180.000000       10.709597         2
        28         2         3        29     9        0.000000       -0.435250         3
        28         2         3        29     9      180.000000        0.161096         4
        29         3         4        30     9        0.000000       -0.178201         1
        29         3         4        30     9      180.000000       12.660111         2
        29         3         4        30     9        0.000000       -0.630657         3
        29         3         4        30     9      180.000000        0.361235         4
        31        11        12        32     9        0.000000       -0.043878         1
        31        11        12        32     9      180.000000        0.204746         2
        31        11        12        32     9        0.000000        0.414097         3
        31        11        12        32     9      180.000000        0.015971         4
        31        11        12        33     9        0.000000       -0.043878         1
        31        11        12        33     9      180.000000        0.204746         2
        31        11        12        33     9        0.000000        0.414097         3
        31        11        12        33     9      180.000000        0.015971         4
        32        12        13        34     9        0.000000       -0.013978         1
        32        12        13        34     9      180.000000        0.078350         2
        32        12        13        34     9        0.000000        0.646945         3
        32        12        13        34     9      180.000000       -0.044310         4
        32        12        13        45     9        0.000000       -0.013978         1
        32        12        13        45     9      180.000000        0.078349         2
        32        12        13        45     9        0.000000        0.646945         3
        32        12        13        45     9      180.000000       -0.044310         4
        33        12        13        34     9        0.000000       -0.013978         1
        33        12        13        34     9      180.000000        0.078350         2
        33        12        13        34     9        0.000000        0.646945         3
        33        12        13        34     9      180.000000       -0.044310         4
        33        12        13        45     9        0.000000       -0.013978         1
        33        12        13        45     9      180.000000        0.078349         2
        33        12        13        45     9        0.000000        0.646945         3
        33        12        13        45     9      180.000000       -0.044310         4
        34        13        15        46     9        0.000000        0.415250         1
        34        13        15        46     9      180.000000       -0.050127         2
        34        13        15        46     9        0.000000        0.565921         3
        34        13        15        46     9      180.000000       -0.074827         4
        35        16        17        36     9        0.000000       -0.093840         1
        35        16        17        36     9      180.000000       11.931994         2
        35        16        17        36     9        0.000000       -0.649558         3
        35        16        17        36     9      180.000000        0.254077         4
        36        17        18        37     9        0.000000       -0.083747         1
        36        17        18        37     9      180.000000       11.659430         2
        36        17        18        37     9        0.000000       -0.611749         3
        36        17        18        37     9      180.000000        0.244547         4
        37        18        19        38     9        0.000000       -0.083746         1
        37        18        19        38     9      180.000000       11.659430         2
        37        18        19        38     9        0.000000       -0.611749         3
        37        18        19        38     9      180.000000        0.244547         4
        38        19        20        39     9        0.000000       -0.093840         1
        38        19        20        39     9      180.000000       11.931995         2
        38        19        20        39     9        0.000000       -0.649558         3
        38        19        20        39     9      180.000000        0.254077         4
        40        22        23        41     9        0.000000       -0.093840         1
        40        22        23        41     9      180.000000       11.931995         2
        40        22        23        41     9        0.000000       -0.649558         3
        40        22        23        41     9      180.000000        0.254077         4
        41        23        24        42     9        0.000000       -0.083746         1
        41        23        24        42     9      180.000000       11.659429         2
        41        23        24        42     9        0.000000       -0.611749         3
        41        23        24        42     9      180.000000        0.244547         4
        42        24        25        43     9        0.000000       -0.083747         1
        42        24        25        43     9      180.000000       11.659429         2
        42        24        25        43     9        0.000000       -0.611749         3
        42        24        25        43     9      180.000000        0.244547         4
        43        25        26        44     9        0.000000       -0.093840         1
        43        25        26        44     9      180.000000       11.931995         2
        43        25        26        44     9        0.000000       -0.649558         3
        43        25        26        44     9      180.000000        0.254077         4
        45        13        15        46     9        0.000000        0.415250         1
        45        13        15        46     9      180.000000       -0.050127         2
        45        13        15        46     9        0.000000        0.565921         3
        45        13        15        46     9      180.000000       -0.074827         4

[ dihedrals ] ; impropers
;       ai        aj        ak        al funct           phase               k        pn
         5         4         6        10     4      180.000000        1.166746         2
         5         6        10         4     4      180.000000        1.166746         2
         5        10         4         6     4      180.000000        1.166746         2
         7         6         8        47     4      180.000000       27.209503         2
         7         8        47         6     4      180.000000       27.209503         2
         7        47         6         8     4      180.000000       27.209503         2
         9         8        10        11     4      180.000000       23.524282         2
         9        10        11         8     4      180.000000       23.524282         2
         9        11         8        10     4      180.000000       23.524282         2
        16        14        17        35     4      180.000000        3.336013         2
        16        17        35        14     4      180.000000        3.336013         2
        16        35        14        17     4      180.000000        3.336013         2
        17        16        18        36     4      180.000000        2.510755         2
        17        18        36        16     4      180.000000        2.510755         2
        17        36        16        18     4      180.000000        2.510755         2
        18        17        19        37     4      180.000000        2.182729         2
        18        19        37        17     4      180.000000        2.182729         2
        18        37        17        19     4      180.000000        2.182729         2
        19        18        20        38     4      180.000000        2.510755         2
        19        20        38        18     4      180.000000        2.510755         2
        19        38        18        20     4      180.000000        2.510755         2
        20        14        19        39     4      180.000000        3.336013         2
        20        19        39        14     4      180.000000        3.336013         2
        20        39        14        19     4      180.000000        3.336013         2
        22        21        23        40     4      180.000000        3.336013         2
        22        23        40        21     4      180.000000        3.336013         2
        22        40        21        23     4      180.000000        3.336013         2
        23        22        24        41     4      180.000000        2.510755         2
        23        24        41        22     4      180.000000        2.510755         2
        23        41        22        24     4      180.000000        2.510755         2
        24        23        25        42     4      180.000000        2.182730         2
        24        25        42        23     4      180.000000        2.182730         2
        24        42        23        25     4      180.000000        2.182730         2
        25        24        26        43     4      180.000000        2.510755         2
        25        26        43        24     4      180.000000        2.510755         2
        25        43        24        26     4      180.000000        2.510755         2
        26        21        25        44     4      180.000000        3.336013         2
        26        25        44        21     4      180.000000        3.336013         2
        26        44        21        25     4      180.000000        3.336013         2

[ pairs ]
;       ai        aj funct
         1         4     1
         1         6     1
         1         8     1
         1        11     1
         1        29     1
         2         5     1
         2         9     1
         2        30     1
         3         6     1
         3        10     1
         3        27     1
         4         7     1
         4         9     1
         4        28     1
         5         8     1
         5        11     1
         5        27     1
         5        29     1
         5        47     1
         6         9     1
         6        30     1
         7        10     1
         7        11     1
         8        12     1
         8        31     1
         9        13     1
         9        27     1
         9        32     1
         9        33     1
         9        47     1
        10        12     1
        10        28     1
        10        30     1
        10        31     1
        11        15     1
        11        34     1
        11        45     1
        12        14     1
        12        21     1
        12        46     1
        13        16     1
        13        20     1
        13        22     1
        13        26     1
        13        31     1
        14        18     1
        14        22     1
        14        26     1
        14        34     1
        14        36     1
        14        38     1
        14        45     1
        15        17     1
        15        19     1
        15        23     1
        15        25     1
        15        32     1
        15        33     1
        15        35     1
        15        39     1
        15        40     1
        15        44     1
        16        19     1
        16        21     1
        16        37     1
        16        39     1
        16        46     1
        17        20     1
        17        38     1
        18        35     1
        18        39     1
        19        36     1
        20        21     1
        20        35     1
        20        37     1
        20        46     1
        21        24     1
        21        34     1
        21        41     1
        21        43     1
        21        45     1
        22        25     1
        22        42     1
        22        44     1
        22        46     1
        23        26     1
        23        43     1
        24        40     1
        24        44     1
        25        41     1
        26        40     1
        26        42     1
        26        46     1
        27        28     1
        28        29     1
        29        30     1
        31        32     1
        31        33     1
        32        34     1
        32        45     1
        33        34     1
        33        45     1
        34        46     1
        35        36     1
        36        37     1
        37        38     1
        38        39     1
        40        41     1
        41        42     1
        42        43     1
        43        44     1
        45        46     1
