; ITP file created by ByteFF-ML, 2025-12-06 08:17:51.045488

[ atomtypes ]
;name           bonded.type        at.num        mass        charge   ptype           sigma         epsilon
 c0bf                                   6      0.0000       0.00000       A     3.31573e-01     4.12890e-01
 c1bf                                   6      0.0000       0.00000       A     3.31518e-01     4.12574e-01
 c2bf                                   6      0.0000       0.00000       A     3.31477e-01     4.12772e-01
 c3bf                                   6      0.0000       0.00000       A     3.31477e-01     4.13791e-01
 c4bf                                   6      0.0000       0.00000       A     3.31445e-01     4.12790e-01
 n5bf                                   7      0.0000       0.00000       A     3.38494e-01     3.92269e-01
 c6bf                                   6      0.0000       0.00000       A     3.31558e-01     4.12274e-01
 c7bf                                   6      0.0000       0.00000       A     3.31533e-01     4.12364e-01
 c8bf                                   6      0.0000       0.00000       A     3.31388e-01     4.12308e-01
 c9bf                                   6      0.0000       0.00000       A     3.31629e-01     4.12375e-01
 n10bf                                  7      0.0000       0.00000       A     3.27887e-01     6.47359e-01
 c11bf                                  6      0.0000       0.00000       A     3.39849e-01     4.52733e-01
 c12bf                                  6      0.0000       0.00000       A     3.39929e-01     4.49847e-01
 c13bf                                  6      0.0000       0.00000       A     3.31523e-01     4.12617e-01
 c14bf                                  6      0.0000       0.00000       A     3.39859e-01     4.50261e-01
 c15bf                                  6      0.0000       0.00000       A     3.31481e-01     4.13328e-01
 c16bf                                  6      0.0000       0.00000       A     3.31506e-01     4.13446e-01
 c17bf                                  6      0.0000       0.00000       A     3.31497e-01     4.12820e-01
 c18bf                                  6      0.0000       0.00000       A     3.31506e-01     4.13446e-01
 c19bf                                  6      0.0000       0.00000       A     3.31481e-01     4.13328e-01
 c20bf                                  6      0.0000       0.00000       A     3.31523e-01     4.12617e-01
 c21bf                                  6      0.0000       0.00000       A     3.31481e-01     4.13328e-01
 c22bf                                  6      0.0000       0.00000       A     3.31506e-01     4.13446e-01
 c23bf                                  6      0.0000       0.00000       A     3.31497e-01     4.12820e-01
 c24bf                                  6      0.0000       0.00000       A     3.31506e-01     4.13446e-01
 c25bf                                  6      0.0000       0.00000       A     3.31481e-01     4.13328e-01
 h26bf                                  1      0.0000       0.00000       A     2.62481e-01     6.75329e-02
 h27bf                                  1      0.0000       0.00000       A     2.62489e-01     6.75504e-02
 h28bf                                  1      0.0000       0.00000       A     2.62455e-01     6.76877e-02
 h29bf                                  1      0.0000       0.00000       A     2.62555e-01     6.73589e-02
 h30bf                                  1      0.0000       0.00000       A     1.10631e-01     4.04093e-02
 h31bf                                  1      0.0000       0.00000       A     2.42380e-01     8.71997e-02
 h32bf                                  1      0.0000       0.00000       A     2.42380e-01     8.71997e-02
 h33bf                                  1      0.0000       0.00000       A     2.60105e-01     8.67623e-02
 h34bf                                  1      0.0000       0.00000       A     2.62480e-01     6.76701e-02
 h35bf                                  1      0.0000       0.00000       A     2.62458e-01     6.72983e-02
 h36bf                                  1      0.0000       0.00000       A     2.62457e-01     6.73477e-02
 h37bf                                  1      0.0000       0.00000       A     2.62458e-01     6.72983e-02
 h38bf                                  1      0.0000       0.00000       A     2.62480e-01     6.76717e-02
 h39bf                                  1      0.0000       0.00000       A     2.62480e-01     6.76717e-02
 h40bf                                  1      0.0000       0.00000       A     2.62458e-01     6.72983e-02
 h41bf                                  1      0.0000       0.00000       A     2.62457e-01     6.73477e-02
 h42bf                                  1      0.0000       0.00000       A     2.62458e-01     6.72983e-02
 h43bf                                  1      0.0000       0.00000       A     2.62480e-01     6.76717e-02
 h44bf                                  1      0.0000       0.00000       A     2.60105e-01     8.67623e-02
 h45bf                                  1      0.0000       0.00000       A     2.59889e-01     8.79115e-02
 h46bf                                  1      0.0000       0.00000       A     2.53508e-01     6.79064e-02
 h47bf                                  1      0.0000       0.00000       A     2.62480e-01     6.79910e-02

[ moleculetype ]
;name             nrexcl
 3d                    3

[ atoms ]
;       nr            type      resi   res      atom      cgnr      charge          mass ; qtot
         1            c0bf         1   UNL        c0         1    -0.08667       12.0110 ; qtot   -0.087
         2            c1bf         1   UNL        c1         2    -0.11945       12.0110 ; qtot   -0.206
         3            c2bf         1   UNL        c2         3    -0.09744       12.0110 ; qtot   -0.304
         4            c3bf         1   UNL        c3         4    -0.09093       12.0110 ; qtot   -0.394
         5            c4bf         1   UNL        c4         5     0.28492       12.0110 ; qtot   -0.110
         6            n5bf         1   UNL        n5         6    -0.68531       14.0070 ; qtot   -0.795
         7            c6bf         1   UNL        c6         7     0.38346       12.0110 ; qtot   -0.411
         8            c7bf         1   UNL        c7         8    -0.26444       12.0110 ; qtot   -0.676
         9            c8bf         1   UNL        c8         9     0.35600       12.0110 ; qtot   -0.320
        10            c9bf         1   UNL        c9        10    -0.12060       12.0110 ; qtot   -0.440
        11           n10bf         1   UNL       n10        11    -0.93761       14.0070 ; qtot   -1.378
        12           c11bf         1   UNL       c11        12     0.19894       12.0110 ; qtot   -1.179
        13           c12bf         1   UNL       c12        13    -0.08898       12.0110 ; qtot   -1.268
        14           c13bf         1   UNL       c13        14    -0.08511       12.0110 ; qtot   -1.353
        15           c14bf         1   UNL       c14        15     0.03332       12.0110 ; qtot   -1.320
        16           c15bf         1   UNL       c15        16    -0.10676       12.0110 ; qtot   -1.427
        17           c16bf         1   UNL       c16        17    -0.11255       12.0110 ; qtot   -1.539
        18           c17bf         1   UNL       c17        18    -0.10702       12.0110 ; qtot   -1.646
        19           c18bf         1   UNL       c18        19    -0.11255       12.0110 ; qtot   -1.759
        20           c19bf         1   UNL       c19        20    -0.10676       12.0110 ; qtot   -1.866
        21           c20bf         1   UNL       c20        21    -0.08511       12.0110 ; qtot   -1.951
        22           c21bf         1   UNL       c21        22    -0.10676       12.0110 ; qtot   -2.057
        23           c22bf         1   UNL       c22        23    -0.11255       12.0110 ; qtot   -2.170
        24           c23bf         1   UNL       c23        24    -0.10702       12.0110 ; qtot   -2.277
        25           c24bf         1   UNL       c24        25    -0.11255       12.0110 ; qtot   -2.390
        26           c25bf         1   UNL       c25        26    -0.10676       12.0110 ; qtot   -2.496
        27           h26bf         1   UNL       h26        27     0.11148        1.0080 ; qtot   -2.385
        28           h27bf         1   UNL       h27        28     0.11770        1.0080 ; qtot   -2.267
        29           h28bf         1   UNL       h28        29     0.11823        1.0080 ; qtot   -2.149
        30           h29bf         1   UNL       h29        30     0.13375        1.0080 ; qtot   -2.015
        31           h30bf         1   UNL       h30        31     0.46016        1.0080 ; qtot   -1.555
        32           h31bf         1   UNL       h31        32     0.04862        1.0080 ; qtot   -1.506
        33           h32bf         1   UNL       h32        33     0.04862        1.0080 ; qtot   -1.458
        34           h33bf         1   UNL       h33        34     0.05553        1.0080 ; qtot   -1.402
        35           h34bf         1   UNL       h34        35     0.11602        1.0080 ; qtot   -1.286
        36           h35bf         1   UNL       h35        36     0.11408        1.0080 ; qtot   -1.172
        37           h36bf         1   UNL       h36        37     0.11320        1.0080 ; qtot   -1.059
        38           h37bf         1   UNL       h37        38     0.11408        1.0080 ; qtot   -0.945
        39           h38bf         1   UNL       h38        39     0.11602        1.0080 ; qtot   -0.829
        40           h39bf         1   UNL       h39        40     0.11602        1.0080 ; qtot   -0.713
        41           h40bf         1   UNL       h40        41     0.11408        1.0080 ; qtot   -0.599
        42           h41bf         1   UNL       h41        42     0.11320        1.0080 ; qtot   -0.485
        43           h42bf         1   UNL       h42        43     0.11408        1.0080 ; qtot   -0.371
        44           h43bf         1   UNL       h43        44     0.11602        1.0080 ; qtot   -0.255
        45           h44bf         1   UNL       h44        45     0.05553        1.0080 ; qtot   -0.200
        46           h45bf         1   UNL       h45        46     0.05670        1.0080 ; qtot   -0.143
        47           h46bf         1   UNL       h46        47     0.01879        1.0080 ; qtot   -0.124
        48           h47bf         1   UNL       h47        48     0.12438        1.0080 ; qtot    0.000

[ bonds ]
;       ai        aj funct               r               k
         1         2     1        0.138188   347361.405420
         1        10     1        0.142025   270112.492285
         1        27     1        0.108510   319443.752246
         2         3     1        0.141587   277601.402832
         2        28     1        0.108595   320779.240918
         3         4     1        0.137962   356458.055762
         3        29     1        0.108627   319930.106494
         4         5     1        0.142165   275301.632910
         4        30     1        0.108529   322911.793848
         5         6     1        0.136808   267698.724707
         5        10     1        0.143217   236555.709082
         6         7     1        0.132140   377167.170312
         7         8     1        0.141201   272795.497607
         7        47     1        0.108923   311023.579932
         8         9     1        0.139205   316526.341797
         8        48     1        0.108381   325006.730615
         9        10     1        0.144122   231671.481543
         9        11     1        0.138071   299530.527246
        11        12     1        0.146153   207995.644385
        11        31     1        0.101171   414760.936377
        12        13     1        0.153358   183282.860132
        12        32     1        0.109585   291933.135059
        12        33     1        0.109585   291933.135059
        13        15     1        0.154791   161268.441772
        13        34     1        0.109495   296531.678955
        13        45     1        0.109495   296531.678955
        14        15     1        0.152487   177829.231665
        14        16     1        0.140288   288053.435254
        14        20     1        0.140288   288053.435254
        15        21     1        0.152487   177829.231665
        15        46     1        0.109609   292897.007715
        16        17     1        0.139831   309672.130566
        16        35     1        0.108651   316913.229004
        17        18     1        0.139910   306540.770215
        17        36     1        0.108649   318926.293799
        18        19     1        0.139910   306540.770215
        18        37     1        0.108629   319751.295654
        19        20     1        0.139831   309672.130566
        19        38     1        0.108649   318926.293799
        20        39     1        0.108651   316913.229004
        21        22     1        0.140288   288053.435254
        21        26     1        0.140288   288053.435254
        22        23     1        0.139831   309672.130566
        22        40     1        0.108651   316913.229004
        23        24     1        0.139910   306540.770215
        23        41     1        0.108649   318926.293799
        24        25     1        0.139910   306540.770215
        24        42     1        0.108629   319751.295654
        25        26     1        0.139831   309672.130566
        25        43     1        0.108649   318926.293799
        26        44     1        0.108651   316913.254541

[ angles ]
;       ai        aj        ak funct           theta             cth
         1         2         3     1      120.190491      681.543888
         1         2        28     1      120.035507      443.331625
         1        10         5     1      118.844482      757.023092
         1        10         9     1      123.368080      477.312898
         2         1        10     1      120.845604      592.123465
         2         1        27     1      118.987366      445.764864
         2         3         4     1      120.126694      711.305984
         2         3        29     1      119.737793      442.947898
         3         2        28     1      119.759666      446.868355
         3         4         5     1      120.744492      603.314656
         3         4        30     1      121.862106      429.036015
         4         3        29     1      120.184059      443.606819
         4         5         6     1      117.677872      433.260459
         4         5        10     1      118.884644      691.139520
         5         4        30     1      117.478699      445.399875
         5         6         7     1      116.628830      435.703275
         5        10         9     1      117.710892      872.109970
         6         5        10     1      123.355408      706.771551
         6         7         8     1      125.216187      693.824173
         6         7        47     1      116.277954      365.335770
         7         8         9     1      119.519081      855.402252
         7         8        48     1      119.068542      464.812100
         8         7        47     1      118.572617      419.431635
         8         9        10     1      117.353928      605.054435
         8         9        11     1      122.792847      595.029077
         9         8        48     1      121.429321      438.299537
         9        11        12     1      122.632973      486.656863
         9        11        31     1      114.884079      470.650618
        10         1        27     1      120.375938      417.979500
        10         9        11     1      119.988510      486.049941
        11        12        13     1      112.255676      582.515255
        11        12        32     1      109.157776      462.923759
        11        12        33     1      109.157776      462.923759
        12        11        31     1      113.546692      462.155187
        12        13        15     1      114.034447      580.304890
        12        13        34     1      109.027916      512.307612
        12        13        45     1      109.027916      512.307612
        13        12        32     1      109.740623      498.996075
        13        12        33     1      109.740623      498.996075
        13        15        14     1      112.160873      575.900952
        13        15        21     1      112.160873      575.900952
        13        15        46     1      106.370605      494.947070
        14        15        21     1      111.951767      502.502288
        14        15        46     1      106.611694      487.625485
        14        16        17     1      120.963661      707.473566
        14        16        35     1      119.594765      388.507185
        14        20        19     1      120.963661      707.473566
        14        20        39     1      119.594765      388.507154
        15        13        34     1      109.032822      468.827268
        15        13        45     1      109.032822      468.827204
        15        14        16     1      120.819603      485.006655
        15        14        20     1      120.819603      485.006655
        15        21        22     1      120.819603      485.006655
        15        21        26     1      120.819603      485.006655
        16        14        20     1      118.240677      721.110766
        16        17        18     1      120.154312      709.440179
        16        17        36     1      119.775925      429.066244
        17        16        35     1      119.555504      431.916792
        17        18        19     1      119.475426      707.369056
        17        18        37     1      120.262108      430.653790
        18        17        36     1      120.092667      423.840107
        18        19        20     1      120.154312      709.440179
        18        19        38     1      120.092667      423.840107
        19        18        37     1      120.262108      430.653790
        19        20        39     1      119.555496      431.916856
        20        19        38     1      119.775925      429.066276
        21        15        46     1      106.611710      487.625485
        21        22        23     1      120.963661      707.473566
        21        22        40     1      119.594765      388.507154
        21        26        25     1      120.963661      707.473566
        21        26        44     1      119.594765      388.507185
        22        21        26     1      118.240677      721.110766
        22        23        24     1      120.154312      709.440179
        22        23        41     1      119.775925      429.066276
        23        22        40     1      119.555496      431.916856
        23        24        25     1      119.475426      707.369056
        23        24        42     1      120.262100      430.653790
        24        23        41     1      120.092667      423.840107
        24        25        26     1      120.154312      709.440179
        24        25        43     1      120.092667      423.840107
        25        24        42     1      120.262100      430.653790
        25        26        44     1      119.555496      431.916856
        26        25        43     1      119.775925      429.066276
        32        12        33     1      106.689499      353.962723
        34        13        45     1      106.861282      358.402413

[ dihedrals ] ; propers for gromacs 4.5 or higher, use funct 9
;       ai        aj        ak        al funct           phase               k        pn
         1         2         3         4     9        0.000000        0.093531         1
         1         2         3         4     9      180.000000       16.164451         2
         1         2         3         4     9        0.000000       -1.431472         3
         1         2         3         4     9      180.000000       -0.288512         4
         1         2         3        29     9        0.000000        0.001792         1
         1         2         3        29     9      180.000000       12.754601         2
         1         2         3        29     9        0.000000       -0.641590         3
         1         2         3        29     9      180.000000        0.123785         4
         1        10         5         4     9        0.000000        0.215802         1
         1        10         5         4     9      180.000000       11.286679         2
         1        10         5         4     9        0.000000       -0.834818         3
         1        10         5         4     9      180.000000       -0.125615         4
         1        10         5         6     9        0.000000        0.300381         1
         1        10         5         6     9      180.000000       11.246348         2
         1        10         5         6     9        0.000000       -0.372632         3
         1        10         5         6     9      180.000000       -0.237861         4
         1        10         9         8     9        0.000000       -0.266295         1
         1        10         9         8     9      180.000000        7.514684         2
         1        10         9         8     9        0.000000       -0.145579         3
         1        10         9         8     9      180.000000       -0.047681         4
         1        10         9        11     9        0.000000       -0.128321         1
         1        10         9        11     9      180.000000       10.056806         2
         1        10         9        11     9        0.000000        0.296246         3
         1        10         9        11     9      180.000000       -0.217858         4
         2         1        10         5     9        0.000000       -0.157598         1
         2         1        10         5     9      180.000000       16.615098         2
         2         1        10         5     9        0.000000       -1.080200         3
         2         1        10         5     9      180.000000       -0.278909         4
         2         1        10         9     9        0.000000        0.080524         1
         2         1        10         9     9      180.000000       13.667711         2
         2         1        10         9     9        0.000000       -0.878063         3
         2         1        10         9     9      180.000000       -0.121872         4
         2         3         4         5     9        0.000000       -0.100048         1
         2         3         4         5     9      180.000000       20.755553         2
         2         3         4         5     9        0.000000       -1.524607         3
         2         3         4         5     9      180.000000       -0.529857         4
         2         3         4        30     9        0.000000       -0.035340         1
         2         3         4        30     9      180.000000       15.625541         2
         2         3         4        30     9        0.000000       -0.461150         3
         2         3         4        30     9      180.000000        0.110803         4
         3         2         1        10     9        0.000000       -0.139801         1
         3         2         1        10     9      180.000000       20.932174         2
         3         2         1        10     9        0.000000       -2.008332         3
         3         2         1        10     9      180.000000       -0.474304         4
         3         2         1        27     9        0.000000        0.003086         1
         3         2         1        27     9      180.000000       16.261918         2
         3         2         1        27     9        0.000000       -0.520852         3
         3         2         1        27     9      180.000000        0.081899         4
         3         4         5         6     9        0.000000        0.091311         1
         3         4         5         6     9      180.000000       14.272106         2
         3         4         5         6     9        0.000000       -0.131210         3
         3         4         5         6     9      180.000000       -0.253721         4
         3         4         5        10     9        0.000000       -0.195057         1
         3         4         5        10     9      180.000000       15.667511         2
         3         4         5        10     9        0.000000       -0.984254         3
         3         4         5        10     9      180.000000       -0.270704         4
         4         3         2        28     9        0.000000        0.041466         1
         4         3         2        28     9      180.000000       13.274742         2
         4         3         2        28     9        0.000000       -0.625897         3
         4         3         2        28     9      180.000000        0.093677         4
         4         5         6         7     9        0.000000       -0.073448         1
         4         5         6         7     9      180.000000       18.308944         2
         4         5         6         7     9        0.000000        0.376895         3
         4         5         6         7     9      180.000000       -0.264939         4
         4         5        10         9     9        0.000000       -0.015410         1
         4         5        10         9     9      180.000000       11.436945         2
         4         5        10         9     9        0.000000       -0.964399         3
         4         5        10         9     9      180.000000       -0.234477         4
         5         4         3        29     9        0.000000        0.131475         1
         5         4         3        29     9      180.000000       15.530986         2
         5         4         3        29     9        0.000000       -0.370118         3
         5         4         3        29     9      180.000000        0.059742         4
         5         6         7         8     9        0.000000       -0.230884         1
         5         6         7         8     9      180.000000       25.501312         2
         5         6         7         8     9        0.000000       -0.660561         3
         5         6         7         8     9      180.000000       -0.463238         4
         5         6         7        47     9        0.000000        1.109839         1
         5         6         7        47     9      180.000000       23.214832         2
         5         6         7        47     9        0.000000        0.247081         3
         5         6         7        47     9      180.000000       -0.581387         4
         5        10         1        27     9        0.000000        0.005053         1
         5        10         1        27     9      180.000000       11.729282         2
         5        10         1        27     9        0.000000       -0.186721         3
         5        10         1        27     9      180.000000        0.062970         4
         5        10         9         8     9        0.000000       -0.235087         1
         5        10         9         8     9      180.000000        9.713275         2
         5        10         9         8     9        0.000000       -0.262046         3
         5        10         9         8     9      180.000000       -0.106242         4
         5        10         9        11     9        0.000000       -0.094163         1
         5        10         9        11     9      180.000000       11.541214         2
         5        10         9        11     9        0.000000        0.283929         3
         5        10         9        11     9      180.000000       -0.378566         4
         6         5         4        30     9        0.000000        0.042513         1
         6         5         4        30     9      180.000000       12.473045         2
         6         5         4        30     9        0.000000       -0.335710         3
         6         5         4        30     9      180.000000       -0.025894         4
         6         5        10         9     9        0.000000       -0.008086         1
         6         5        10         9     9      180.000000       11.060222         2
         6         5        10         9     9        0.000000       -0.492641         3
         6         5        10         9     9      180.000000       -0.256405         4
         6         7         8         9     9        0.000000       -0.061047         1
         6         7         8         9     9      180.000000       15.237562         2
         6         7         8         9     9        0.000000       -1.115737         3
         6         7         8         9     9      180.000000       -0.332330         4
         6         7         8        48     9        0.000000       -0.072255         1
         6         7         8        48     9      180.000000       12.676603         2
         6         7         8        48     9        0.000000       -0.262795         3
         6         7         8        48     9      180.000000       -0.049252         4
         7         6         5        10     9        0.000000       -0.075466         1
         7         6         5        10     9      180.000000       18.063397         2
         7         6         5        10     9        0.000000        0.045141         3
         7         6         5        10     9      180.000000       -0.206537         4
         7         8         9        10     9        0.000000        0.225635         1
         7         8         9        10     9      180.000000       16.149748         2
         7         8         9        10     9        0.000000       -0.750911         3
         7         8         9        10     9      180.000000       -0.245256         4
         7         8         9        11     9        0.000000        0.172310         1
         7         8         9        11     9      180.000000       17.374268         2
         7         8         9        11     9        0.000000        0.230735         3
         7         8         9        11     9      180.000000       -0.425132         4
         8         9        11        12     9        0.000000       -0.602466         1
         8         9        11        12     9      180.000000        6.141818         2
         8         9        11        12     9        0.000000       -0.299123         3
         8         9        11        12     9      180.000000       -0.140169         4
         8         9        11        31     9        0.000000       -0.415809         1
         8         9        11        31     9      180.000000        7.129830         2
         8         9        11        31     9        0.000000       -0.104534         3
         8         9        11        31     9      180.000000       -0.416457         4
         9         8         7        47     9        0.000000        0.270022         1
         9         8         7        47     9      180.000000       12.925206         2
         9         8         7        47     9        0.000000       -0.688825         3
         9         8         7        47     9      180.000000        0.014346         4
         9        10         1        27     9        0.000000       -0.048886         1
         9        10         1        27     9      180.000000       11.303778         2
         9        10         1        27     9        0.000000       -0.482779         3
         9        10         1        27     9      180.000000        0.077251         4
         9        11        12        13     9        0.000000        0.804272         1
         9        11        12        13     9      180.000000       -0.316435         2
         9        11        12        13     9        0.000000        0.705372         3
         9        11        12        13     9      180.000000        0.036211         4
         9        11        12        32     9        0.000000       -0.326916         1
         9        11        12        32     9      180.000000        0.083280         2
         9        11        12        32     9        0.000000        0.856894         3
         9        11        12        32     9      180.000000        0.033689         4
         9        11        12        33     9        0.000000       -0.326916         1
         9        11        12        33     9      180.000000        0.083280         2
         9        11        12        33     9        0.000000        0.856894         3
         9        11        12        33     9      180.000000        0.033689         4
        10         1         2        28     9        0.000000        0.004245         1
        10         1         2        28     9      180.000000       15.758266         2
        10         1         2        28     9        0.000000       -0.685484         3
        10         1         2        28     9      180.000000        0.002590         4
        10         5         4        30     9        0.000000       -0.211491         1
        10         5         4        30     9      180.000000       12.083409         2
        10         5         4        30     9        0.000000       -0.156366         3
        10         5         4        30     9      180.000000       -0.061998         4
        10         9         8        48     9        0.000000        0.018062         1
        10         9         8        48     9      180.000000       12.974335         2
        10         9         8        48     9        0.000000       -0.330708         3
        10         9         8        48     9      180.000000        0.093617         4
        10         9        11        12     9        0.000000        2.113163         1
        10         9        11        12     9      180.000000        4.972332         2
        10         9        11        12     9        0.000000        1.006051         3
        10         9        11        12     9      180.000000       -0.173349         4
        10         9        11        31     9        0.000000        1.656945         1
        10         9        11        31     9      180.000000        5.823580         2
        10         9        11        31     9        0.000000       -0.076386         3
        10         9        11        31     9      180.000000       -0.341040         4
        11         9         8        48     9        0.000000       -0.187863         1
        11         9         8        48     9      180.000000       13.896449         2
        11         9         8        48     9        0.000000       -0.145611         3
        11         9         8        48     9      180.000000        0.240764         4
        11        12        13        15     9        0.000000       -1.182841         1
        11        12        13        15     9      180.000000       -0.428243         2
        11        12        13        15     9        0.000000        0.474336         3
        11        12        13        15     9      180.000000        0.004280         4
        11        12        13        34     9        0.000000        0.020974         1
        11        12        13        34     9      180.000000        0.107357         2
        11        12        13        34     9        0.000000        0.546992         3
        11        12        13        34     9      180.000000        0.044630         4
        11        12        13        45     9        0.000000        0.020973         1
        11        12        13        45     9      180.000000        0.107358         2
        11        12        13        45     9        0.000000        0.546992         3
        11        12        13        45     9      180.000000        0.044630         4
        12        13        15        14     9        0.000000        0.817385         1
        12        13        15        14     9      180.000000       -0.446975         2
        12        13        15        14     9        0.000000        0.710033         3
        12        13        15        14     9      180.000000        0.063608         4
        12        13        15        21     9        0.000000        0.817385         1
        12        13        15        21     9      180.000000       -0.446975         2
        12        13        15        21     9        0.000000        0.710033         3
        12        13        15        21     9      180.000000        0.063608         4
        12        13        15        46     9        0.000000       -0.826950         1
        12        13        15        46     9      180.000000        0.170977         2
        12        13        15        46     9        0.000000        0.574191         3
        12        13        15        46     9      180.000000        0.056078         4
        13        12        11        31     9        0.000000        0.870938         1
        13        12        11        31     9      180.000000       -1.045851         2
        13        12        11        31     9        0.000000       -0.016772         3
        13        12        11        31     9      180.000000        0.035012         4
        13        15        14        16     9        0.000000       -0.125599         1
        13        15        14        16     9      180.000000        0.548086         2
        13        15        14        16     9        0.000000        0.125767         3
        13        15        14        16     9      180.000000        0.154117         4
        13        15        14        20     9        0.000000       -0.125599         1
        13        15        14        20     9      180.000000        0.548086         2
        13        15        14        20     9        0.000000        0.125767         3
        13        15        14        20     9      180.000000        0.154117         4
        13        15        21        22     9        0.000000       -0.125599         1
        13        15        21        22     9      180.000000        0.548086         2
        13        15        21        22     9        0.000000        0.125767         3
        13        15        21        22     9      180.000000        0.154117         4
        13        15        21        26     9        0.000000       -0.125599         1
        13        15        21        26     9      180.000000        0.548085         2
        13        15        21        26     9        0.000000        0.125767         3
        13        15        21        26     9      180.000000        0.154117         4
        14        15        13        34     9        0.000000       -0.092400         1
        14        15        13        34     9      180.000000        0.071655         2
        14        15        13        34     9        0.000000        0.673977         3
        14        15        13        34     9      180.000000        0.001379         4
        14        15        13        45     9        0.000000       -0.092401         1
        14        15        13        45     9      180.000000        0.071655         2
        14        15        13        45     9        0.000000        0.673976         3
        14        15        13        45     9      180.000000        0.001379         4
        14        15        21        22     9        0.000000        0.077723         1
        14        15        21        22     9      180.000000       -0.062176         2
        14        15        21        22     9        0.000000        0.085376         3
        14        15        21        22     9      180.000000        0.032799         4
        14        15        21        26     9        0.000000        0.077723         1
        14        15        21        26     9      180.000000       -0.062176         2
        14        15        21        26     9        0.000000        0.085376         3
        14        15        21        26     9      180.000000        0.032799         4
        14        16        17        18     9        0.000000        0.100567         1
        14        16        17        18     9      180.000000       18.461774         2
        14        16        17        18     9        0.000000       -1.434414         3
        14        16        17        18     9      180.000000       -0.416065         4
        14        16        17        36     9        0.000000        0.052087         1
        14        16        17        36     9      180.000000       14.496526         2
        14        16        17        36     9        0.000000       -0.651621         3
        14        16        17        36     9      180.000000        0.091153         4
        14        20        19        18     9        0.000000        0.100567         1
        14        20        19        18     9      180.000000       18.461774         2
        14        20        19        18     9        0.000000       -1.434414         3
        14        20        19        18     9      180.000000       -0.416065         4
        14        20        19        38     9        0.000000        0.052087         1
        14        20        19        38     9      180.000000       14.496526         2
        14        20        19        38     9        0.000000       -0.651621         3
        14        20        19        38     9      180.000000        0.091153         4
        15        13        12        32     9        0.000000       -0.037107         1
        15        13        12        32     9      180.000000        0.051204         2
        15        13        12        32     9        0.000000        0.568506         3
        15        13        12        32     9      180.000000        0.051594         4
        15        13        12        33     9        0.000000       -0.037107         1
        15        13        12        33     9      180.000000        0.051204         2
        15        13        12        33     9        0.000000        0.568506         3
        15        13        12        33     9      180.000000        0.051594         4
        15        14        16        17     9        0.000000       -0.025329         1
        15        14        16        17     9      180.000000       15.206117         2
        15        14        16        17     9        0.000000       -0.139314         3
        15        14        16        17     9      180.000000       -0.241050         4
        15        14        16        35     9        0.000000       -0.115993         1
        15        14        16        35     9      180.000000       12.691917         2
        15        14        16        35     9        0.000000       -0.371633         3
        15        14        16        35     9      180.000000        0.137850         4
        15        14        20        19     9        0.000000       -0.025329         1
        15        14        20        19     9      180.000000       15.206117         2
        15        14        20        19     9        0.000000       -0.139314         3
        15        14        20        19     9      180.000000       -0.241050         4
        15        14        20        39     9        0.000000       -0.115993         1
        15        14        20        39     9      180.000000       12.691916         2
        15        14        20        39     9        0.000000       -0.371632         3
        15        14        20        39     9      180.000000        0.137850         4
        15        21        22        23     9        0.000000       -0.025329         1
        15        21        22        23     9      180.000000       15.206117         2
        15        21        22        23     9        0.000000       -0.139314         3
        15        21        22        23     9      180.000000       -0.241050         4
        15        21        22        40     9        0.000000       -0.115993         1
        15        21        22        40     9      180.000000       12.691916         2
        15        21        22        40     9        0.000000       -0.371632         3
        15        21        22        40     9      180.000000        0.137850         4
        15        21        26        25     9        0.000000       -0.025328         1
        15        21        26        25     9      180.000000       15.206118         2
        15        21        26        25     9        0.000000       -0.139314         3
        15        21        26        25     9      180.000000       -0.241050         4
        15        21        26        44     9        0.000000       -0.115993         1
        15        21        26        44     9      180.000000       12.691917         2
        15        21        26        44     9        0.000000       -0.371633         3
        15        21        26        44     9      180.000000        0.137850         4
        16        14        15        21     9        0.000000        0.077723         1
        16        14        15        21     9      180.000000       -0.062176         2
        16        14        15        21     9        0.000000        0.085376         3
        16        14        15        21     9      180.000000        0.032799         4
        16        14        15        46     9        0.000000        0.074058         1
        16        14        15        46     9      180.000000        0.012946         2
        16        14        15        46     9        0.000000        0.050980         3
        16        14        15        46     9      180.000000        0.018322         4
        16        14        20        19     9        0.000000       -0.132971         1
        16        14        20        19     9      180.000000       19.357324         2
        16        14        20        19     9        0.000000       -1.328931         3
        16        14        20        19     9      180.000000       -0.533039         4
        16        14        20        39     9        0.000000       -0.065375         1
        16        14        20        39     9      180.000000       14.383812         2
        16        14        20        39     9        0.000000       -0.544127         3
        16        14        20        39     9      180.000000        0.004061         4
        16        17        18        19     9        0.000000       -0.055832         1
        16        17        18        19     9      180.000000       18.644568         2
        16        17        18        19     9        0.000000       -1.603952         3
        16        17        18        19     9      180.000000       -0.402848         4
        16        17        18        37     9        0.000000        0.018306         1
        16        17        18        37     9      180.000000       14.324078         2
        16        17        18        37     9        0.000000       -0.776018         3
        16        17        18        37     9      180.000000        0.121301         4
        17        16        14        20     9        0.000000       -0.132971         1
        17        16        14        20     9      180.000000       19.357324         2
        17        16        14        20     9        0.000000       -1.328931         3
        17        16        14        20     9      180.000000       -0.533039         4
        17        18        19        20     9        0.000000       -0.055832         1
        17        18        19        20     9      180.000000       18.644568         2
        17        18        19        20     9        0.000000       -1.603952         3
        17        18        19        20     9      180.000000       -0.402848         4
        17        18        19        38     9        0.000000        0.029742         1
        17        18        19        38     9      180.000000       14.140938         2
        17        18        19        38     9        0.000000       -0.787921         3
        17        18        19        38     9      180.000000        0.139391         4
        18        17        16        35     9        0.000000        0.098232         1
        18        17        16        35     9      180.000000       14.518926         2
        18        17        16        35     9        0.000000       -0.662681         3
        18        17        16        35     9      180.000000        0.103259         4
        18        19        20        39     9        0.000000        0.098232         1
        18        19        20        39     9      180.000000       14.518926         2
        18        19        20        39     9        0.000000       -0.662681         3
        18        19        20        39     9      180.000000        0.103259         4
        19        18        17        36     9        0.000000        0.029742         1
        19        18        17        36     9      180.000000       14.140938         2
        19        18        17        36     9        0.000000       -0.787921         3
        19        18        17        36     9      180.000000        0.139392         4
        20        14        15        21     9        0.000000        0.077723         1
        20        14        15        21     9      180.000000       -0.062176         2
        20        14        15        21     9        0.000000        0.085376         3
        20        14        15        21     9      180.000000        0.032799         4
        20        14        15        46     9        0.000000        0.074058         1
        20        14        15        46     9      180.000000        0.012946         2
        20        14        15        46     9        0.000000        0.050980         3
        20        14        15        46     9      180.000000        0.018322         4
        20        14        16        35     9        0.000000       -0.065375         1
        20        14        16        35     9      180.000000       14.383809         2
        20        14        16        35     9        0.000000       -0.544127         3
        20        14        16        35     9      180.000000        0.004060         4
        20        19        18        37     9        0.000000        0.018306         1
        20        19        18        37     9      180.000000       14.324078         2
        20        19        18        37     9        0.000000       -0.776018         3
        20        19        18        37     9      180.000000        0.121301         4
        21        15        13        34     9        0.000000       -0.092400         1
        21        15        13        34     9      180.000000        0.071655         2
        21        15        13        34     9        0.000000        0.673977         3
        21        15        13        34     9      180.000000        0.001379         4
        21        15        13        45     9        0.000000       -0.092401         1
        21        15        13        45     9      180.000000        0.071655         2
        21        15        13        45     9        0.000000        0.673976         3
        21        15        13        45     9      180.000000        0.001379         4
        21        22        23        24     9        0.000000        0.100567         1
        21        22        23        24     9      180.000000       18.461774         2
        21        22        23        24     9        0.000000       -1.434414         3
        21        22        23        24     9      180.000000       -0.416065         4
        21        22        23        41     9        0.000000        0.052087         1
        21        22        23        41     9      180.000000       14.496526         2
        21        22        23        41     9        0.000000       -0.651621         3
        21        22        23        41     9      180.000000        0.091153         4
        21        26        25        24     9        0.000000        0.100567         1
        21        26        25        24     9      180.000000       18.461776         2
        21        26        25        24     9        0.000000       -1.434414         3
        21        26        25        24     9      180.000000       -0.416065         4
        21        26        25        43     9        0.000000        0.052087         1
        21        26        25        43     9      180.000000       14.496526         2
        21        26        25        43     9        0.000000       -0.651621         3
        21        26        25        43     9      180.000000        0.091153         4
        22        21        15        46     9        0.000000        0.074058         1
        22        21        15        46     9      180.000000        0.012946         2
        22        21        15        46     9        0.000000        0.050980         3
        22        21        15        46     9      180.000000        0.018322         4
        22        21        26        25     9        0.000000       -0.132971         1
        22        21        26        25     9      180.000000       19.357324         2
        22        21        26        25     9        0.000000       -1.328931         3
        22        21        26        25     9      180.000000       -0.533039         4
        22        21        26        44     9        0.000000       -0.065375         1
        22        21        26        44     9      180.000000       14.383807         2
        22        21        26        44     9        0.000000       -0.544127         3
        22        21        26        44     9      180.000000        0.004060         4
        22        23        24        25     9        0.000000       -0.055833         1
        22        23        24        25     9      180.000000       18.644568         2
        22        23        24        25     9        0.000000       -1.603952         3
        22        23        24        25     9      180.000000       -0.402849         4
        22        23        24        42     9        0.000000        0.018306         1
        22        23        24        42     9      180.000000       14.324078         2
        22        23        24        42     9        0.000000       -0.776018         3
        22        23        24        42     9      180.000000        0.121301         4
        23        22        21        26     9        0.000000       -0.132971         1
        23        22        21        26     9      180.000000       19.357320         2
        23        22        21        26     9        0.000000       -1.328931         3
        23        22        21        26     9      180.000000       -0.533040         4
        23        24        25        26     9        0.000000       -0.055832         1
        23        24        25        26     9      180.000000       18.644570         2
        23        24        25        26     9        0.000000       -1.603952         3
        23        24        25        26     9      180.000000       -0.402849         4
        23        24        25        43     9        0.000000        0.029741         1
        23        24        25        43     9      180.000000       14.140935         2
        23        24        25        43     9        0.000000       -0.787921         3
        23        24        25        43     9      180.000000        0.139391         4
        24        23        22        40     9        0.000000        0.098232         1
        24        23        22        40     9      180.000000       14.518926         2
        24        23        22        40     9        0.000000       -0.662681         3
        24        23        22        40     9      180.000000        0.103259         4
        24        25        26        44     9        0.000000        0.098232         1
        24        25        26        44     9      180.000000       14.518926         2
        24        25        26        44     9        0.000000       -0.662680         3
        24        25        26        44     9      180.000000        0.103259         4
        25        24        23        41     9        0.000000        0.029742         1
        25        24        23        41     9      180.000000       14.140937         2
        25        24        23        41     9        0.000000       -0.787921         3
        25        24        23        41     9      180.000000        0.139391         4
        26        21        15        46     9        0.000000        0.074059         1
        26        21        15        46     9      180.000000        0.012946         2
        26        21        15        46     9        0.000000        0.050980         3
        26        21        15        46     9      180.000000        0.018322         4
        26        21        22        40     9        0.000000       -0.065375         1
        26        21        22        40     9      180.000000       14.383807         2
        26        21        22        40     9        0.000000       -0.544126         3
        26        21        22        40     9      180.000000        0.004060         4
        26        25        24        42     9        0.000000        0.018306         1
        26        25        24        42     9      180.000000       14.324078         2
        26        25        24        42     9        0.000000       -0.776018         3
        26        25        24        42     9      180.000000        0.121300         4
        27         1         2        28     9        0.000000       -0.146710         1
        27         1         2        28     9      180.000000       12.650976         2
        27         1         2        28     9        0.000000       -0.690072         3
        27         1         2        28     9      180.000000        0.350447         4
        28         2         3        29     9        0.000000       -0.167470         1
        28         2         3        29     9      180.000000       10.567820         2
        28         2         3        29     9        0.000000       -0.438382         3
        28         2         3        29     9      180.000000        0.152626         4
        29         3         4        30     9        0.000000       -0.143475         1
        29         3         4        30     9      180.000000       12.450687         2
        29         3         4        30     9        0.000000       -0.658351         3
        29         3         4        30     9      180.000000        0.360180         4
        31        11        12        32     9        0.000000       -0.011013         1
        31        11        12        32     9      180.000000        0.174544         2
        31        11        12        32     9        0.000000        0.021273         3
        31        11        12        32     9      180.000000       -0.068362         4
        31        11        12        33     9        0.000000       -0.011013         1
        31        11        12        33     9      180.000000        0.174544         2
        31        11        12        33     9        0.000000        0.021273         3
        31        11        12        33     9      180.000000       -0.068362         4
        32        12        13        34     9        0.000000       -0.004731         1
        32        12        13        34     9      180.000000        0.052282         2
        32        12        13        34     9        0.000000        0.665626         3
        32        12        13        34     9      180.000000       -0.068266         4
        32        12        13        45     9        0.000000       -0.004732         1
        32        12        13        45     9      180.000000        0.052282         2
        32        12        13        45     9        0.000000        0.665626         3
        32        12        13        45     9      180.000000       -0.068266         4
        33        12        13        34     9        0.000000       -0.004731         1
        33        12        13        34     9      180.000000        0.052282         2
        33        12        13        34     9        0.000000        0.665626         3
        33        12        13        34     9      180.000000       -0.068266         4
        33        12        13        45     9        0.000000       -0.004732         1
        33        12        13        45     9      180.000000        0.052282         2
        33        12        13        45     9        0.000000        0.665626         3
        33        12        13        45     9      180.000000       -0.068266         4
        34        13        15        46     9        0.000000        0.426159         1
        34        13        15        46     9      180.000000       -0.049967         2
        34        13        15        46     9        0.000000        0.565689         3
        34        13        15        46     9      180.000000       -0.077687         4
        35        16        17        36     9        0.000000       -0.093840         1
        35        16        17        36     9      180.000000       11.931994         2
        35        16        17        36     9        0.000000       -0.649558         3
        35        16        17        36     9      180.000000        0.254077         4
        36        17        18        37     9        0.000000       -0.083747         1
        36        17        18        37     9      180.000000       11.659430         2
        36        17        18        37     9        0.000000       -0.611749         3
        36        17        18        37     9      180.000000        0.244547         4
        37        18        19        38     9        0.000000       -0.083746         1
        37        18        19        38     9      180.000000       11.659430         2
        37        18        19        38     9        0.000000       -0.611749         3
        37        18        19        38     9      180.000000        0.244547         4
        38        19        20        39     9        0.000000       -0.093840         1
        38        19        20        39     9      180.000000       11.931995         2
        38        19        20        39     9        0.000000       -0.649558         3
        38        19        20        39     9      180.000000        0.254077         4
        40        22        23        41     9        0.000000       -0.093840         1
        40        22        23        41     9      180.000000       11.931995         2
        40        22        23        41     9        0.000000       -0.649558         3
        40        22        23        41     9      180.000000        0.254077         4
        41        23        24        42     9        0.000000       -0.083746         1
        41        23        24        42     9      180.000000       11.659430         2
        41        23        24        42     9        0.000000       -0.611749         3
        41        23        24        42     9      180.000000        0.244547         4
        42        24        25        43     9        0.000000       -0.083747         1
        42        24        25        43     9      180.000000       11.659430         2
        42        24        25        43     9        0.000000       -0.611749         3
        42        24        25        43     9      180.000000        0.244547         4
        43        25        26        44     9        0.000000       -0.093840         1
        43        25        26        44     9      180.000000       11.931995         2
        43        25        26        44     9        0.000000       -0.649558         3
        43        25        26        44     9      180.000000        0.254077         4
        45        13        15        46     9        0.000000        0.426160         1
        45        13        15        46     9      180.000000       -0.049967         2
        45        13        15        46     9        0.000000        0.565689         3
        45        13        15        46     9      180.000000       -0.077687         4
        47         7         8        48     9        0.000000       -0.117152         1
        47         7         8        48     9      180.000000       10.852243         2
        47         7         8        48     9        0.000000       -0.573922         3
        47         7         8        48     9      180.000000        0.216269         4

[ dihedrals ] ; impropers
;       ai        aj        ak        al funct           phase               k        pn
         4         3         5        30     4      180.000000        0.403321         2
         4         5        30         3     4      180.000000        0.403321         2
         4        30         3         5     4      180.000000        0.403321         2
         5         4         6        10     4      180.000000        0.258045         2
         5         6        10         4     4      180.000000        0.258045         2
         5        10         4         6     4      180.000000        0.258045         2
         7         6         8        47     4      180.000000        3.667771         2
         7         8        47         6     4      180.000000        3.667771         2
         7        47         6         8     4      180.000000        3.667771         2
        16        14        17        35     4      180.000000        3.336013         2
        16        17        35        14     4      180.000000        3.336013         2
        16        35        14        17     4      180.000000        3.336013         2
        17        16        18        36     4      180.000000        2.510755         2
        17        18        36        16     4      180.000000        2.510755         2
        17        36        16        18     4      180.000000        2.510755         2
        18        17        19        37     4      180.000000        2.182729         2
        18        19        37        17     4      180.000000        2.182729         2
        18        37        17        19     4      180.000000        2.182729         2
        19        18        20        38     4      180.000000        2.510755         2
        19        20        38        18     4      180.000000        2.510755         2
        19        38        18        20     4      180.000000        2.510755         2
        20        14        19        39     4      180.000000        3.336013         2
        20        19        39        14     4      180.000000        3.336013         2
        20        39        14        19     4      180.000000        3.336013         2
        22        21        23        40     4      180.000000        3.336013         2
        22        23        40        21     4      180.000000        3.336013         2
        22        40        21        23     4      180.000000        3.336013         2
        23        22        24        41     4      180.000000        2.510755         2
        23        24        41        22     4      180.000000        2.510755         2
        23        41        22        24     4      180.000000        2.510755         2
        24        23        25        42     4      180.000000        2.182730         2
        24        25        42        23     4      180.000000        2.182730         2
        24        42        23        25     4      180.000000        2.182730         2
        25        24        26        43     4      180.000000        2.510755         2
        25        26        43        24     4      180.000000        2.510755         2
        25        43        24        26     4      180.000000        2.510755         2
        26        21        25        44     4      180.000000        3.336013         2
        26        25        44        21     4      180.000000        3.336013         2
        26        44        21        25     4      180.000000        3.336013         2

[ pairs ]
;       ai        aj funct
         1         4     1
         1         6     1
         1         8     1
         1        11     1
         1        29     1
         2         5     1
         2         9     1
         2        30     1
         3         6     1
         3        10     1
         3        27     1
         4         7     1
         4         9     1
         4        28     1
         5         8     1
         5        11     1
         5        27     1
         5        29     1
         5        47     1
         6         9     1
         6        30     1
         6        48     1
         7        10     1
         7        11     1
         8        12     1
         8        31     1
         9        13     1
         9        27     1
         9        32     1
         9        33     1
         9        47     1
        10        12     1
        10        28     1
        10        30     1
        10        31     1
        10        48     1
        11        15     1
        11        34     1
        11        45     1
        11        48     1
        12        14     1
        12        21     1
        12        46     1
        13        16     1
        13        20     1
        13        22     1
        13        26     1
        13        31     1
        14        18     1
        14        22     1
        14        26     1
        14        34     1
        14        36     1
        14        38     1
        14        45     1
        15        17     1
        15        19     1
        15        23     1
        15        25     1
        15        32     1
        15        33     1
        15        35     1
        15        39     1
        15        40     1
        15        44     1
        16        19     1
        16        21     1
        16        37     1
        16        39     1
        16        46     1
        17        20     1
        17        38     1
        18        35     1
        18        39     1
        19        36     1
        20        21     1
        20        35     1
        20        37     1
        20        46     1
        21        24     1
        21        34     1
        21        41     1
        21        43     1
        21        45     1
        22        25     1
        22        42     1
        22        44     1
        22        46     1
        23        26     1
        23        43     1
        24        40     1
        24        44     1
        25        41     1
        26        40     1
        26        42     1
        26        46     1
        27        28     1
        28        29     1
        29        30     1
        31        32     1
        31        33     1
        32        34     1
        32        45     1
        33        34     1
        33        45     1
        34        46     1
        35        36     1
        36        37     1
        37        38     1
        38        39     1
        40        41     1
        41        42     1
        42        43     1
        43        44     1
        45        46     1
        47        48     1
