; ITP file created by ByteFF-ML, 2025-12-06 08:18:02.039050

[ atomtypes ]
;name           bonded.type        at.num        mass        charge   ptype           sigma         epsilon
 c0bf                                   6      0.0000       0.00000       A     3.31523e-01     4.12661e-01
 c1bf                                   6      0.0000       0.00000       A     3.31518e-01     4.12574e-01
 c2bf                                   6      0.0000       0.00000       A     3.31477e-01     4.12772e-01
 c3bf                                   6      0.0000       0.00000       A     3.31477e-01     4.13791e-01
 c4bf                                   6      0.0000       0.00000       A     3.31452e-01     4.13235e-01
 n5bf                                   7      0.0000       0.00000       A     3.38556e-01     3.92805e-01
 c6bf                                   6      0.0000       0.00000       A     3.31526e-01     4.13131e-01
 c7bf                                   6      0.0000       0.00000       A     3.31522e-01     4.14338e-01
 c8bf                                   6      0.0000       0.00000       A     3.31406e-01     4.09845e-01
 c9bf                                   6      0.0000       0.00000       A     3.31516e-01     4.12972e-01
 n10bf                                  7      0.0000       0.00000       A     3.28150e-01     6.45608e-01
 c11bf                                  6      0.0000       0.00000       A     3.39787e-01     4.53482e-01
 c12bf                                  6      0.0000       0.00000       A     3.39929e-01     4.49847e-01
 c13bf                                  6      0.0000       0.00000       A     3.31523e-01     4.12617e-01
 c14bf                                  6      0.0000       0.00000       A     3.39859e-01     4.50261e-01
 c15bf                                  6      0.0000       0.00000       A     3.31481e-01     4.13328e-01
 c16bf                                  6      0.0000       0.00000       A     3.31506e-01     4.13446e-01
 c17bf                                  6      0.0000       0.00000       A     3.31497e-01     4.12820e-01
 c18bf                                  6      0.0000       0.00000       A     3.48311e-01     6.68745e-01
 n19bf                                  7      0.0000       0.00000       A     3.27337e-01     4.59663e-01
 c20bf                                  6      0.0000       0.00000       A     3.31506e-01     4.13446e-01
 c21bf                                  6      0.0000       0.00000       A     3.31481e-01     4.13328e-01
 c22bf                                  6      0.0000       0.00000       A     3.31523e-01     4.12617e-01
 c23bf                                  6      0.0000       0.00000       A     3.31481e-01     4.13328e-01
 c24bf                                  6      0.0000       0.00000       A     3.31506e-01     4.13446e-01
 c25bf                                  6      0.0000       0.00000       A     3.31497e-01     4.12820e-01
 c26bf                                  6      0.0000       0.00000       A     3.31506e-01     4.13446e-01
 c27bf                                  6      0.0000       0.00000       A     3.31481e-01     4.13328e-01
 h28bf                                  1      0.0000       0.00000       A     2.62481e-01     6.75329e-02
 h29bf                                  1      0.0000       0.00000       A     2.62489e-01     6.75504e-02
 h30bf                                  1      0.0000       0.00000       A     2.62455e-01     6.76877e-02
 h31bf                                  1      0.0000       0.00000       A     2.62555e-01     6.73589e-02
 h32bf                                  1      0.0000       0.00000       A     1.10379e-01     3.87781e-02
 h33bf                                  1      0.0000       0.00000       A     2.42380e-01     8.71997e-02
 h34bf                                  1      0.0000       0.00000       A     2.42380e-01     8.71997e-02
 h35bf                                  1      0.0000       0.00000       A     2.60105e-01     8.67623e-02
 h36bf                                  1      0.0000       0.00000       A     2.62480e-01     6.76701e-02
 h37bf                                  1      0.0000       0.00000       A     2.62458e-01     6.72983e-02
 h38bf                                  1      0.0000       0.00000       A     2.62457e-01     6.73477e-02
 h39bf                                  1      0.0000       0.00000       A     2.62458e-01     6.72983e-02
 h40bf                                  1      0.0000       0.00000       A     2.62480e-01     6.76717e-02
 h41bf                                  1      0.0000       0.00000       A     2.62480e-01     6.76717e-02
 h42bf                                  1      0.0000       0.00000       A     2.62458e-01     6.72983e-02
 h43bf                                  1      0.0000       0.00000       A     2.62457e-01     6.73477e-02
 h44bf                                  1      0.0000       0.00000       A     2.62458e-01     6.72983e-02
 h45bf                                  1      0.0000       0.00000       A     2.62480e-01     6.76717e-02
 h46bf                                  1      0.0000       0.00000       A     2.60105e-01     8.67623e-02
 h47bf                                  1      0.0000       0.00000       A     2.59889e-01     8.79115e-02
 h48bf                                  1      0.0000       0.00000       A     2.53518e-01     6.80835e-02

[ moleculetype ]
;name             nrexcl
 4d                    3

[ atoms ]
;       nr            type      resi   res      atom      cgnr      charge          mass ; qtot
         1            c0bf         1   UNL        c0         1    -0.08230       12.0110 ; qtot   -0.082
         2            c1bf         1   UNL        c1         2    -0.11696       12.0110 ; qtot   -0.199
         3            c2bf         1   UNL        c2         3    -0.09744       12.0110 ; qtot   -0.297
         4            c3bf         1   UNL        c3         4    -0.08692       12.0110 ; qtot   -0.384
         5            c4bf         1   UNL        c4         5     0.30089       12.0110 ; qtot   -0.083
         6            n5bf         1   UNL        n5         6    -0.68260       14.0070 ; qtot   -0.765
         7            c6bf         1   UNL        c6         7     0.42014       12.0110 ; qtot   -0.345
         8            c7bf         1   UNL        c7         8    -0.18219       12.0110 ; qtot   -0.527
         9            c8bf         1   UNL        c8         9     0.40286       12.0110 ; qtot   -0.125
        10            c9bf         1   UNL        c9        10    -0.12828       12.0110 ; qtot   -0.253
        11           n10bf         1   UNL       n10        11    -0.92063       14.0070 ; qtot   -1.173
        12           c11bf         1   UNL       c11        12     0.20145       12.0110 ; qtot   -0.972
        13           c12bf         1   UNL       c12        13    -0.08824       12.0110 ; qtot   -1.060
        14           c13bf         1   UNL       c13        14    -0.08511       12.0110 ; qtot   -1.145
        15           c14bf         1   UNL       c14        15     0.03332       12.0110 ; qtot   -1.112
        16           c15bf         1   UNL       c15        16    -0.10676       12.0110 ; qtot   -1.219
        17           c16bf         1   UNL       c16        17    -0.11255       12.0110 ; qtot   -1.331
        18           c17bf         1   UNL       c17        18    -0.10702       12.0110 ; qtot   -1.438
        19           c18bf         1   UNL       c18        19     0.33083       12.0110 ; qtot   -1.108
        20           n19bf         1   UNL       n19        20    -0.46004       14.0070 ; qtot   -1.568
        21           c20bf         1   UNL       c20        21    -0.11255       12.0110 ; qtot   -1.680
        22           c21bf         1   UNL       c21        22    -0.10676       12.0110 ; qtot   -1.787
        23           c22bf         1   UNL       c22        23    -0.08511       12.0110 ; qtot   -1.872
        24           c23bf         1   UNL       c23        24    -0.10676       12.0110 ; qtot   -1.979
        25           c24bf         1   UNL       c24        25    -0.11255       12.0110 ; qtot   -2.091
        26           c25bf         1   UNL       c25        26    -0.10702       12.0110 ; qtot   -2.198
        27           c26bf         1   UNL       c26        27    -0.11255       12.0110 ; qtot   -2.311
        28           c27bf         1   UNL       c27        28    -0.10676       12.0110 ; qtot   -2.418
        29           h28bf         1   UNL       h28        29     0.11605        1.0080 ; qtot   -2.302
        30           h29bf         1   UNL       h29        30     0.11770        1.0080 ; qtot   -2.184
        31           h30bf         1   UNL       h30        31     0.11823        1.0080 ; qtot   -2.066
        32           h31bf         1   UNL       h31        32     0.13375        1.0080 ; qtot   -1.932
        33           h32bf         1   UNL       h32        33     0.47102        1.0080 ; qtot   -1.461
        34           h33bf         1   UNL       h33        34     0.05446        1.0080 ; qtot   -1.406
        35           h34bf         1   UNL       h34        35     0.05446        1.0080 ; qtot   -1.352
        36           h35bf         1   UNL       h35        36     0.05553        1.0080 ; qtot   -1.296
        37           h36bf         1   UNL       h36        37     0.11602        1.0080 ; qtot   -1.180
        38           h37bf         1   UNL       h37        38     0.11408        1.0080 ; qtot   -1.066
        39           h38bf         1   UNL       h38        39     0.11320        1.0080 ; qtot   -0.953
        40           h39bf         1   UNL       h39        40     0.11408        1.0080 ; qtot   -0.839
        41           h40bf         1   UNL       h40        41     0.11602        1.0080 ; qtot   -0.723
        42           h41bf         1   UNL       h41        42     0.11602        1.0080 ; qtot   -0.607
        43           h42bf         1   UNL       h42        43     0.11408        1.0080 ; qtot   -0.493
        44           h43bf         1   UNL       h43        44     0.11320        1.0080 ; qtot   -0.380
        45           h44bf         1   UNL       h44        45     0.11408        1.0080 ; qtot   -0.266
        46           h45bf         1   UNL       h45        46     0.11602        1.0080 ; qtot   -0.150
        47           h46bf         1   UNL       h46        47     0.05553        1.0080 ; qtot   -0.094
        48           h47bf         1   UNL       h47        48     0.05670        1.0080 ; qtot   -0.037
        49           h48bf         1   UNL       h48        49     0.03738        1.0080 ; qtot    0.000

[ bonds ]
;       ai        aj funct               r               k
         1         2     1        0.138111   348947.796191
         1        10     1        0.142104   269036.716016
         1        29     1        0.108388   322693.962305
         2         3     1        0.141587   277601.402832
         2        30     1        0.108595   320779.240918
         3         4     1        0.137962   356458.055762
         3        31     1        0.108627   319930.106494
         4         5     1        0.142026   277224.040967
         4        32     1        0.108529   322911.793848
         5         6     1        0.137107   263585.539111
         5        10     1        0.143065   239283.455420
         6         7     1        0.131194   405022.155420
         7         8     1        0.142403   249268.746094
         7        49     1        0.108766   317692.340674
         8         9     1        0.140829   279718.837793
         8        19     1        0.142784   267998.172852
         9        10     1        0.144148   229495.413379
         9        11     1        0.137591   305188.120605
        11        12     1        0.147178   194665.171143
        11        33     1        0.101287   412578.611621
        12        13     1        0.153296   184170.083154
        12        34     1        0.109444   296358.511816
        12        35     1        0.109444   296358.511816
        13        15     1        0.154791   161268.441772
        13        36     1        0.109495   296531.678955
        13        47     1        0.109495   296531.678955
        14        15     1        0.152487   177829.231665
        14        16     1        0.140288   288053.435254
        14        22     1        0.140288   288053.435254
        15        23     1        0.152487   177829.231665
        15        48     1        0.109609   292897.007715
        16        17     1        0.139831   309672.130566
        16        37     1        0.108651   316913.229004
        17        18     1        0.139910   306540.770215
        17        38     1        0.108649   318926.293799
        18        21     1        0.139910   306540.770215
        18        39     1        0.108629   319751.295654
        19        20     1        0.116681  1089407.161328
        21        22     1        0.139831   309672.130566
        21        40     1        0.108649   318926.293799
        22        41     1        0.108651   316913.229004
        23        24     1        0.140288   288053.435254
        23        28     1        0.140288   288053.435254
        24        25     1        0.139831   309672.130566
        24        42     1        0.108651   316913.229004
        25        26     1        0.139910   306540.770215
        25        43     1        0.108649   318926.293799
        26        27     1        0.139910   306540.770215
        26        44     1        0.108629   319751.295654
        27        28     1        0.139831   309672.105029
        27        45     1        0.108649   318926.293799
        28        46     1        0.108651   316913.254541

[ angles ]
;       ai        aj        ak funct           theta             cth
         1         2         3     1      120.307068      689.713592
         1         2        30     1      119.940445      442.296701
         1        10         5     1      118.764572      743.058379
         1        10         9     1      123.368530      462.134534
         2         1        10     1      120.737808      579.530286
         2         1        29     1      119.005371      441.258841
         2         3         4     1      120.126694      711.305984
         2         3        31     1      119.737793      442.947898
         3         2        30     1      119.759666      446.868355
         3         4         5     1      120.634750      595.783571
         3         4        32     1      121.862106      429.036015
         4         3        31     1      120.184059      443.606819
         4         5         6     1      117.503189      436.525634
         4         5        10     1      119.129807      689.135113
         5         4        32     1      117.528358      445.283107
         5         6         7     1      117.159424      401.551732
         5        10         9     1      117.940811      842.205440
         6         5        10     1      123.513428      716.998972
         6         7         8     1      124.592934      630.113426
         6         7        49     1      117.440407      346.869791
         7         8         9     1      119.775673      824.073837
         7         8        19     1      118.790466      523.937723
         8         7        49     1      118.328163      391.733544
         8         9        10     1      116.513977      588.878719
         8         9        11     1      121.882675      547.250997
         8        19        20     1      176.966583      167.360000
         9         8        19     1      121.172951      476.874043
         9        11        12     1      123.750267      466.570234
         9        11        33     1      113.237221      491.095276
        10         1        29     1      120.536911      419.459215
        10         9        11     1      121.865089      488.632573
        11        12        13     1      111.697609      589.049690
        11        12        34     1      108.932007      462.607897
        11        12        35     1      108.932007      462.607897
        12        11        33     1      112.359421      454.831144
        12        13        15     1      114.019775      579.117159
        12        13        36     1      108.990829      510.029702
        12        13        47     1      108.990829      510.029638
        13        12        34     1      109.970299      496.540299
        13        12        35     1      109.970299      496.540299
        13        15        14     1      112.160873      575.900952
        13        15        23     1      112.160873      575.900952
        13        15        48     1      106.370605      494.947070
        14        15        23     1      111.951767      502.502288
        14        15        48     1      106.611694      487.625485
        14        16        17     1      120.963661      707.473566
        14        16        37     1      119.594765      388.507185
        14        22        21     1      120.963661      707.473566
        14        22        41     1      119.594765      388.507154
        15        13        36     1      109.032822      468.827268
        15        13        47     1      109.032822      468.827204
        15        14        16     1      120.819603      485.006655
        15        14        22     1      120.819603      485.006655
        15        23        24     1      120.819603      485.006655
        15        23        28     1      120.819603      485.006655
        16        14        22     1      118.240677      721.110766
        16        17        18     1      120.154312      709.440179
        16        17        38     1      119.775925      429.066276
        17        16        37     1      119.555504      431.916792
        17        18        21     1      119.475426      707.369056
        17        18        39     1      120.262108      430.653790
        18        17        38     1      120.092667      423.840107
        18        21        22     1      120.154312      709.440179
        18        21        40     1      120.092667      423.840107
        21        18        39     1      120.262100      430.653790
        21        22        41     1      119.555496      431.916856
        22        21        40     1      119.775925      429.066276
        23        15        48     1      106.611710      487.625485
        23        24        25     1      120.963661      707.473566
        23        24        42     1      119.594765      388.507154
        23        28        27     1      120.963661      707.473566
        23        28        46     1      119.594765      388.507185
        24        23        28     1      118.240677      721.110766
        24        25        26     1      120.154312      709.440307
        24        25        43     1      119.775925      429.066276
        25        24        42     1      119.555496      431.916856
        25        26        27     1      119.475426      707.369056
        25        26        44     1      120.262100      430.653790
        26        25        43     1      120.092667      423.840138
        26        27        28     1      120.154312      709.440179
        26        27        45     1      120.092667      423.840107
        27        26        44     1      120.262100      430.653790
        27        28        46     1      119.555496      431.916856
        28        27        45     1      119.775925      429.066276
        34        12        35     1      106.945984      352.956529
        36        13        47     1      106.861282      358.402413

[ dihedrals ] ; propers for gromacs 4.5 or higher, use funct 9
;       ai        aj        ak        al funct           phase               k        pn
         1         2         3         4     9        0.000000        0.072106         1
         1         2         3         4     9      180.000000       15.979955         2
         1         2         3         4     9        0.000000       -1.397561         3
         1         2         3         4     9      180.000000       -0.281395         4
         1         2         3        31     9        0.000000       -0.016540         1
         1         2         3        31     9      180.000000       12.692729         2
         1         2         3        31     9        0.000000       -0.634958         3
         1         2         3        31     9      180.000000        0.100240         4
         1        10         5         4     9        0.000000        0.080752         1
         1        10         5         4     9      180.000000       11.157165         2
         1        10         5         4     9        0.000000       -0.808070         3
         1        10         5         4     9      180.000000       -0.118255         4
         1        10         5         6     9        0.000000        0.274583         1
         1        10         5         6     9      180.000000       11.233365         2
         1        10         5         6     9        0.000000       -0.341241         3
         1        10         5         6     9      180.000000       -0.201791         4
         1        10         9         8     9        0.000000       -0.497671         1
         1        10         9         8     9      180.000000        6.650742         2
         1        10         9         8     9        0.000000       -0.144775         3
         1        10         9         8     9      180.000000       -0.034790         4
         1        10         9        11     9        0.000000       -0.403152         1
         1        10         9        11     9      180.000000        9.958302         2
         1        10         9        11     9        0.000000        0.153533         3
         1        10         9        11     9      180.000000       -0.195311         4
         2         1        10         5     9        0.000000       -0.178374         1
         2         1        10         5     9      180.000000       16.288686         2
         2         1        10         5     9        0.000000       -1.069934         3
         2         1        10         5     9      180.000000       -0.260179         4
         2         1        10         9     9        0.000000        0.020016         1
         2         1        10         9     9      180.000000       13.513430         2
         2         1        10         9     9        0.000000       -0.751480         3
         2         1        10         9     9      180.000000       -0.095592         4
         2         3         4         5     9        0.000000       -0.096369         1
         2         3         4         5     9      180.000000       20.696746         2
         2         3         4         5     9        0.000000       -1.526424         3
         2         3         4         5     9      180.000000       -0.513421         4
         2         3         4        32     9        0.000000       -0.035340         1
         2         3         4        32     9      180.000000       15.625541         2
         2         3         4        32     9        0.000000       -0.461150         3
         2         3         4        32     9      180.000000        0.110803         4
         3         2         1        10     9        0.000000       -0.122065         1
         3         2         1        10     9      180.000000       20.842501         2
         3         2         1        10     9        0.000000       -2.014059         3
         3         2         1        10     9      180.000000       -0.441873         4
         3         2         1        29     9        0.000000        0.000780         1
         3         2         1        29     9      180.000000       16.436003         2
         3         2         1        29     9        0.000000       -0.502240         3
         3         2         1        29     9      180.000000        0.078985         4
         3         4         5         6     9        0.000000        0.154506         1
         3         4         5         6     9      180.000000       14.601531         2
         3         4         5         6     9        0.000000       -0.101577         3
         3         4         5         6     9      180.000000       -0.275994         4
         3         4         5        10     9        0.000000       -0.183931         1
         3         4         5        10     9      180.000000       15.895711         2
         3         4         5        10     9        0.000000       -0.996096         3
         3         4         5        10     9      180.000000       -0.249324         4
         4         3         2        30     9        0.000000        0.041466         1
         4         3         2        30     9      180.000000       13.274742         2
         4         3         2        30     9        0.000000       -0.625897         3
         4         3         2        30     9      180.000000        0.093677         4
         4         5         6         7     9        0.000000       -0.179051         1
         4         5         6         7     9      180.000000       17.061139         2
         4         5         6         7     9        0.000000        0.571131         3
         4         5         6         7     9      180.000000       -0.298964         4
         4         5        10         9     9        0.000000       -0.140733         1
         4         5        10         9     9      180.000000       11.069204         2
         4         5        10         9     9        0.000000       -0.832559         3
         4         5        10         9     9      180.000000       -0.210953         4
         5         4         3        31     9        0.000000        0.132033         1
         5         4         3        31     9      180.000000       15.351835         2
         5         4         3        31     9        0.000000       -0.389168         3
         5         4         3        31     9      180.000000        0.082294         4
         5         6         7         8     9        0.000000       -0.599286         1
         5         6         7         8     9      180.000000       26.692348         2
         5         6         7         8     9        0.000000       -0.338538         3
         5         6         7         8     9      180.000000       -0.583420         4
         5         6         7        49     9        0.000000        1.118703         1
         5         6         7        49     9      180.000000       23.642511         2
         5         6         7        49     9        0.000000        0.285029         3
         5         6         7        49     9      180.000000       -0.572799         4
         5        10         1        29     9        0.000000       -0.009548         1
         5        10         1        29     9      180.000000       11.641006         2
         5        10         1        29     9        0.000000       -0.160168         3
         5        10         1        29     9      180.000000        0.066121         4
         5        10         9         8     9        0.000000       -0.894865         1
         5        10         9         8     9      180.000000        9.711642         2
         5        10         9         8     9        0.000000       -0.722997         3
         5        10         9         8     9      180.000000       -0.112764         4
         5        10         9        11     9        0.000000       -0.234332         1
         5        10         9        11     9      180.000000       11.127805         2
         5        10         9        11     9        0.000000        0.190387         3
         5        10         9        11     9      180.000000       -0.337849         4
         6         5         4        32     9        0.000000        0.026286         1
         6         5         4        32     9      180.000000       12.780167         2
         6         5         4        32     9        0.000000       -0.322448         3
         6         5         4        32     9      180.000000        0.004997         4
         6         5        10         9     9        0.000000        0.034014         1
         6         5        10         9     9      180.000000       11.157181         2
         6         5        10         9     9        0.000000       -0.319801         3
         6         5        10         9     9      180.000000       -0.271476         4
         6         7         8         9     9        0.000000       -0.162223         1
         6         7         8         9     9      180.000000       14.397219         2
         6         7         8         9     9        0.000000       -0.995708         3
         6         7         8         9     9      180.000000       -0.307190         4
         6         7         8        19     9        0.000000       -0.091858         1
         6         7         8        19     9      180.000000       14.838391         2
         6         7         8        19     9        0.000000       -0.131514         3
         6         7         8        19     9      180.000000       -0.562995         4
         7         6         5        10     9        0.000000        0.008900         1
         7         6         5        10     9      180.000000       16.224795         2
         7         6         5        10     9        0.000000        0.291703         3
         7         6         5        10     9      180.000000       -0.142182         4
         7         8         9        10     9        0.000000       -0.102194         1
         7         8         9        10     9      180.000000       14.563359         2
         7         8         9        10     9        0.000000       -0.748048         3
         7         8         9        10     9      180.000000       -0.353683         4
         7         8         9        11     9        0.000000       -0.046803         1
         7         8         9        11     9      180.000000       15.914093         2
         7         8         9        11     9        0.000000        0.237386         3
         7         8         9        11     9      180.000000       -0.606470         4
         7         8        19        20     9        0.000000        0.000000         1
         7         8        19        20     9      180.000000        0.000000         2
         7         8        19        20     9        0.000000        0.000000         3
         7         8        19        20     9      180.000000        0.000000         4
         8         9        11        12     9        0.000000        0.474762         1
         8         9        11        12     9      180.000000        7.525310         2
         8         9        11        12     9        0.000000        0.200138         3
         8         9        11        12     9      180.000000       -0.467072         4
         8         9        11        33     9        0.000000        0.096752         1
         8         9        11        33     9      180.000000        8.236347         2
         8         9        11        33     9        0.000000       -0.354670         3
         8         9        11        33     9      180.000000       -0.576122         4
         9         8         7        49     9        0.000000        0.202447         1
         9         8         7        49     9      180.000000       12.085906         2
         9         8         7        49     9        0.000000       -0.657338         3
         9         8         7        49     9      180.000000        0.027750         4
         9         8        19        20     9        0.000000        0.000000         1
         9         8        19        20     9      180.000000        0.000000         2
         9         8        19        20     9        0.000000        0.000000         3
         9         8        19        20     9      180.000000        0.000000         4
         9        10         1        29     9        0.000000       -0.025300         1
         9        10         1        29     9      180.000000       11.223280         2
         9        10         1        29     9        0.000000       -0.462926         3
         9        10         1        29     9      180.000000        0.105787         4
         9        11        12        13     9        0.000000       -0.092292         1
         9        11        12        13     9      180.000000       -0.284504         2
         9        11        12        13     9        0.000000        0.431548         3
         9        11        12        13     9      180.000000        0.054339         4
         9        11        12        34     9        0.000000       -0.147767         1
         9        11        12        34     9      180.000000        0.145151         2
         9        11        12        34     9        0.000000        0.494009         3
         9        11        12        34     9      180.000000        0.021213         4
         9        11        12        35     9        0.000000       -0.147767         1
         9        11        12        35     9      180.000000        0.145151         2
         9        11        12        35     9        0.000000        0.494009         3
         9        11        12        35     9      180.000000        0.021213         4
        10         1         2        30     9        0.000000       -0.010082         1
        10         1         2        30     9      180.000000       15.806462         2
        10         1         2        30     9        0.000000       -0.623288         3
        10         1         2        30     9      180.000000        0.028391         4
        10         5         4        32     9        0.000000       -0.191328         1
        10         5         4        32     9      180.000000       12.442765         2
        10         5         4        32     9        0.000000       -0.198182         3
        10         5         4        32     9      180.000000       -0.054558         4
        10         9         8        19     9        0.000000       -0.218521         1
        10         9         8        19     9      180.000000       15.279983         2
        10         9         8        19     9        0.000000       -0.272533         3
        10         9         8        19     9      180.000000       -0.617954         4
        10         9        11        12     9        0.000000        0.346409         1
        10         9        11        12     9      180.000000        6.461021         2
        10         9        11        12     9        0.000000        0.328220         3
        10         9        11        12     9      180.000000       -0.312846         4
        10         9        11        33     9        0.000000       -1.287491         1
        10         9        11        33     9      180.000000        7.479629         2
        10         9        11        33     9        0.000000       -0.154009         3
        10         9        11        33     9      180.000000       -0.443696         4
        11         9         8        19     9        0.000000       -0.687175         1
        11         9         8        19     9      180.000000       16.497052         2
        11         9         8        19     9        0.000000       -0.226216         3
        11         9         8        19     9      180.000000       -0.782751         4
        11        12        13        15     9        0.000000       -1.237307         1
        11        12        13        15     9      180.000000       -0.401206         2
        11        12        13        15     9        0.000000        0.505231         3
        11        12        13        15     9      180.000000       -0.011339         4
        11        12        13        36     9        0.000000       -0.018628         1
        11        12        13        36     9      180.000000        0.067112         2
        11        12        13        36     9        0.000000        0.525831         3
        11        12        13        36     9      180.000000        0.056954         4
        11        12        13        47     9        0.000000       -0.018627         1
        11        12        13        47     9      180.000000        0.067112         2
        11        12        13        47     9        0.000000        0.525831         3
        11        12        13        47     9      180.000000        0.056954         4
        12        13        15        14     9        0.000000        1.049062         1
        12        13        15        14     9      180.000000       -0.478594         2
        12        13        15        14     9        0.000000        0.710855         3
        12        13        15        14     9      180.000000        0.042449         4
        12        13        15        23     9        0.000000        1.049062         1
        12        13        15        23     9      180.000000       -0.478594         2
        12        13        15        23     9        0.000000        0.710855         3
        12        13        15        23     9      180.000000        0.042449         4
        12        13        15        48     9        0.000000       -0.870774         1
        12        13        15        48     9      180.000000        0.179575         2
        12        13        15        48     9        0.000000        0.564886         3
        12        13        15        48     9      180.000000        0.057087         4
        13        12        11        33     9        0.000000        0.992756         1
        13        12        11        33     9      180.000000       -1.508347         2
        13        12        11        33     9        0.000000        0.182577         3
        13        12        11        33     9      180.000000        0.008041         4
        13        15        14        16     9        0.000000       -0.125599         1
        13        15        14        16     9      180.000000        0.548086         2
        13        15        14        16     9        0.000000        0.125767         3
        13        15        14        16     9      180.000000        0.154117         4
        13        15        14        22     9        0.000000       -0.125599         1
        13        15        14        22     9      180.000000        0.548086         2
        13        15        14        22     9        0.000000        0.125767         3
        13        15        14        22     9      180.000000        0.154117         4
        13        15        23        24     9        0.000000       -0.125599         1
        13        15        23        24     9      180.000000        0.548086         2
        13        15        23        24     9        0.000000        0.125767         3
        13        15        23        24     9      180.000000        0.154117         4
        13        15        23        28     9        0.000000       -0.125599         1
        13        15        23        28     9      180.000000        0.548085         2
        13        15        23        28     9        0.000000        0.125767         3
        13        15        23        28     9      180.000000        0.154117         4
        14        15        13        36     9        0.000000       -0.092400         1
        14        15        13        36     9      180.000000        0.071655         2
        14        15        13        36     9        0.000000        0.673977         3
        14        15        13        36     9      180.000000        0.001379         4
        14        15        13        47     9        0.000000       -0.092401         1
        14        15        13        47     9      180.000000        0.071655         2
        14        15        13        47     9        0.000000        0.673976         3
        14        15        13        47     9      180.000000        0.001379         4
        14        15        23        24     9        0.000000        0.077723         1
        14        15        23        24     9      180.000000       -0.062176         2
        14        15        23        24     9        0.000000        0.085376         3
        14        15        23        24     9      180.000000        0.032799         4
        14        15        23        28     9        0.000000        0.077723         1
        14        15        23        28     9      180.000000       -0.062176         2
        14        15        23        28     9        0.000000        0.085376         3
        14        15        23        28     9      180.000000        0.032799         4
        14        16        17        18     9        0.000000        0.100567         1
        14        16        17        18     9      180.000000       18.461774         2
        14        16        17        18     9        0.000000       -1.434414         3
        14        16        17        18     9      180.000000       -0.416065         4
        14        16        17        38     9        0.000000        0.052087         1
        14        16        17        38     9      180.000000       14.496526         2
        14        16        17        38     9        0.000000       -0.651621         3
        14        16        17        38     9      180.000000        0.091153         4
        14        22        21        18     9        0.000000        0.100567         1
        14        22        21        18     9      180.000000       18.461774         2
        14        22        21        18     9        0.000000       -1.434414         3
        14        22        21        18     9      180.000000       -0.416065         4
        14        22        21        40     9        0.000000        0.052087         1
        14        22        21        40     9      180.000000       14.496526         2
        14        22        21        40     9        0.000000       -0.651621         3
        14        22        21        40     9      180.000000        0.091153         4
        15        13        12        34     9        0.000000       -0.011980         1
        15        13        12        34     9      180.000000        0.045234         2
        15        13        12        34     9        0.000000        0.558511         3
        15        13        12        34     9      180.000000        0.058145         4
        15        13        12        35     9        0.000000       -0.011980         1
        15        13        12        35     9      180.000000        0.045234         2
        15        13        12        35     9        0.000000        0.558511         3
        15        13        12        35     9      180.000000        0.058145         4
        15        14        16        17     9        0.000000       -0.025329         1
        15        14        16        17     9      180.000000       15.206117         2
        15        14        16        17     9        0.000000       -0.139314         3
        15        14        16        17     9      180.000000       -0.241050         4
        15        14        16        37     9        0.000000       -0.115993         1
        15        14        16        37     9      180.000000       12.691917         2
        15        14        16        37     9        0.000000       -0.371633         3
        15        14        16        37     9      180.000000        0.137850         4
        15        14        22        21     9        0.000000       -0.025329         1
        15        14        22        21     9      180.000000       15.206117         2
        15        14        22        21     9        0.000000       -0.139314         3
        15        14        22        21     9      180.000000       -0.241050         4
        15        14        22        41     9        0.000000       -0.115993         1
        15        14        22        41     9      180.000000       12.691916         2
        15        14        22        41     9        0.000000       -0.371632         3
        15        14        22        41     9      180.000000        0.137850         4
        15        23        24        25     9        0.000000       -0.025329         1
        15        23        24        25     9      180.000000       15.206117         2
        15        23        24        25     9        0.000000       -0.139314         3
        15        23        24        25     9      180.000000       -0.241050         4
        15        23        24        42     9        0.000000       -0.115993         1
        15        23        24        42     9      180.000000       12.691916         2
        15        23        24        42     9        0.000000       -0.371632         3
        15        23        24        42     9      180.000000        0.137850         4
        15        23        28        27     9        0.000000       -0.025328         1
        15        23        28        27     9      180.000000       15.206118         2
        15        23        28        27     9        0.000000       -0.139314         3
        15        23        28        27     9      180.000000       -0.241050         4
        15        23        28        46     9        0.000000       -0.115993         1
        15        23        28        46     9      180.000000       12.691917         2
        15        23        28        46     9        0.000000       -0.371633         3
        15        23        28        46     9      180.000000        0.137850         4
        16        14        15        23     9        0.000000        0.077723         1
        16        14        15        23     9      180.000000       -0.062176         2
        16        14        15        23     9        0.000000        0.085376         3
        16        14        15        23     9      180.000000        0.032799         4
        16        14        15        48     9        0.000000        0.074058         1
        16        14        15        48     9      180.000000        0.012946         2
        16        14        15        48     9        0.000000        0.050980         3
        16        14        15        48     9      180.000000        0.018322         4
        16        14        22        21     9        0.000000       -0.132971         1
        16        14        22        21     9      180.000000       19.357324         2
        16        14        22        21     9        0.000000       -1.328931         3
        16        14        22        21     9      180.000000       -0.533039         4
        16        14        22        41     9        0.000000       -0.065375         1
        16        14        22        41     9      180.000000       14.383812         2
        16        14        22        41     9        0.000000       -0.544127         3
        16        14        22        41     9      180.000000        0.004061         4
        16        17        18        21     9        0.000000       -0.055832         1
        16        17        18        21     9      180.000000       18.644568         2
        16        17        18        21     9        0.000000       -1.603952         3
        16        17        18        21     9      180.000000       -0.402848         4
        16        17        18        39     9        0.000000        0.018306         1
        16        17        18        39     9      180.000000       14.324078         2
        16        17        18        39     9        0.000000       -0.776018         3
        16        17        18        39     9      180.000000        0.121301         4
        17        16        14        22     9        0.000000       -0.132971         1
        17        16        14        22     9      180.000000       19.357324         2
        17        16        14        22     9        0.000000       -1.328931         3
        17        16        14        22     9      180.000000       -0.533039         4
        17        18        21        22     9        0.000000       -0.055832         1
        17        18        21        22     9      180.000000       18.644568         2
        17        18        21        22     9        0.000000       -1.603952         3
        17        18        21        22     9      180.000000       -0.402848         4
        17        18        21        40     9        0.000000        0.029742         1
        17        18        21        40     9      180.000000       14.140938         2
        17        18        21        40     9        0.000000       -0.787921         3
        17        18        21        40     9      180.000000        0.139391         4
        18        17        16        37     9        0.000000        0.098232         1
        18        17        16        37     9      180.000000       14.518926         2
        18        17        16        37     9        0.000000       -0.662681         3
        18        17        16        37     9      180.000000        0.103259         4
        18        21        22        41     9        0.000000        0.098232         1
        18        21        22        41     9      180.000000       14.518926         2
        18        21        22        41     9        0.000000       -0.662681         3
        18        21        22        41     9      180.000000        0.103259         4
        19         8         7        49     9        0.000000        0.312175         1
        19         8         7        49     9      180.000000       12.060982         2
        19         8         7        49     9        0.000000       -0.376661         3
        19         8         7        49     9      180.000000        0.067672         4
        21        18        17        38     9        0.000000        0.029742         1
        21        18        17        38     9      180.000000       14.140938         2
        21        18        17        38     9        0.000000       -0.787921         3
        21        18        17        38     9      180.000000        0.139391         4
        22        14        15        23     9        0.000000        0.077723         1
        22        14        15        23     9      180.000000       -0.062176         2
        22        14        15        23     9        0.000000        0.085376         3
        22        14        15        23     9      180.000000        0.032799         4
        22        14        15        48     9        0.000000        0.074058         1
        22        14        15        48     9      180.000000        0.012946         2
        22        14        15        48     9        0.000000        0.050980         3
        22        14        15        48     9      180.000000        0.018322         4
        22        14        16        37     9        0.000000       -0.065375         1
        22        14        16        37     9      180.000000       14.383809         2
        22        14        16        37     9        0.000000       -0.544127         3
        22        14        16        37     9      180.000000        0.004060         4
        22        21        18        39     9        0.000000        0.018306         1
        22        21        18        39     9      180.000000       14.324078         2
        22        21        18        39     9        0.000000       -0.776018         3
        22        21        18        39     9      180.000000        0.121301         4
        23        15        13        36     9        0.000000       -0.092400         1
        23        15        13        36     9      180.000000        0.071655         2
        23        15        13        36     9        0.000000        0.673977         3
        23        15        13        36     9      180.000000        0.001379         4
        23        15        13        47     9        0.000000       -0.092401         1
        23        15        13        47     9      180.000000        0.071655         2
        23        15        13        47     9        0.000000        0.673976         3
        23        15        13        47     9      180.000000        0.001379         4
        23        24        25        26     9        0.000000        0.100567         1
        23        24        25        26     9      180.000000       18.461776         2
        23        24        25        26     9        0.000000       -1.434413         3
        23        24        25        26     9      180.000000       -0.416065         4
        23        24        25        43     9        0.000000        0.052087         1
        23        24        25        43     9      180.000000       14.496526         2
        23        24        25        43     9        0.000000       -0.651621         3
        23        24        25        43     9      180.000000        0.091153         4
        23        28        27        26     9        0.000000        0.100568         1
        23        28        27        26     9      180.000000       18.461776         2
        23        28        27        26     9        0.000000       -1.434414         3
        23        28        27        26     9      180.000000       -0.416065         4
        23        28        27        45     9        0.000000        0.052087         1
        23        28        27        45     9      180.000000       14.496526         2
        23        28        27        45     9        0.000000       -0.651621         3
        23        28        27        45     9      180.000000        0.091153         4
        24        23        15        48     9        0.000000        0.074058         1
        24        23        15        48     9      180.000000        0.012946         2
        24        23        15        48     9        0.000000        0.050980         3
        24        23        15        48     9      180.000000        0.018322         4
        24        23        28        27     9        0.000000       -0.132971         1
        24        23        28        27     9      180.000000       19.357324         2
        24        23        28        27     9        0.000000       -1.328931         3
        24        23        28        27     9      180.000000       -0.533039         4
        24        23        28        46     9        0.000000       -0.065375         1
        24        23        28        46     9      180.000000       14.383807         2
        24        23        28        46     9        0.000000       -0.544127         3
        24        23        28        46     9      180.000000        0.004060         4
        24        25        26        27     9        0.000000       -0.055832         1
        24        25        26        27     9      180.000000       18.644570         2
        24        25        26        27     9        0.000000       -1.603952         3
        24        25        26        27     9      180.000000       -0.402848         4
        24        25        26        44     9        0.000000        0.018307         1
        24        25        26        44     9      180.000000       14.324078         2
        24        25        26        44     9        0.000000       -0.776018         3
        24        25        26        44     9      180.000000        0.121301         4
        25        24        23        28     9        0.000000       -0.132971         1
        25        24        23        28     9      180.000000       19.357320         2
        25        24        23        28     9        0.000000       -1.328931         3
        25        24        23        28     9      180.000000       -0.533040         4
        25        26        27        28     9        0.000000       -0.055833         1
        25        26        27        28     9      180.000000       18.644568         2
        25        26        27        28     9        0.000000       -1.603952         3
        25        26        27        28     9      180.000000       -0.402848         4
        25        26        27        45     9        0.000000        0.029741         1
        25        26        27        45     9      180.000000       14.140937         2
        25        26        27        45     9        0.000000       -0.787920         3
        25        26        27        45     9      180.000000        0.139391         4
        26        25        24        42     9        0.000000        0.098233         1
        26        25        24        42     9      180.000000       14.518926         2
        26        25        24        42     9        0.000000       -0.662680         3
        26        25        24        42     9      180.000000        0.103259         4
        26        27        28        46     9        0.000000        0.098232         1
        26        27        28        46     9      180.000000       14.518927         2
        26        27        28        46     9        0.000000       -0.662680         3
        26        27        28        46     9      180.000000        0.103259         4
        27        26        25        43     9        0.000000        0.029742         1
        27        26        25        43     9      180.000000       14.140938         2
        27        26        25        43     9        0.000000       -0.787921         3
        27        26        25        43     9      180.000000        0.139392         4
        28        23        15        48     9        0.000000        0.074059         1
        28        23        15        48     9      180.000000        0.012946         2
        28        23        15        48     9        0.000000        0.050980         3
        28        23        15        48     9      180.000000        0.018322         4
        28        23        24        42     9        0.000000       -0.065375         1
        28        23        24        42     9      180.000000       14.383807         2
        28        23        24        42     9        0.000000       -0.544126         3
        28        23        24        42     9      180.000000        0.004060         4
        28        27        26        44     9        0.000000        0.018305         1
        28        27        26        44     9      180.000000       14.324078         2
        28        27        26        44     9        0.000000       -0.776019         3
        28        27        26        44     9      180.000000        0.121301         4
        29         1         2        30     9        0.000000       -0.163503         1
        29         1         2        30     9      180.000000       12.797312         2
        29         1         2        30     9        0.000000       -0.688355         3
        29         1         2        30     9      180.000000        0.362486         4
        30         2         3        31     9        0.000000       -0.167470         1
        30         2         3        31     9      180.000000       10.567820         2
        30         2         3        31     9        0.000000       -0.438382         3
        30         2         3        31     9      180.000000        0.152626         4
        31         3         4        32     9        0.000000       -0.143475         1
        31         3         4        32     9      180.000000       12.450687         2
        31         3         4        32     9        0.000000       -0.658351         3
        31         3         4        32     9      180.000000        0.360180         4
        33        11        12        34     9        0.000000        0.083082         1
        33        11        12        34     9      180.000000        0.247367         2
        33        11        12        34     9        0.000000        0.269708         3
        33        11        12        34     9      180.000000       -0.078537         4
        33        11        12        35     9        0.000000        0.083082         1
        33        11        12        35     9      180.000000        0.247367         2
        33        11        12        35     9        0.000000        0.269708         3
        33        11        12        35     9      180.000000       -0.078537         4
        34        12        13        36     9        0.000000       -0.010073         1
        34        12        13        36     9      180.000000        0.056213         2
        34        12        13        36     9        0.000000        0.665266         3
        34        12        13        36     9      180.000000       -0.060876         4
        34        12        13        47     9        0.000000       -0.010072         1
        34        12        13        47     9      180.000000        0.056213         2
        34        12        13        47     9        0.000000        0.665266         3
        34        12        13        47     9      180.000000       -0.060877         4
        35        12        13        36     9        0.000000       -0.010073         1
        35        12        13        36     9      180.000000        0.056213         2
        35        12        13        36     9        0.000000        0.665266         3
        35        12        13        36     9      180.000000       -0.060876         4
        35        12        13        47     9        0.000000       -0.010072         1
        35        12        13        47     9      180.000000        0.056213         2
        35        12        13        47     9        0.000000        0.665266         3
        35        12        13        47     9      180.000000       -0.060877         4
        36        13        15        48     9        0.000000        0.426159         1
        36        13        15        48     9      180.000000       -0.049967         2
        36        13        15        48     9        0.000000        0.565689         3
        36        13        15        48     9      180.000000       -0.077687         4
        37        16        17        38     9        0.000000       -0.093841         1
        37        16        17        38     9      180.000000       11.931995         2
        37        16        17        38     9        0.000000       -0.649558         3
        37        16        17        38     9      180.000000        0.254077         4
        38        17        18        39     9        0.000000       -0.083746         1
        38        17        18        39     9      180.000000       11.659430         2
        38        17        18        39     9        0.000000       -0.611749         3
        38        17        18        39     9      180.000000        0.244547         4
        39        18        21        40     9        0.000000       -0.083746         1
        39        18        21        40     9      180.000000       11.659430         2
        39        18        21        40     9        0.000000       -0.611749         3
        39        18        21        40     9      180.000000        0.244547         4
        40        21        22        41     9        0.000000       -0.093840         1
        40        21        22        41     9      180.000000       11.931995         2
        40        21        22        41     9        0.000000       -0.649558         3
        40        21        22        41     9      180.000000        0.254077         4
        42        24        25        43     9        0.000000       -0.093840         1
        42        24        25        43     9      180.000000       11.931995         2
        42        24        25        43     9        0.000000       -0.649558         3
        42        24        25        43     9      180.000000        0.254077         4
        43        25        26        44     9        0.000000       -0.083746         1
        43        25        26        44     9      180.000000       11.659428         2
        43        25        26        44     9        0.000000       -0.611749         3
        43        25        26        44     9      180.000000        0.244547         4
        44        26        27        45     9        0.000000       -0.083747         1
        44        26        27        45     9      180.000000       11.659430         2
        44        26        27        45     9        0.000000       -0.611749         3
        44        26        27        45     9      180.000000        0.244547         4
        45        27        28        46     9        0.000000       -0.093840         1
        45        27        28        46     9      180.000000       11.931995         2
        45        27        28        46     9        0.000000       -0.649558         3
        45        27        28        46     9      180.000000        0.254077         4
        47        13        15        48     9        0.000000        0.426160         1
        47        13        15        48     9      180.000000       -0.049967         2
        47        13        15        48     9        0.000000        0.565689         3
        47        13        15        48     9      180.000000       -0.077687         4

[ dihedrals ] ; impropers
;       ai        aj        ak        al funct           phase               k        pn
         4         3         5        32     4      180.000000        0.384289         2
         4         5        32         3     4      180.000000        0.384289         2
         4        32         3         5     4      180.000000        0.384289         2
         7         6         8        49     4      180.000000        7.542235         2
         7         8        49         6     4      180.000000        7.542235         2
         7        49         6         8     4      180.000000        7.542235         2
        16        14        17        37     4      180.000000        3.336013         2
        16        17        37        14     4      180.000000        3.336013         2
        16        37        14        17     4      180.000000        3.336013         2
        17        16        18        38     4      180.000000        2.510755         2
        17        18        38        16     4      180.000000        2.510755         2
        17        38        16        18     4      180.000000        2.510755         2
        18        17        21        39     4      180.000000        2.182729         2
        18        21        39        17     4      180.000000        2.182729         2
        18        39        17        21     4      180.000000        2.182729         2
        21        18        22        40     4      180.000000        2.510755         2
        21        22        40        18     4      180.000000        2.510755         2
        21        40        18        22     4      180.000000        2.510755         2
        22        14        21        41     4      180.000000        3.336013         2
        22        21        41        14     4      180.000000        3.336013         2
        22        41        14        21     4      180.000000        3.336013         2
        24        23        25        42     4      180.000000        3.336013         2
        24        25        42        23     4      180.000000        3.336013         2
        24        42        23        25     4      180.000000        3.336013         2
        25        24        26        43     4      180.000000        2.510755         2
        25        26        43        24     4      180.000000        2.510755         2
        25        43        24        26     4      180.000000        2.510755         2
        26        25        27        44     4      180.000000        2.182730         2
        26        27        44        25     4      180.000000        2.182730         2
        26        44        25        27     4      180.000000        2.182730         2
        27        26        28        45     4      180.000000        2.510755         2
        27        28        45        26     4      180.000000        2.510755         2
        27        45        26        28     4      180.000000        2.510755         2
        28        23        27        46     4      180.000000        3.336013         2
        28        27        46        23     4      180.000000        3.336013         2
        28        46        23        27     4      180.000000        3.336013         2

[ pairs ]
;       ai        aj funct
         1         4     1
         1         6     1
         1         8     1
         1        11     1
         1        31     1
         2         5     1
         2         9     1
         2        32     1
         3         6     1
         3        10     1
         3        29     1
         4         7     1
         4         9     1
         4        30     1
         5         8     1
         5        11     1
         5        29     1
         5        31     1
         5        49     1
         6         9     1
         6        19     1
         6        32     1
         7        10     1
         7        11     1
         7        20     1
         8        12     1
         8        33     1
         9        13     1
         9        20     1
         9        29     1
         9        34     1
         9        35     1
         9        49     1
        10        12     1
        10        19     1
        10        30     1
        10        32     1
        10        33     1
        11        15     1
        11        19     1
        11        36     1
        11        47     1
        12        14     1
        12        23     1
        12        48     1
        13        16     1
        13        22     1
        13        24     1
        13        28     1
        13        33     1
        14        18     1
        14        24     1
        14        28     1
        14        36     1
        14        38     1
        14        40     1
        14        47     1
        15        17     1
        15        21     1
        15        25     1
        15        27     1
        15        34     1
        15        35     1
        15        37     1
        15        41     1
        15        42     1
        15        46     1
        16        21     1
        16        23     1
        16        39     1
        16        41     1
        16        48     1
        17        22     1
        17        40     1
        18        37     1
        18        41     1
        19        49     1
        21        38     1
        22        23     1
        22        37     1
        22        39     1
        22        48     1
        23        26     1
        23        36     1
        23        43     1
        23        45     1
        23        47     1
        24        27     1
        24        44     1
        24        46     1
        24        48     1
        25        28     1
        25        45     1
        26        42     1
        26        46     1
        27        43     1
        28        42     1
        28        44     1
        28        48     1
        29        30     1
        30        31     1
        31        32     1
        33        34     1
        33        35     1
        34        36     1
        34        47     1
        35        36     1
        35        47     1
        36        48     1
        37        38     1
        38        39     1
        39        40     1
        40        41     1
        42        43     1
        43        44     1
        44        45     1
        45        46     1
        47        48     1
