; ITP file created by ByteFF-ML, 2025-12-06 08:17:37.645927

[ atomtypes ]
;name           bonded.type        at.num        mass        charge   ptype           sigma         epsilon
 c0bf                                   6      0.0000       0.00000       A     3.31576e-01     4.12694e-01
 c1bf                                   6      0.0000       0.00000       A     3.31518e-01     4.12574e-01
 c2bf                                   6      0.0000       0.00000       A     3.31504e-01     4.12825e-01
 c3bf                                   6      0.0000       0.00000       A     3.31514e-01     4.13144e-01
 c4bf                                   6      0.0000       0.00000       A     3.31545e-01     4.13211e-01
 n5bf                                   7      0.0000       0.00000       A     3.38313e-01     3.89642e-01
 n6bf                                   7      0.0000       0.00000       A     3.38507e-01     3.87645e-01
 c7bf                                   6      0.0000       0.00000       A     3.31552e-01     4.14119e-01
 c8bf                                   6      0.0000       0.00000       A     3.31438e-01     4.10424e-01
 c9bf                                   6      0.0000       0.00000       A     3.31537e-01     4.11621e-01
 n10bf                                  7      0.0000       0.00000       A     3.27997e-01     6.41053e-01
 c11bf                                  6      0.0000       0.00000       A     3.39853e-01     4.52676e-01
 c12bf                                  6      0.0000       0.00000       A     3.39929e-01     4.49847e-01
 c13bf                                  6      0.0000       0.00000       A     3.31523e-01     4.12617e-01
 c14bf                                  6      0.0000       0.00000       A     3.39859e-01     4.50261e-01
 c15bf                                  6      0.0000       0.00000       A     3.31481e-01     4.13328e-01
 c16bf                                  6      0.0000       0.00000       A     3.31506e-01     4.13446e-01
 c17bf                                  6      0.0000       0.00000       A     3.31497e-01     4.12820e-01
 c18bf                                  6      0.0000       0.00000       A     3.31506e-01     4.13446e-01
 c19bf                                  6      0.0000       0.00000       A     3.31481e-01     4.13328e-01
 c20bf                                  6      0.0000       0.00000       A     3.31523e-01     4.12617e-01
 c21bf                                  6      0.0000       0.00000       A     3.31481e-01     4.13328e-01
 c22bf                                  6      0.0000       0.00000       A     3.31506e-01     4.13446e-01
 c23bf                                  6      0.0000       0.00000       A     3.31497e-01     4.12820e-01
 c24bf                                  6      0.0000       0.00000       A     3.31506e-01     4.13446e-01
 c25bf                                  6      0.0000       0.00000       A     3.31481e-01     4.13328e-01
 h26bf                                  1      0.0000       0.00000       A     2.62481e-01     6.75329e-02
 h27bf                                  1      0.0000       0.00000       A     2.62489e-01     6.75504e-02
 h28bf                                  1      0.0000       0.00000       A     2.62455e-01     6.76877e-02
 h29bf                                  1      0.0000       0.00000       A     2.62634e-01     6.74339e-02
 h30bf                                  1      0.0000       0.00000       A     1.10642e-01     4.01683e-02
 h31bf                                  1      0.0000       0.00000       A     2.42380e-01     8.71997e-02
 h32bf                                  1      0.0000       0.00000       A     2.42380e-01     8.71997e-02
 h33bf                                  1      0.0000       0.00000       A     2.60105e-01     8.67623e-02
 h34bf                                  1      0.0000       0.00000       A     2.62480e-01     6.76701e-02
 h35bf                                  1      0.0000       0.00000       A     2.62458e-01     6.72983e-02
 h36bf                                  1      0.0000       0.00000       A     2.62457e-01     6.73477e-02
 h37bf                                  1      0.0000       0.00000       A     2.62458e-01     6.72983e-02
 h38bf                                  1      0.0000       0.00000       A     2.62480e-01     6.76717e-02
 h39bf                                  1      0.0000       0.00000       A     2.62480e-01     6.76717e-02
 h40bf                                  1      0.0000       0.00000       A     2.62458e-01     6.72983e-02
 h41bf                                  1      0.0000       0.00000       A     2.62457e-01     6.73477e-02
 h42bf                                  1      0.0000       0.00000       A     2.62458e-01     6.72983e-02
 h43bf                                  1      0.0000       0.00000       A     2.62480e-01     6.76717e-02
 h44bf                                  1      0.0000       0.00000       A     2.60105e-01     8.67623e-02
 h45bf                                  1      0.0000       0.00000       A     2.59889e-01     8.79115e-02
 h46bf                                  1      0.0000       0.00000       A     2.53399e-01     6.82447e-02

[ moleculetype ]
;name             nrexcl
 6d                    3

[ atoms ]
;       nr            type      resi   res      atom      cgnr      charge          mass ; qtot
         1            c0bf         1   UNL        c0         1    -0.09063       12.0110 ; qtot   -0.091
         2            c1bf         1   UNL        c1         2    -0.10628       12.0110 ; qtot   -0.197
         3            c2bf         1   UNL        c2         3    -0.10499       12.0110 ; qtot   -0.302
         4            c3bf         1   UNL        c3         4    -0.07102       12.0110 ; qtot   -0.373
         5            c4bf         1   UNL        c4         5     0.22513       12.0110 ; qtot   -0.148
         6            n5bf         1   UNL        n5         6    -0.33127       14.0070 ; qtot   -0.479
         7            n6bf         1   UNL        n6         7    -0.27610       14.0070 ; qtot   -0.755
         8            c7bf         1   UNL        c7         8     0.18416       12.0110 ; qtot   -0.571
         9            c8bf         1   UNL        c8         9     0.31341       12.0110 ; qtot   -0.258
        10            c9bf         1   UNL        c9        10    -0.10034       12.0110 ; qtot   -0.358
        11           n10bf         1   UNL       n10        11    -0.93286       14.0070 ; qtot   -1.291
        12           c11bf         1   UNL       c11        12     0.19977       12.0110 ; qtot   -1.091
        13           c12bf         1   UNL       c12        13    -0.08900       12.0110 ; qtot   -1.180
        14           c13bf         1   UNL       c13        14    -0.08511       12.0110 ; qtot   -1.265
        15           c14bf         1   UNL       c14        15     0.03332       12.0110 ; qtot   -1.232
        16           c15bf         1   UNL       c15        16    -0.10676       12.0110 ; qtot   -1.339
        17           c16bf         1   UNL       c16        17    -0.11255       12.0110 ; qtot   -1.451
        18           c17bf         1   UNL       c17        18    -0.10702       12.0110 ; qtot   -1.558
        19           c18bf         1   UNL       c18        19    -0.11255       12.0110 ; qtot   -1.671
        20           c19bf         1   UNL       c19        20    -0.10676       12.0110 ; qtot   -1.777
        21           c20bf         1   UNL       c20        21    -0.08511       12.0110 ; qtot   -1.863
        22           c21bf         1   UNL       c21        22    -0.10676       12.0110 ; qtot   -1.969
        23           c22bf         1   UNL       c22        23    -0.11255       12.0110 ; qtot   -2.082
        24           c23bf         1   UNL       c23        24    -0.10702       12.0110 ; qtot   -2.189
        25           c24bf         1   UNL       c24        25    -0.11255       12.0110 ; qtot   -2.301
        26           c25bf         1   UNL       c25        26    -0.10676       12.0110 ; qtot   -2.408
        27           h26bf         1   UNL       h26        27     0.11620        1.0080 ; qtot   -2.292
        28           h27bf         1   UNL       h27        28     0.11770        1.0080 ; qtot   -2.174
        29           h28bf         1   UNL       h28        29     0.12341        1.0080 ; qtot   -2.051
        30           h29bf         1   UNL       h29        30     0.13935        1.0080 ; qtot   -1.912
        31           h30bf         1   UNL       h30        31     0.46500        1.0080 ; qtot   -1.447
        32           h31bf         1   UNL       h31        32     0.04920        1.0080 ; qtot   -1.397
        33           h32bf         1   UNL       h32        33     0.04920        1.0080 ; qtot   -1.348
        34           h33bf         1   UNL       h33        34     0.05553        1.0080 ; qtot   -1.293
        35           h34bf         1   UNL       h34        35     0.11602        1.0080 ; qtot   -1.177
        36           h35bf         1   UNL       h35        36     0.11408        1.0080 ; qtot   -1.063
        37           h36bf         1   UNL       h36        37     0.11320        1.0080 ; qtot   -0.949
        38           h37bf         1   UNL       h37        38     0.11408        1.0080 ; qtot   -0.835
        39           h38bf         1   UNL       h38        39     0.11602        1.0080 ; qtot   -0.719
        40           h39bf         1   UNL       h39        40     0.11602        1.0080 ; qtot   -0.603
        41           h40bf         1   UNL       h40        41     0.11408        1.0080 ; qtot   -0.489
        42           h41bf         1   UNL       h41        42     0.11320        1.0080 ; qtot   -0.376
        43           h42bf         1   UNL       h42        43     0.11408        1.0080 ; qtot   -0.262
        44           h43bf         1   UNL       h43        44     0.11602        1.0080 ; qtot   -0.146
        45           h44bf         1   UNL       h44        45     0.05553        1.0080 ; qtot   -0.090
        46           h45bf         1   UNL       h45        46     0.05670        1.0080 ; qtot   -0.034
        47           h46bf         1   UNL       h46        47     0.03358        1.0080 ; qtot    0.000

[ bonds ]
;       ai        aj funct               r               k
         1         2     1        0.138183   348071.260449
         1        10     1        0.141992   271581.105908
         1        27     1        0.108475   321124.170654
         2         3     1        0.141889   273078.678613
         2        28     1        0.108595   320779.240918
         3         4     1        0.137683   363994.516406
         3        29     1        0.108592   321511.364307
         4         5     1        0.142173   277617.337988
         4        30     1        0.108511   324686.980469
         5         6     1        0.136964   240285.557129
         5        10     1        0.142725   247695.506934
         6         7     1        0.130816   330384.054199
         7         8     1        0.134787   274564.734082
         8         9     1        0.139769   293481.603223
         8        47     1        0.108596   319515.792432
         9        10     1        0.143351   242946.906982
         9        11     1        0.137563   308960.947607
        11        12     1        0.146212   207672.140283
        11        31     1        0.101177   415210.031982
        12        13     1        0.153356   183325.085742
        12        32     1        0.109582   292131.073193
        12        33     1        0.109582   292131.073193
        13        15     1        0.154791   161268.441772
        13        34     1        0.109495   296531.678955
        13        45     1        0.109495   296531.678955
        14        15     1        0.152487   177829.231665
        14        16     1        0.140288   288053.435254
        14        20     1        0.140288   288053.435254
        15        21     1        0.152487   177829.231665
        15        46     1        0.109609   292897.007715
        16        17     1        0.139831   309672.130566
        16        35     1        0.108651   316913.229004
        17        18     1        0.139910   306540.770215
        17        36     1        0.108649   318926.293799
        18        19     1        0.139910   306540.770215
        18        37     1        0.108629   319751.295654
        19        20     1        0.139831   309672.130566
        19        38     1        0.108649   318926.293799
        20        39     1        0.108651   316913.229004
        21        22     1        0.140288   288053.435254
        21        26     1        0.140288   288053.435254
        22        23     1        0.139831   309672.130566
        22        40     1        0.108651   316913.229004
        23        24     1        0.139910   306540.770215
        23        41     1        0.108649   318926.293799
        24        25     1        0.139910   306540.770215
        24        42     1        0.108629   319751.295654
        25        26     1        0.139831   309672.105029
        25        43     1        0.108649   318926.293799
        26        44     1        0.108651   316913.254541

[ angles ]
;       ai        aj        ak funct           theta             cth
         1         2         3     1      120.611961      686.436351
         1         2        28     1      119.899536      442.300787
         1        10         5     1      118.769470      730.657942
         1        10         9     1      124.486000      476.185626
         2         1        10     1      120.429649      603.851637
         2         1        27     1      119.207413      445.939793
         2         3         4     1      120.113907      716.649943
         2         3        29     1      119.658409      444.571132
         3         2        28     1      119.534828      447.083632
         3         4         5     1      120.197891      573.285441
         3         4        30     1      122.302841      428.339107
         4         3        29     1      120.306541      444.929992
         4         5         6     1      116.908653      487.031301
         4         5        10     1      119.520058      700.899229
         5         4        30     1      117.721848      444.446000
         5         6         7     1      119.064980      641.462437
         5        10         9     1      116.399132      924.700773
         6         5        10     1      123.415726      745.298366
         6         7         8     1      120.679100      707.353797
         7         8         9     1      124.451431      820.246973
         7         8        47     1      114.485451      380.589915
         8         9        10     1      115.682228      667.843739
         8         9        11     1      122.788597      612.921397
         9         8        47     1      121.049484      415.216544
         9        11        12     1      122.917221      475.792961
         9        11        31     1      114.931213      468.354608
        10         1        27     1      120.623001      424.831425
        10         9        11     1      121.055504      478.315166
        11        12        13     1      112.185524      583.535590
        11        12        32     1      109.119125      462.610418
        11        12        33     1      109.119125      462.610418
        12        11        31     1      113.809326      459.114931
        12        13        15     1      114.038574      580.359667
        12        13        34     1      109.029800      512.021692
        12        13        45     1      109.029800      512.021661
        13        12        32     1      109.745438      499.115237
        13        12        33     1      109.745438      499.115237
        13        15        14     1      112.160873      575.900952
        13        15        21     1      112.160873      575.900952
        13        15        46     1      106.370605      494.947070
        14        15        21     1      111.951767      502.502224
        14        15        46     1      106.611694      487.625485
        14        16        17     1      120.963661      707.473566
        14        16        35     1      119.594765      388.507185
        14        20        19     1      120.963661      707.473566
        14        20        39     1      119.594765      388.507154
        15        13        34     1      109.032822      468.827268
        15        13        45     1      109.032822      468.827204
        15        14        16     1      120.819603      485.006655
        15        14        20     1      120.819603      485.006655
        15        21        22     1      120.819603      485.006655
        15        21        26     1      120.819603      485.006655
        16        14        20     1      118.240677      721.110766
        16        17        18     1      120.154312      709.440179
        16        17        36     1      119.775925      429.066244
        17        16        35     1      119.555504      431.916856
        17        18        19     1      119.475426      707.369056
        17        18        37     1      120.262108      430.653790
        18        17        36     1      120.092667      423.840107
        18        19        20     1      120.154312      709.440179
        18        19        38     1      120.092667      423.840107
        19        18        37     1      120.262108      430.653790
        19        20        39     1      119.555504      431.916856
        20        19        38     1      119.775925      429.066276
        21        15        46     1      106.611710      487.625485
        21        22        23     1      120.963661      707.473566
        21        22        40     1      119.594765      388.507154
        21        26        25     1      120.963661      707.473566
        21        26        44     1      119.594765      388.507185
        22        21        26     1      118.240677      721.110829
        22        23        24     1      120.154312      709.440179
        22        23        41     1      119.775925      429.066276
        23        22        40     1      119.555496      431.916856
        23        24        25     1      119.475426      707.369056
        23        24        42     1      120.262100      430.653790
        24        23        41     1      120.092667      423.840107
        24        25        26     1      120.154312      709.440179
        24        25        43     1      120.092667      423.840107
        25        24        42     1      120.262100      430.653790
        25        26        44     1      119.555496      431.916856
        26        25        43     1      119.775925      429.066276
        32        12        33     1      106.686729      354.152144
        34        13        45     1      106.861282      358.402413

[ dihedrals ] ; propers for gromacs 4.5 or higher, use funct 9
;       ai        aj        ak        al funct           phase               k        pn
         1         2         3         4     9        0.000000        0.151896         1
         1         2         3         4     9      180.000000       15.992064         2
         1         2         3         4     9        0.000000       -1.409446         3
         1         2         3         4     9      180.000000       -0.283989         4
         1         2         3        29     9        0.000000       -0.025871         1
         1         2         3        29     9      180.000000       12.590411         2
         1         2         3        29     9        0.000000       -0.617242         3
         1         2         3        29     9      180.000000        0.086681         4
         1        10         5         4     9        0.000000        0.105323         1
         1        10         5         4     9      180.000000       11.113659         2
         1        10         5         4     9        0.000000       -0.802745         3
         1        10         5         4     9      180.000000       -0.057758         4
         1        10         5         6     9        0.000000       -0.218215         1
         1        10         5         6     9      180.000000        9.993825         2
         1        10         5         6     9        0.000000       -0.488906         3
         1        10         5         6     9      180.000000       -0.021041         4
         1        10         9         8     9        0.000000       -0.332108         1
         1        10         9         8     9      180.000000        7.068738         2
         1        10         9         8     9        0.000000       -0.133138         3
         1        10         9         8     9      180.000000       -0.084784         4
         1        10         9        11     9        0.000000       -0.088005         1
         1        10         9        11     9      180.000000       10.488974         2
         1        10         9        11     9        0.000000        0.275556         3
         1        10         9        11     9      180.000000       -0.223599         4
         2         1        10         5     9        0.000000       -0.157134         1
         2         1        10         5     9      180.000000       16.769821         2
         2         1        10         5     9        0.000000       -1.076171         3
         2         1        10         5     9      180.000000       -0.243385         4
         2         1        10         9     9        0.000000       -0.082202         1
         2         1        10         9     9      180.000000       13.526600         2
         2         1        10         9     9        0.000000       -0.957467         3
         2         1        10         9     9      180.000000       -0.043057         4
         2         3         4         5     9        0.000000       -0.096519         1
         2         3         4         5     9      180.000000       20.951457         2
         2         3         4         5     9        0.000000       -1.419447         3
         2         3         4         5     9      180.000000       -0.523218         4
         2         3         4        30     9        0.000000        0.017841         1
         2         3         4        30     9      180.000000       15.982099         2
         2         3         4        30     9        0.000000       -0.399553         3
         2         3         4        30     9      180.000000        0.049506         4
         3         2         1        10     9        0.000000       -0.145649         1
         3         2         1        10     9      180.000000       21.008400         2
         3         2         1        10     9        0.000000       -2.042690         3
         3         2         1        10     9      180.000000       -0.468140         4
         3         2         1        27     9        0.000000        0.000740         1
         3         2         1        27     9      180.000000       16.464870         2
         3         2         1        27     9        0.000000       -0.491149         3
         3         2         1        27     9      180.000000        0.090111         4
         3         4         5         6     9        0.000000       -0.091552         1
         3         4         5         6     9      180.000000       12.927093         2
         3         4         5         6     9        0.000000       -0.192380         3
         3         4         5         6     9      180.000000       -0.139026         4
         3         4         5        10     9        0.000000       -0.270342         1
         3         4         5        10     9      180.000000       15.160474         2
         3         4         5        10     9        0.000000       -1.033359         3
         3         4         5        10     9      180.000000       -0.232319         4
         4         3         2        28     9        0.000000        0.031593         1
         4         3         2        28     9      180.000000       13.089299         2
         4         3         2        28     9        0.000000       -0.582593         3
         4         3         2        28     9      180.000000        0.069800         4
         4         5         6         7     9        0.000000        0.344310         1
         4         5         6         7     9      180.000000       17.549596         2
         4         5         6         7     9        0.000000        0.808699         3
         4         5         6         7     9      180.000000       -0.593166         4
         4         5        10         9     9        0.000000       -0.038994         1
         4         5        10         9     9      180.000000       11.245484         2
         4         5        10         9     9        0.000000       -0.967497         3
         4         5        10         9     9      180.000000       -0.134266         4
         5         4         3        29     9        0.000000        0.157983         1
         5         4         3        29     9      180.000000       15.953795         2
         5         4         3        29     9        0.000000       -0.292269         3
         5         4         3        29     9      180.000000        0.018485         4
         5         6         7         8     9        0.000000        0.440624         1
         5         6         7         8     9      180.000000       30.920268         2
         5         6         7         8     9        0.000000       -0.519114         3
         5         6         7         8     9      180.000000       -0.638909         4
         5        10         1        27     9        0.000000        0.010546         1
         5        10         1        27     9      180.000000       12.078416         2
         5        10         1        27     9        0.000000       -0.141007         3
         5        10         1        27     9      180.000000        0.109695         4
         5        10         9         8     9        0.000000       -0.277441         1
         5        10         9         8     9      180.000000        9.453041         2
         5        10         9         8     9        0.000000       -0.539554         3
         5        10         9         8     9      180.000000       -0.128608         4
         5        10         9        11     9        0.000000       -0.089773         1
         5        10         9        11     9      180.000000       12.095654         2
         5        10         9        11     9        0.000000        0.224387         3
         5        10         9        11     9      180.000000       -0.446884         4
         6         5         4        30     9        0.000000       -0.027267         1
         6         5         4        30     9      180.000000       10.575348         2
         6         5         4        30     9        0.000000       -0.221748         3
         6         5         4        30     9      180.000000        0.063222         4
         6         5        10         9     9        0.000000       -0.215272         1
         6         5        10         9     9      180.000000       10.618561         2
         6         5        10         9     9        0.000000       -0.568139         3
         6         5        10         9     9      180.000000       -0.162202         4
         6         7         8         9     9        0.000000        0.374207         1
         6         7         8         9     9      180.000000       19.134691         2
         6         7         8         9     9        0.000000       -0.080623         3
         6         7         8         9     9      180.000000       -0.365040         4
         6         7         8        47     9        0.000000        0.553314         1
         6         7         8        47     9      180.000000       18.645080         2
         6         7         8        47     9        0.000000        0.506037         3
         6         7         8        47     9      180.000000       -0.105189         4
         7         6         5        10     9        0.000000        0.950532         1
         7         6         5        10     9      180.000000       17.215385         2
         7         6         5        10     9        0.000000        0.588069         3
         7         6         5        10     9      180.000000       -0.536266         4
         7         8         9        10     9        0.000000       -0.036614         1
         7         8         9        10     9      180.000000       13.705230         2
         7         8         9        10     9        0.000000       -0.296526         3
         7         8         9        10     9      180.000000       -0.397641         4
         7         8         9        11     9        0.000000        0.183000         1
         7         8         9        11     9      180.000000       15.279964         2
         7         8         9        11     9        0.000000        0.336187         3
         7         8         9        11     9      180.000000       -0.665535         4
         8         9        11        12     9        0.000000        0.263659         1
         8         9        11        12     9      180.000000        5.617057         2
         8         9        11        12     9        0.000000       -0.087370         3
         8         9        11        12     9      180.000000       -0.279090         4
         8         9        11        31     9        0.000000       -0.859374         1
         8         9        11        31     9      180.000000        6.980161         2
         8         9        11        31     9        0.000000       -0.250156         3
         8         9        11        31     9      180.000000       -0.389130         4
         9        10         1        27     9        0.000000       -0.059911         1
         9        10         1        27     9      180.000000       11.376214         2
         9        10         1        27     9        0.000000       -0.515855         3
         9        10         1        27     9      180.000000        0.090951         4
         9        11        12        13     9        0.000000        0.791164         1
         9        11        12        13     9      180.000000       -0.343680         2
         9        11        12        13     9        0.000000        0.671712         3
         9        11        12        13     9      180.000000        0.026639         4
         9        11        12        32     9        0.000000       -0.377878         1
         9        11        12        32     9      180.000000        0.013251         2
         9        11        12        32     9        0.000000        0.813749         3
         9        11        12        32     9      180.000000        0.022306         4
         9        11        12        33     9        0.000000       -0.377878         1
         9        11        12        33     9      180.000000        0.013251         2
         9        11        12        33     9        0.000000        0.813749         3
         9        11        12        33     9      180.000000        0.022306         4
        10         1         2        28     9        0.000000        0.000712         1
        10         1         2        28     9      180.000000       15.984759         2
        10         1         2        28     9        0.000000       -0.706500         3
        10         1         2        28     9      180.000000        0.005168         4
        10         5         4        30     9        0.000000       -0.157652         1
        10         5         4        30     9      180.000000       11.789491         2
        10         5         4        30     9        0.000000       -0.124063         3
        10         5         4        30     9      180.000000       -0.017161         4
        10         9         8        47     9        0.000000       -0.029697         1
        10         9         8        47     9      180.000000       12.400305         2
        10         9         8        47     9        0.000000       -0.186658         3
        10         9         8        47     9      180.000000       -0.045414         4
        10         9        11        12     9        0.000000        1.444924         1
        10         9        11        12     9      180.000000        5.030047         2
        10         9        11        12     9        0.000000        0.808482         3
        10         9        11        12     9      180.000000       -0.209174         4
        10         9        11        31     9        0.000000        1.148029         1
        10         9        11        31     9      180.000000        6.002298         2
        10         9        11        31     9        0.000000       -0.116583         3
        10         9        11        31     9      180.000000       -0.301838         4
        11         9         8        47     9        0.000000       -0.336219         1
        11         9         8        47     9      180.000000       12.922442         2
        11         9         8        47     9        0.000000       -0.045207         3
        11         9         8        47     9      180.000000        0.215532         4
        11        12        13        15     9        0.000000       -1.055824         1
        11        12        13        15     9      180.000000       -0.419846         2
        11        12        13        15     9        0.000000        0.487584         3
        11        12        13        15     9      180.000000       -0.003026         4
        11        12        13        34     9        0.000000        0.002254         1
        11        12        13        34     9      180.000000        0.107088         2
        11        12        13        34     9        0.000000        0.558408         3
        11        12        13        34     9      180.000000        0.046011         4
        11        12        13        45     9        0.000000        0.002253         1
        11        12        13        45     9      180.000000        0.107088         2
        11        12        13        45     9        0.000000        0.558408         3
        11        12        13        45     9      180.000000        0.046011         4
        12        13        15        14     9        0.000000        0.835874         1
        12        13        15        14     9      180.000000       -0.452093         2
        12        13        15        14     9        0.000000        0.710302         3
        12        13        15        14     9      180.000000        0.064727         4
        12        13        15        21     9        0.000000        0.835874         1
        12        13        15        21     9      180.000000       -0.452093         2
        12        13        15        21     9        0.000000        0.710302         3
        12        13        15        21     9      180.000000        0.064727         4
        12        13        15        46     9        0.000000       -0.837800         1
        12        13        15        46     9      180.000000        0.168906         2
        12        13        15        46     9        0.000000        0.574296         3
        12        13        15        46     9      180.000000        0.057386         4
        13        12        11        31     9        0.000000        0.812855         1
        13        12        11        31     9      180.000000       -1.043306         2
        13        12        11        31     9        0.000000       -0.025743         3
        13        12        11        31     9      180.000000        0.022693         4
        13        15        14        16     9        0.000000       -0.125599         1
        13        15        14        16     9      180.000000        0.548086         2
        13        15        14        16     9        0.000000        0.125767         3
        13        15        14        16     9      180.000000        0.154117         4
        13        15        14        20     9        0.000000       -0.125599         1
        13        15        14        20     9      180.000000        0.548086         2
        13        15        14        20     9        0.000000        0.125767         3
        13        15        14        20     9      180.000000        0.154117         4
        13        15        21        22     9        0.000000       -0.125599         1
        13        15        21        22     9      180.000000        0.548086         2
        13        15        21        22     9        0.000000        0.125767         3
        13        15        21        22     9      180.000000        0.154117         4
        13        15        21        26     9        0.000000       -0.125599         1
        13        15        21        26     9      180.000000        0.548085         2
        13        15        21        26     9        0.000000        0.125767         3
        13        15        21        26     9      180.000000        0.154117         4
        14        15        13        34     9        0.000000       -0.092400         1
        14        15        13        34     9      180.000000        0.071655         2
        14        15        13        34     9        0.000000        0.673977         3
        14        15        13        34     9      180.000000        0.001379         4
        14        15        13        45     9        0.000000       -0.092401         1
        14        15        13        45     9      180.000000        0.071655         2
        14        15        13        45     9        0.000000        0.673976         3
        14        15        13        45     9      180.000000        0.001379         4
        14        15        21        22     9        0.000000        0.077723         1
        14        15        21        22     9      180.000000       -0.062176         2
        14        15        21        22     9        0.000000        0.085376         3
        14        15        21        22     9      180.000000        0.032799         4
        14        15        21        26     9        0.000000        0.077723         1
        14        15        21        26     9      180.000000       -0.062176         2
        14        15        21        26     9        0.000000        0.085376         3
        14        15        21        26     9      180.000000        0.032799         4
        14        16        17        18     9        0.000000        0.100567         1
        14        16        17        18     9      180.000000       18.461774         2
        14        16        17        18     9        0.000000       -1.434414         3
        14        16        17        18     9      180.000000       -0.416065         4
        14        16        17        36     9        0.000000        0.052087         1
        14        16        17        36     9      180.000000       14.496526         2
        14        16        17        36     9        0.000000       -0.651621         3
        14        16        17        36     9      180.000000        0.091153         4
        14        20        19        18     9        0.000000        0.100567         1
        14        20        19        18     9      180.000000       18.461774         2
        14        20        19        18     9        0.000000       -1.434414         3
        14        20        19        18     9      180.000000       -0.416065         4
        14        20        19        38     9        0.000000        0.052087         1
        14        20        19        38     9      180.000000       14.496526         2
        14        20        19        38     9        0.000000       -0.651621         3
        14        20        19        38     9      180.000000        0.091153         4
        15        13        12        32     9        0.000000       -0.033729         1
        15        13        12        32     9      180.000000        0.051390         2
        15        13        12        32     9        0.000000        0.570941         3
        15        13        12        32     9      180.000000        0.051360         4
        15        13        12        33     9        0.000000       -0.033729         1
        15        13        12        33     9      180.000000        0.051390         2
        15        13        12        33     9        0.000000        0.570941         3
        15        13        12        33     9      180.000000        0.051360         4
        15        14        16        17     9        0.000000       -0.025329         1
        15        14        16        17     9      180.000000       15.206117         2
        15        14        16        17     9        0.000000       -0.139314         3
        15        14        16        17     9      180.000000       -0.241050         4
        15        14        16        35     9        0.000000       -0.115993         1
        15        14        16        35     9      180.000000       12.691917         2
        15        14        16        35     9        0.000000       -0.371633         3
        15        14        16        35     9      180.000000        0.137850         4
        15        14        20        19     9        0.000000       -0.025329         1
        15        14        20        19     9      180.000000       15.206117         2
        15        14        20        19     9        0.000000       -0.139314         3
        15        14        20        19     9      180.000000       -0.241050         4
        15        14        20        39     9        0.000000       -0.115993         1
        15        14        20        39     9      180.000000       12.691916         2
        15        14        20        39     9        0.000000       -0.371632         3
        15        14        20        39     9      180.000000        0.137850         4
        15        21        22        23     9        0.000000       -0.025329         1
        15        21        22        23     9      180.000000       15.206117         2
        15        21        22        23     9        0.000000       -0.139314         3
        15        21        22        23     9      180.000000       -0.241050         4
        15        21        22        40     9        0.000000       -0.115993         1
        15        21        22        40     9      180.000000       12.691916         2
        15        21        22        40     9        0.000000       -0.371632         3
        15        21        22        40     9      180.000000        0.137850         4
        15        21        26        25     9        0.000000       -0.025328         1
        15        21        26        25     9      180.000000       15.206118         2
        15        21        26        25     9        0.000000       -0.139314         3
        15        21        26        25     9      180.000000       -0.241050         4
        15        21        26        44     9        0.000000       -0.115993         1
        15        21        26        44     9      180.000000       12.691917         2
        15        21        26        44     9        0.000000       -0.371633         3
        15        21        26        44     9      180.000000        0.137850         4
        16        14        15        21     9        0.000000        0.077723         1
        16        14        15        21     9      180.000000       -0.062176         2
        16        14        15        21     9        0.000000        0.085376         3
        16        14        15        21     9      180.000000        0.032799         4
        16        14        15        46     9        0.000000        0.074058         1
        16        14        15        46     9      180.000000        0.012946         2
        16        14        15        46     9        0.000000        0.050980         3
        16        14        15        46     9      180.000000        0.018322         4
        16        14        20        19     9        0.000000       -0.132971         1
        16        14        20        19     9      180.000000       19.357324         2
        16        14        20        19     9        0.000000       -1.328931         3
        16        14        20        19     9      180.000000       -0.533039         4
        16        14        20        39     9        0.000000       -0.065375         1
        16        14        20        39     9      180.000000       14.383812         2
        16        14        20        39     9        0.000000       -0.544127         3
        16        14        20        39     9      180.000000        0.004061         4
        16        17        18        19     9        0.000000       -0.055832         1
        16        17        18        19     9      180.000000       18.644568         2
        16        17        18        19     9        0.000000       -1.603952         3
        16        17        18        19     9      180.000000       -0.402848         4
        16        17        18        37     9        0.000000        0.018306         1
        16        17        18        37     9      180.000000       14.324078         2
        16        17        18        37     9        0.000000       -0.776018         3
        16        17        18        37     9      180.000000        0.121301         4
        17        16        14        20     9        0.000000       -0.132971         1
        17        16        14        20     9      180.000000       19.357324         2
        17        16        14        20     9        0.000000       -1.328931         3
        17        16        14        20     9      180.000000       -0.533039         4
        17        18        19        20     9        0.000000       -0.055832         1
        17        18        19        20     9      180.000000       18.644568         2
        17        18        19        20     9        0.000000       -1.603952         3
        17        18        19        20     9      180.000000       -0.402848         4
        17        18        19        38     9        0.000000        0.029742         1
        17        18        19        38     9      180.000000       14.140938         2
        17        18        19        38     9        0.000000       -0.787921         3
        17        18        19        38     9      180.000000        0.139391         4
        18        17        16        35     9        0.000000        0.098232         1
        18        17        16        35     9      180.000000       14.518926         2
        18        17        16        35     9        0.000000       -0.662681         3
        18        17        16        35     9      180.000000        0.103259         4
        18        19        20        39     9        0.000000        0.098232         1
        18        19        20        39     9      180.000000       14.518926         2
        18        19        20        39     9        0.000000       -0.662681         3
        18        19        20        39     9      180.000000        0.103259         4
        19        18        17        36     9        0.000000        0.029742         1
        19        18        17        36     9      180.000000       14.140938         2
        19        18        17        36     9        0.000000       -0.787921         3
        19        18        17        36     9      180.000000        0.139392         4
        20        14        15        21     9        0.000000        0.077723         1
        20        14        15        21     9      180.000000       -0.062176         2
        20        14        15        21     9        0.000000        0.085376         3
        20        14        15        21     9      180.000000        0.032799         4
        20        14        15        46     9        0.000000        0.074058         1
        20        14        15        46     9      180.000000        0.012946         2
        20        14        15        46     9        0.000000        0.050980         3
        20        14        15        46     9      180.000000        0.018322         4
        20        14        16        35     9        0.000000       -0.065375         1
        20        14        16        35     9      180.000000       14.383809         2
        20        14        16        35     9        0.000000       -0.544127         3
        20        14        16        35     9      180.000000        0.004060         4
        20        19        18        37     9        0.000000        0.018306         1
        20        19        18        37     9      180.000000       14.324078         2
        20        19        18        37     9        0.000000       -0.776018         3
        20        19        18        37     9      180.000000        0.121301         4
        21        15        13        34     9        0.000000       -0.092400         1
        21        15        13        34     9      180.000000        0.071655         2
        21        15        13        34     9        0.000000        0.673977         3
        21        15        13        34     9      180.000000        0.001379         4
        21        15        13        45     9        0.000000       -0.092401         1
        21        15        13        45     9      180.000000        0.071655         2
        21        15        13        45     9        0.000000        0.673976         3
        21        15        13        45     9      180.000000        0.001379         4
        21        22        23        24     9        0.000000        0.100567         1
        21        22        23        24     9      180.000000       18.461774         2
        21        22        23        24     9        0.000000       -1.434414         3
        21        22        23        24     9      180.000000       -0.416065         4
        21        22        23        41     9        0.000000        0.052087         1
        21        22        23        41     9      180.000000       14.496526         2
        21        22        23        41     9        0.000000       -0.651621         3
        21        22        23        41     9      180.000000        0.091153         4
        21        26        25        24     9        0.000000        0.100567         1
        21        26        25        24     9      180.000000       18.461776         2
        21        26        25        24     9        0.000000       -1.434414         3
        21        26        25        24     9      180.000000       -0.416065         4
        21        26        25        43     9        0.000000        0.052087         1
        21        26        25        43     9      180.000000       14.496526         2
        21        26        25        43     9        0.000000       -0.651621         3
        21        26        25        43     9      180.000000        0.091153         4
        22        21        15        46     9        0.000000        0.074058         1
        22        21        15        46     9      180.000000        0.012946         2
        22        21        15        46     9        0.000000        0.050980         3
        22        21        15        46     9      180.000000        0.018322         4
        22        21        26        25     9        0.000000       -0.132971         1
        22        21        26        25     9      180.000000       19.357324         2
        22        21        26        25     9        0.000000       -1.328931         3
        22        21        26        25     9      180.000000       -0.533039         4
        22        21        26        44     9        0.000000       -0.065375         1
        22        21        26        44     9      180.000000       14.383807         2
        22        21        26        44     9        0.000000       -0.544127         3
        22        21        26        44     9      180.000000        0.004060         4
        22        23        24        25     9        0.000000       -0.055833         1
        22        23        24        25     9      180.000000       18.644568         2
        22        23        24        25     9        0.000000       -1.603952         3
        22        23        24        25     9      180.000000       -0.402849         4
        22        23        24        42     9        0.000000        0.018306         1
        22        23        24        42     9      180.000000       14.324078         2
        22        23        24        42     9        0.000000       -0.776018         3
        22        23        24        42     9      180.000000        0.121301         4
        23        22        21        26     9        0.000000       -0.132971         1
        23        22        21        26     9      180.000000       19.357320         2
        23        22        21        26     9        0.000000       -1.328931         3
        23        22        21        26     9      180.000000       -0.533040         4
        23        24        25        26     9        0.000000       -0.055832         1
        23        24        25        26     9      180.000000       18.644570         2
        23        24        25        26     9        0.000000       -1.603952         3
        23        24        25        26     9      180.000000       -0.402849         4
        23        24        25        43     9        0.000000        0.029741         1
        23        24        25        43     9      180.000000       14.140935         2
        23        24        25        43     9        0.000000       -0.787921         3
        23        24        25        43     9      180.000000        0.139391         4
        24        23        22        40     9        0.000000        0.098232         1
        24        23        22        40     9      180.000000       14.518926         2
        24        23        22        40     9        0.000000       -0.662681         3
        24        23        22        40     9      180.000000        0.103259         4
        24        25        26        44     9        0.000000        0.098232         1
        24        25        26        44     9      180.000000       14.518926         2
        24        25        26        44     9        0.000000       -0.662680         3
        24        25        26        44     9      180.000000        0.103259         4
        25        24        23        41     9        0.000000        0.029742         1
        25        24        23        41     9      180.000000       14.140937         2
        25        24        23        41     9        0.000000       -0.787921         3
        25        24        23        41     9      180.000000        0.139391         4
        26        21        15        46     9        0.000000        0.074059         1
        26        21        15        46     9      180.000000        0.012946         2
        26        21        15        46     9        0.000000        0.050980         3
        26        21        15        46     9      180.000000        0.018322         4
        26        21        22        40     9        0.000000       -0.065375         1
        26        21        22        40     9      180.000000       14.383807         2
        26        21        22        40     9        0.000000       -0.544126         3
        26        21        22        40     9      180.000000        0.004060         4
        26        25        24        42     9        0.000000        0.018306         1
        26        25        24        42     9      180.000000       14.324078         2
        26        25        24        42     9        0.000000       -0.776018         3
        26        25        24        42     9      180.000000        0.121300         4
        27         1         2        28     9        0.000000       -0.152112         1
        27         1         2        28     9      180.000000       12.794865         2
        27         1         2        28     9        0.000000       -0.679144         3
        27         1         2        28     9      180.000000        0.340860         4
        28         2         3        29     9        0.000000       -0.120476         1
        28         2         3        29     9      180.000000       10.534850         2
        28         2         3        29     9        0.000000       -0.434294         3
        28         2         3        29     9      180.000000        0.134600         4
        29         3         4        30     9        0.000000       -0.109860         1
        29         3         4        30     9      180.000000       12.527705         2
        29         3         4        30     9        0.000000       -0.609728         3
        29         3         4        30     9      180.000000        0.372183         4
        31        11        12        32     9        0.000000       -0.009336         1
        31        11        12        32     9      180.000000        0.187007         2
        31        11        12        32     9        0.000000        0.035516         3
        31        11        12        32     9      180.000000       -0.069726         4
        31        11        12        33     9        0.000000       -0.009336         1
        31        11        12        33     9      180.000000        0.187007         2
        31        11        12        33     9        0.000000        0.035516         3
        31        11        12        33     9      180.000000       -0.069726         4
        32        12        13        34     9        0.000000       -0.002928         1
        32        12        13        34     9      180.000000        0.052405         2
        32        12        13        34     9        0.000000        0.665950         3
        32        12        13        34     9      180.000000       -0.068789         4
        32        12        13        45     9        0.000000       -0.002928         1
        32        12        13        45     9      180.000000        0.052406         2
        32        12        13        45     9        0.000000        0.665949         3
        32        12        13        45     9      180.000000       -0.068789         4
        33        12        13        34     9        0.000000       -0.002928         1
        33        12        13        34     9      180.000000        0.052405         2
        33        12        13        34     9        0.000000        0.665950         3
        33        12        13        34     9      180.000000       -0.068789         4
        33        12        13        45     9        0.000000       -0.002928         1
        33        12        13        45     9      180.000000        0.052406         2
        33        12        13        45     9        0.000000        0.665949         3
        33        12        13        45     9      180.000000       -0.068789         4
        34        13        15        46     9        0.000000        0.426159         1
        34        13        15        46     9      180.000000       -0.049967         2
        34        13        15        46     9        0.000000        0.565689         3
        34        13        15        46     9      180.000000       -0.077687         4
        35        16        17        36     9        0.000000       -0.093840         1
        35        16        17        36     9      180.000000       11.931994         2
        35        16        17        36     9        0.000000       -0.649558         3
        35        16        17        36     9      180.000000        0.254077         4
        36        17        18        37     9        0.000000       -0.083747         1
        36        17        18        37     9      180.000000       11.659430         2
        36        17        18        37     9        0.000000       -0.611749         3
        36        17        18        37     9      180.000000        0.244547         4
        37        18        19        38     9        0.000000       -0.083746         1
        37        18        19        38     9      180.000000       11.659430         2
        37        18        19        38     9        0.000000       -0.611749         3
        37        18        19        38     9      180.000000        0.244547         4
        38        19        20        39     9        0.000000       -0.093840         1
        38        19        20        39     9      180.000000       11.931995         2
        38        19        20        39     9        0.000000       -0.649558         3
        38        19        20        39     9      180.000000        0.254077         4
        40        22        23        41     9        0.000000       -0.093840         1
        40        22        23        41     9      180.000000       11.931995         2
        40        22        23        41     9        0.000000       -0.649558         3
        40        22        23        41     9      180.000000        0.254077         4
        41        23        24        42     9        0.000000       -0.083746         1
        41        23        24        42     9      180.000000       11.659429         2
        41        23        24        42     9        0.000000       -0.611749         3
        41        23        24        42     9      180.000000        0.244547         4
        42        24        25        43     9        0.000000       -0.083747         1
        42        24        25        43     9      180.000000       11.659429         2
        42        24        25        43     9        0.000000       -0.611749         3
        42        24        25        43     9      180.000000        0.244547         4
        43        25        26        44     9        0.000000       -0.093840         1
        43        25        26        44     9      180.000000       11.931995         2
        43        25        26        44     9        0.000000       -0.649558         3
        43        25        26        44     9      180.000000        0.254077         4
        45        13        15        46     9        0.000000        0.426160         1
        45        13        15        46     9      180.000000       -0.049967         2
        45        13        15        46     9        0.000000        0.565689         3
        45        13        15        46     9      180.000000       -0.077687         4

[ dihedrals ] ; impropers
;       ai        aj        ak        al funct           phase               k        pn
         4         3         5        30     4      180.000000        0.632814         2
         4         5        30         3     4      180.000000        0.632814         2
         4        30         3         5     4      180.000000        0.632814         2
         5         4         6        10     4      180.000000        0.680084         2
         5         6        10         4     4      180.000000        0.680084         2
         5        10         4         6     4      180.000000        0.680084         2
        16        14        17        35     4      180.000000        3.336013         2
        16        17        35        14     4      180.000000        3.336013         2
        16        35        14        17     4      180.000000        3.336013         2
        17        16        18        36     4      180.000000        2.510755         2
        17        18        36        16     4      180.000000        2.510755         2
        17        36        16        18     4      180.000000        2.510755         2
        18        17        19        37     4      180.000000        2.182729         2
        18        19        37        17     4      180.000000        2.182729         2
        18        37        17        19     4      180.000000        2.182729         2
        19        18        20        38     4      180.000000        2.510755         2
        19        20        38        18     4      180.000000        2.510755         2
        19        38        18        20     4      180.000000        2.510755         2
        20        14        19        39     4      180.000000        3.336013         2
        20        19        39        14     4      180.000000        3.336013         2
        20        39        14        19     4      180.000000        3.336013         2
        22        21        23        40     4      180.000000        3.336013         2
        22        23        40        21     4      180.000000        3.336013         2
        22        40        21        23     4      180.000000        3.336013         2
        23        22        24        41     4      180.000000        2.510755         2
        23        24        41        22     4      180.000000        2.510755         2
        23        41        22        24     4      180.000000        2.510755         2
        24        23        25        42     4      180.000000        2.182730         2
        24        25        42        23     4      180.000000        2.182730         2
        24        42        23        25     4      180.000000        2.182730         2
        25        24        26        43     4      180.000000        2.510755         2
        25        26        43        24     4      180.000000        2.510755         2
        25        43        24        26     4      180.000000        2.510755         2
        26        21        25        44     4      180.000000        3.336013         2
        26        25        44        21     4      180.000000        3.336013         2
        26        44        21        25     4      180.000000        3.336013         2

[ pairs ]
;       ai        aj funct
         1         4     1
         1         6     1
         1         8     1
         1        11     1
         1        29     1
         2         5     1
         2         9     1
         2        30     1
         3         6     1
         3        10     1
         3        27     1
         4         7     1
         4         9     1
         4        28     1
         5         8     1
         5        11     1
         5        27     1
         5        29     1
         6         9     1
         6        30     1
         6        47     1
         7        10     1
         7        11     1
         8        12     1
         8        31     1
         9        13     1
         9        27     1
         9        32     1
         9        33     1
        10        12     1
        10        28     1
        10        30     1
        10        31     1
        10        47     1
        11        15     1
        11        34     1
        11        45     1
        11        47     1
        12        14     1
        12        21     1
        12        46     1
        13        16     1
        13        20     1
        13        22     1
        13        26     1
        13        31     1
        14        18     1
        14        22     1
        14        26     1
        14        34     1
        14        36     1
        14        38     1
        14        45     1
        15        17     1
        15        19     1
        15        23     1
        15        25     1
        15        32     1
        15        33     1
        15        35     1
        15        39     1
        15        40     1
        15        44     1
        16        19     1
        16        21     1
        16        37     1
        16        39     1
        16        46     1
        17        20     1
        17        38     1
        18        35     1
        18        39     1
        19        36     1
        20        21     1
        20        35     1
        20        37     1
        20        46     1
        21        24     1
        21        34     1
        21        41     1
        21        43     1
        21        45     1
        22        25     1
        22        42     1
        22        44     1
        22        46     1
        23        26     1
        23        43     1
        24        40     1
        24        44     1
        25        41     1
        26        40     1
        26        42     1
        26        46     1
        27        28     1
        28        29     1
        29        30     1
        31        32     1
        31        33     1
        32        34     1
        32        45     1
        33        34     1
        33        45     1
        34        46     1
        35        36     1
        36        37     1
        37        38     1
        38        39     1
        40        41     1
        41        42     1
        42        43     1
        43        44     1
        45        46     1
