; ITP file created by ByteFF-ML, 2025-12-06 08:17:27.539546

[ atomtypes ]
;name           bonded.type        at.num        mass        charge   ptype           sigma         epsilon
 c0bf                                   6      0.0000       0.00000       A     3.31523e-01     4.13799e-01
 c1bf                                   6      0.0000       0.00000       A     3.31502e-01     4.12608e-01
 c2bf                                   6      0.0000       0.00000       A     3.31554e-01     4.13047e-01
 c3bf                                   6      0.0000       0.00000       A     3.31556e-01     4.13159e-01
 c4bf                                   6      0.0000       0.00000       A     3.31271e-01     4.12523e-01
 c5bf                                   6      0.0000       0.00000       A     3.31292e-01     4.13982e-01
 n6bf                                   7      0.0000       0.00000       A     3.38550e-01     3.93548e-01
 n7bf                                   7      0.0000       0.00000       A     3.38451e-01     3.90581e-01
 c8bf                                   6      0.0000       0.00000       A     3.31124e-01     4.14577e-01
 c9bf                                   6      0.0000       0.00000       A     3.31546e-01     4.12997e-01
 n10bf                                  7      0.0000       0.00000       A     3.27893e-01     6.45727e-01
 c11bf                                  6      0.0000       0.00000       A     3.39800e-01     4.53581e-01
 c12bf                                  6      0.0000       0.00000       A     3.39977e-01     4.49597e-01
 c13bf                                  6      0.0000       0.00000       A     3.31523e-01     4.12617e-01
 c14bf                                  6      0.0000       0.00000       A     3.39859e-01     4.50261e-01
 c15bf                                  6      0.0000       0.00000       A     3.31481e-01     4.13328e-01
 c16bf                                  6      0.0000       0.00000       A     3.31506e-01     4.13446e-01
 c17bf                                  6      0.0000       0.00000       A     3.31497e-01     4.12820e-01
 c18bf                                  6      0.0000       0.00000       A     3.31506e-01     4.13446e-01
 c19bf                                  6      0.0000       0.00000       A     3.31481e-01     4.13328e-01
 c20bf                                  6      0.0000       0.00000       A     3.31523e-01     4.12617e-01
 c21bf                                  6      0.0000       0.00000       A     3.31481e-01     4.13328e-01
 c22bf                                  6      0.0000       0.00000       A     3.31506e-01     4.13446e-01
 c23bf                                  6      0.0000       0.00000       A     3.31497e-01     4.12820e-01
 c24bf                                  6      0.0000       0.00000       A     3.31506e-01     4.13446e-01
 c25bf                                  6      0.0000       0.00000       A     3.31481e-01     4.13328e-01
 h26bf                                  1      0.0000       0.00000       A     2.62519e-01     6.77787e-02
 h27bf                                  1      0.0000       0.00000       A     2.62489e-01     6.75504e-02
 h28bf                                  1      0.0000       0.00000       A     2.62488e-01     6.75504e-02
 h29bf                                  1      0.0000       0.00000       A     2.62534e-01     6.74275e-02
 h30bf                                  1      0.0000       0.00000       A     1.10444e-01     4.09456e-02
 h31bf                                  1      0.0000       0.00000       A     2.42268e-01     8.71055e-02
 h32bf                                  1      0.0000       0.00000       A     2.42268e-01     8.71055e-02
 h33bf                                  1      0.0000       0.00000       A     2.60105e-01     8.67623e-02
 h34bf                                  1      0.0000       0.00000       A     2.62480e-01     6.76701e-02
 h35bf                                  1      0.0000       0.00000       A     2.62458e-01     6.72983e-02
 h36bf                                  1      0.0000       0.00000       A     2.62457e-01     6.73477e-02
 h37bf                                  1      0.0000       0.00000       A     2.62458e-01     6.72983e-02
 h38bf                                  1      0.0000       0.00000       A     2.62480e-01     6.76717e-02
 h39bf                                  1      0.0000       0.00000       A     2.62480e-01     6.76717e-02
 h40bf                                  1      0.0000       0.00000       A     2.62458e-01     6.72983e-02
 h41bf                                  1      0.0000       0.00000       A     2.62457e-01     6.73477e-02
 h42bf                                  1      0.0000       0.00000       A     2.62458e-01     6.72983e-02
 h43bf                                  1      0.0000       0.00000       A     2.62480e-01     6.76717e-02
 h44bf                                  1      0.0000       0.00000       A     2.60105e-01     8.67623e-02
 h45bf                                  1      0.0000       0.00000       A     2.59889e-01     8.79115e-02
 h46bf                                  1      0.0000       0.00000       A     2.53664e-01     6.67971e-02

[ moleculetype ]
;name             nrexcl
 8d                    3

[ atoms ]
;       nr            type      resi   res      atom      cgnr      charge          mass ; qtot
         1            c0bf         1   UNL        c0         1    -0.08389       12.0110 ; qtot   -0.084
         2            c1bf         1   UNL        c1         2    -0.10912       12.0110 ; qtot   -0.193
         3            c2bf         1   UNL        c2         3    -0.10104       12.0110 ; qtot   -0.294
         4            c3bf         1   UNL        c3         4    -0.09135       12.0110 ; qtot   -0.385
         5            c4bf         1   UNL        c4         5    -0.04289       12.0110 ; qtot   -0.428
         6            c5bf         1   UNL        c5         6     0.26499       12.0110 ; qtot   -0.163
         7            n6bf         1   UNL        n6         7    -0.27633       14.0070 ; qtot   -0.440
         8            n7bf         1   UNL        n7         8    -0.42283       14.0070 ; qtot   -0.862
         9            c8bf         1   UNL        c8         9     0.55987       12.0110 ; qtot   -0.303
        10            c9bf         1   UNL        c9        10    -0.09968       12.0110 ; qtot   -0.402
        11           n10bf         1   UNL       n10        11    -0.90118       14.0070 ; qtot   -1.303
        12           c11bf         1   UNL       c11        12     0.21051       12.0110 ; qtot   -1.093
        13           c12bf         1   UNL       c12        13    -0.09298       12.0110 ; qtot   -1.186
        14           c13bf         1   UNL       c13        14    -0.08511       12.0110 ; qtot   -1.271
        15           c14bf         1   UNL       c14        15     0.03364       12.0110 ; qtot   -1.237
        16           c15bf         1   UNL       c15        16    -0.10676       12.0110 ; qtot   -1.344
        17           c16bf         1   UNL       c16        17    -0.11255       12.0110 ; qtot   -1.457
        18           c17bf         1   UNL       c17        18    -0.10702       12.0110 ; qtot   -1.564
        19           c18bf         1   UNL       c18        19    -0.11255       12.0110 ; qtot   -1.676
        20           c19bf         1   UNL       c19        20    -0.10676       12.0110 ; qtot   -1.783
        21           c20bf         1   UNL       c20        21    -0.08511       12.0110 ; qtot   -1.868
        22           c21bf         1   UNL       c21        22    -0.10676       12.0110 ; qtot   -1.975
        23           c22bf         1   UNL       c22        23    -0.11255       12.0110 ; qtot   -2.087
        24           c23bf         1   UNL       c23        24    -0.10702       12.0110 ; qtot   -2.194
        25           c24bf         1   UNL       c24        25    -0.11255       12.0110 ; qtot   -2.307
        26           c25bf         1   UNL       c25        26    -0.10676       12.0110 ; qtot   -2.414
        27           h26bf         1   UNL       h26        27     0.11736        1.0080 ; qtot   -2.296
        28           h27bf         1   UNL       h27        28     0.11802        1.0080 ; qtot   -2.178
        29           h28bf         1   UNL       h28        29     0.11968        1.0080 ; qtot   -2.059
        30           h29bf         1   UNL       h29        30     0.12361        1.0080 ; qtot   -1.935
        31           h30bf         1   UNL       h30        31     0.47249        1.0080 ; qtot   -1.463
        32           h31bf         1   UNL       h31        32     0.05728        1.0080 ; qtot   -1.405
        33           h32bf         1   UNL       h32        33     0.05728        1.0080 ; qtot   -1.348
        34           h33bf         1   UNL       h33        34     0.05642        1.0080 ; qtot   -1.292
        35           h34bf         1   UNL       h34        35     0.11602        1.0080 ; qtot   -1.176
        36           h35bf         1   UNL       h35        36     0.11408        1.0080 ; qtot   -1.062
        37           h36bf         1   UNL       h36        37     0.11320        1.0080 ; qtot   -0.948
        38           h37bf         1   UNL       h37        38     0.11408        1.0080 ; qtot   -0.834
        39           h38bf         1   UNL       h38        39     0.11602        1.0080 ; qtot   -0.718
        40           h39bf         1   UNL       h39        40     0.11602        1.0080 ; qtot   -0.602
        41           h40bf         1   UNL       h40        41     0.11408        1.0080 ; qtot   -0.488
        42           h41bf         1   UNL       h41        42     0.11320        1.0080 ; qtot   -0.375
        43           h42bf         1   UNL       h42        43     0.11408        1.0080 ; qtot   -0.261
        44           h43bf         1   UNL       h43        44     0.11602        1.0080 ; qtot   -0.145
        45           h44bf         1   UNL       h44        45     0.05642        1.0080 ; qtot   -0.088
        46           h45bf         1   UNL       h45        46     0.05670        1.0080 ; qtot   -0.032
        47           h46bf         1   UNL       h46        47     0.03172        1.0080 ; qtot   -0.000

[ bonds ]
;       ai        aj funct               r               k
         1         2     1        0.138456   340638.940137
         1        10     1        0.141538   277118.266260
         1        27     1        0.108452   321662.799365
         2         3     1        0.141624   276202.556592
         2        28     1        0.108593   320870.638232
         3         4     1        0.138188   349786.690234
         3        29     1        0.108597   321119.446289
         4         5     1        0.141641   281383.678564
         4        30     1        0.108612   320016.038867
         5         6     1        0.142591   256761.359521
         5        10     1        0.141754   271056.650293
         6         7     1        0.131288   376039.502637
         6        47     1        0.108878   312783.980566
         7         8     1        0.135652   228322.034277
         8         9     1        0.132791   311010.172949
         9        10     1        0.144640   220177.739355
         9        11     1        0.137843   299257.178027
        11        12     1        0.146464   203845.519360
        11        31     1        0.101150   417924.243652
        12        13     1        0.153331   184080.026538
        12        32     1        0.109341   299493.881494
        12        33     1        0.109341   299493.881494
        13        15     1        0.154759   161874.296924
        13        34     1        0.109477   297153.277734
        13        45     1        0.109477   297153.277734
        14        15     1        0.152487   177829.231665
        14        16     1        0.140288   288053.435254
        14        20     1        0.140288   288053.435254
        15        21     1        0.152487   177829.231665
        15        46     1        0.109609   292897.007715
        16        17     1        0.139831   309672.130566
        16        35     1        0.108651   316913.229004
        17        18     1        0.139910   306540.770215
        17        36     1        0.108649   318926.293799
        18        19     1        0.139910   306540.770215
        18        37     1        0.108629   319751.295654
        19        20     1        0.139831   309672.130566
        19        38     1        0.108649   318926.293799
        20        39     1        0.108651   316913.229004
        21        22     1        0.140288   288053.435254
        21        26     1        0.140288   288053.435254
        22        23     1        0.139831   309672.130566
        22        40     1        0.108651   316913.229004
        23        24     1        0.139910   306540.770215
        23        41     1        0.108649   318926.293799
        24        25     1        0.139910   306540.770215
        24        42     1        0.108629   319751.295654
        25        26     1        0.139831   309672.105029
        25        43     1        0.108649   318926.293799
        26        44     1        0.108651   316913.254541

[ angles ]
;       ai        aj        ak funct           theta             cth
         1         2         3     1      120.566689      692.637910
         1         2        28     1      119.893387      443.015060
         1        10         5     1      118.953773      750.509661
         1        10         9     1      124.801735      520.333096
         2         1        10     1      120.408058      630.230961
         2         1        27     1      119.133278      441.936851
         2         3         4     1      120.099243      705.194124
         2         3        29     1      119.720825      441.551113
         3         2        28     1      119.595718      444.858297
         3         4         5     1      120.045898      622.093433
         3         4        30     1      120.773987      437.265188
         4         3        29     1      120.159569      439.510603
         4         5         6     1      123.026169      485.262377
         4         5        10     1      119.945457      733.596752
         5         4        30     1      119.315201      432.487802
         5         6         7     1      124.030701      718.205281
         5         6        47     1      120.045753      417.829693
         5        10         9     1      115.939880      890.394029
         6         5        10     1      116.659378      860.129362
         6         7         8     1      119.977280      619.520378
         7         6        47     1      115.591873      376.014336
         7         8         9     1      120.398193      792.960827
         8         9        10     1      122.830421      641.461351
         8         9        11     1      116.930214      647.991765
         9        11        12     1      121.156174      502.737772
         9        11        31     1      115.038414      452.372527
        10         1        27     1      120.557678      421.261433
        10         9        11     1      119.957642      473.139496
        11        12        13     1      112.084534      577.601787
        11        12        32     1      108.483299      480.737520
        11        12        33     1      108.483299      480.737520
        12        11        31     1      115.002769      450.206214
        12        13        15     1      113.882248      577.646477
        12        13        34     1      108.931068      505.587777
        12        13        45     1      108.931068      505.587777
        13        12        32     1      110.136620      492.746506
        13        12        33     1      110.136620      492.746506
        13        15        14     1      112.161743      576.300735
        13        15        21     1      112.161743      576.300735
        13        15        46     1      106.367836      495.187470
        14        15        21     1      111.951767      502.502224
        14        15        46     1      106.611694      487.625485
        14        16        17     1      120.963661      707.473566
        14        16        35     1      119.594765      388.507185
        14        20        19     1      120.963661      707.473566
        14        20        39     1      119.594765      388.507154
        15        13        34     1      109.060265      469.060677
        15        13        45     1      109.060265      469.060677
        15        14        16     1      120.819603      485.006655
        15        14        20     1      120.819603      485.006655
        15        21        22     1      120.819603      485.006655
        15        21        26     1      120.819603      485.006655
        16        14        20     1      118.240677      721.110766
        16        17        18     1      120.154312      709.440179
        16        17        36     1      119.775925      429.066244
        17        16        35     1      119.555504      431.916856
        17        18        19     1      119.475426      707.369056
        17        18        37     1      120.262108      430.653790
        18        17        36     1      120.092667      423.840107
        18        19        20     1      120.154312      709.440179
        18        19        38     1      120.092667      423.840107
        19        18        37     1      120.262108      430.653790
        19        20        39     1      119.555504      431.916856
        20        19        38     1      119.775925      429.066276
        21        15        46     1      106.611710      487.625485
        21        22        23     1      120.963661      707.473566
        21        22        40     1      119.594765      388.507154
        21        26        25     1      120.963661      707.473566
        21        26        44     1      119.594765      388.507185
        22        21        26     1      118.240677      721.110829
        22        23        24     1      120.154312      709.440179
        22        23        41     1      119.775925      429.066276
        23        22        40     1      119.555496      431.916856
        23        24        25     1      119.475426      707.369056
        23        24        42     1      120.262100      430.653790
        24        23        41     1      120.092667      423.840107
        24        25        26     1      120.154312      709.440179
        24        25        43     1      120.092667      423.840107
        25        24        42     1      120.262100      430.653790
        25        26        44     1      119.555496      431.916856
        26        25        43     1      119.775925      429.066276
        32        12        33     1      107.312660      350.712774
        34        13        45     1      106.935898      358.072090

[ dihedrals ] ; propers for gromacs 4.5 or higher, use funct 9
;       ai        aj        ak        al funct           phase               k        pn
         1         2         3         4     9        0.000000        0.117459         1
         1         2         3         4     9      180.000000       16.177288         2
         1         2         3         4     9        0.000000       -1.401091         3
         1         2         3         4     9      180.000000       -0.289658         4
         1         2         3        29     9        0.000000       -0.005764         1
         1         2         3        29     9      180.000000       12.947237         2
         1         2         3        29     9        0.000000       -0.640762         3
         1         2         3        29     9      180.000000        0.094372         4
         1        10         5         4     9        0.000000       -0.086319         1
         1        10         5         4     9      180.000000       11.981487         2
         1        10         5         4     9        0.000000       -1.274988         3
         1        10         5         4     9      180.000000       -0.174180         4
         1        10         5         6     9        0.000000        0.017858         1
         1        10         5         6     9      180.000000       11.900815         2
         1        10         5         6     9        0.000000       -1.255538         3
         1        10         5         6     9      180.000000       -0.213158         4
         1        10         9         8     9        0.000000       -1.268687         1
         1        10         9         8     9      180.000000        3.166344         2
         1        10         9         8     9        0.000000       -0.091069         3
         1        10         9         8     9      180.000000       -0.194907         4
         1        10         9        11     9        0.000000       -0.167058         1
         1        10         9        11     9      180.000000        7.072053         2
         1        10         9        11     9        0.000000        0.064503         3
         1        10         9        11     9      180.000000       -0.293913         4
         2         1        10         5     9        0.000000       -0.052609         1
         2         1        10         5     9      180.000000       17.753885         2
         2         1        10         5     9        0.000000       -1.229549         3
         2         1        10         5     9      180.000000       -0.327344         4
         2         1        10         9     9        0.000000       -0.014402         1
         2         1        10         9     9      180.000000       14.655174         2
         2         1        10         9     9        0.000000       -0.808355         3
         2         1        10         9     9      180.000000       -0.241861         4
         2         3         4         5     9        0.000000       -0.077859         1
         2         3         4         5     9      180.000000       20.918761         2
         2         3         4         5     9        0.000000       -1.418869         3
         2         3         4         5     9      180.000000       -0.461221         4
         2         3         4        30     9        0.000000        0.011902         1
         2         3         4        30     9      180.000000       16.335983         2
         2         3         4        30     9        0.000000       -0.489333         3
         2         3         4        30     9      180.000000        0.055942         4
         3         2         1        10     9        0.000000       -0.016579         1
         3         2         1        10     9      180.000000       20.265280         2
         3         2         1        10     9        0.000000       -2.002380         3
         3         2         1        10     9      180.000000       -0.405061         4
         3         2         1        27     9        0.000000       -0.012439         1
         3         2         1        27     9      180.000000       16.076362         2
         3         2         1        27     9        0.000000       -0.540142         3
         3         2         1        27     9      180.000000        0.124309         4
         3         4         5         6     9        0.000000       -0.112384         1
         3         4         5         6     9      180.000000       13.419721         2
         3         4         5         6     9        0.000000       -0.923191         3
         3         4         5         6     9      180.000000       -0.154886         4
         3         4         5        10     9        0.000000       -0.263055         1
         3         4         5        10     9      180.000000       16.577100         2
         3         4         5        10     9        0.000000       -1.368090         3
         3         4         5        10     9      180.000000       -0.384986         4
         4         3         2        28     9        0.000000       -0.023112         1
         4         3         2        28     9      180.000000       13.246243         2
         4         3         2        28     9        0.000000       -0.674909         3
         4         3         2        28     9      180.000000        0.065748         4
         4         5         6         7     9        0.000000       -0.404575         1
         4         5         6         7     9      180.000000        7.428846         2
         4         5         6         7     9        0.000000       -0.213304         3
         4         5         6         7     9      180.000000       -0.064306         4
         4         5         6        47     9        0.000000       -0.382272         1
         4         5         6        47     9      180.000000        8.768053         2
         4         5         6        47     9        0.000000       -0.102373         3
         4         5         6        47     9      180.000000        0.062507         4
         4         5        10         9     9        0.000000       -0.043519         1
         4         5        10         9     9      180.000000       12.418083         2
         4         5        10         9     9        0.000000       -1.168517         3
         4         5        10         9     9      180.000000       -0.426783         4
         5         4         3        29     9        0.000000        0.067102         1
         5         4         3        29     9      180.000000       16.071915         2
         5         4         3        29     9        0.000000       -0.492635         3
         5         4         3        29     9      180.000000        0.028369         4
         5         6         7         8     9        0.000000        0.073408         1
         5         6         7         8     9      180.000000       26.096037         2
         5         6         7         8     9        0.000000        0.157412         3
         5         6         7         8     9      180.000000       -0.653756         4
         5        10         1        27     9        0.000000       -0.016784         1
         5        10         1        27     9      180.000000       12.986428         2
         5        10         1        27     9        0.000000       -0.178193         3
         5        10         1        27     9      180.000000        0.002736         4
         5        10         9         8     9        0.000000       -0.157524         1
         5        10         9         8     9      180.000000        5.010977         2
         5        10         9         8     9        0.000000       -0.001359         3
         5        10         9         8     9      180.000000       -0.291494         4
         5        10         9        11     9        0.000000        0.004268         1
         5        10         9        11     9      180.000000        8.549692         2
         5        10         9        11     9        0.000000        0.256814         3
         5        10         9        11     9      180.000000       -0.423846         4
         6         5         4        30     9        0.000000       -0.094580         1
         6         5         4        30     9      180.000000       11.609440         2
         6         5         4        30     9        0.000000       -0.440523         3
         6         5         4        30     9      180.000000        0.000146         4
         6         5        10         9     9        0.000000       -0.137053         1
         6         5        10         9     9      180.000000       12.253302         2
         6         5        10         9     9        0.000000       -1.200123         3
         6         5        10         9     9      180.000000       -0.455492         4
         6         7         8         9     9        0.000000        1.616440         1
         6         7         8         9     9      180.000000       13.898316         2
         6         7         8         9     9        0.000000        0.645578         3
         6         7         8         9     9      180.000000       -0.106233         4
         7         6         5        10     9        0.000000       -0.308961         1
         7         6         5        10     9      180.000000       11.102086         2
         7         6         5        10     9        0.000000       -0.392834         3
         7         6         5        10     9      180.000000       -0.336353         4
         7         8         9        10     9        0.000000        1.488238         1
         7         8         9        10     9      180.000000       17.416720         2
         7         8         9        10     9        0.000000        1.096147         3
         7         8         9        10     9      180.000000       -0.816824         4
         7         8         9        11     9        0.000000        1.812209         1
         7         8         9        11     9      180.000000       23.192350         2
         7         8         9        11     9        0.000000        1.324717         3
         7         8         9        11     9      180.000000       -1.276593         4
         8         7         6        47     9        0.000000        0.846907         1
         8         7         6        47     9      180.000000       25.049614         2
         8         7         6        47     9        0.000000        0.742643         3
         8         7         6        47     9      180.000000       -0.826471         4
         8         9        11        12     9        0.000000       -1.322175         1
         8         9        11        12     9      180.000000        6.379365         2
         8         9        11        12     9        0.000000        0.472033         3
         8         9        11        12     9      180.000000       -0.327975         4
         8         9        11        31     9        0.000000        4.689547         1
         8         9        11        31     9      180.000000        7.140967         2
         8         9        11        31     9        0.000000       -0.085935         3
         8         9        11        31     9      180.000000       -0.232074         4
         9        10         1        27     9        0.000000        0.026221         1
         9        10         1        27     9      180.000000       11.670611         2
         9        10         1        27     9        0.000000       -0.403136         3
         9        10         1        27     9      180.000000        0.068499         4
         9        11        12        13     9        0.000000       -1.476862         1
         9        11        12        13     9      180.000000       -0.450669         2
         9        11        12        13     9        0.000000        0.466414         3
         9        11        12        13     9      180.000000       -0.088061         4
         9        11        12        32     9        0.000000        0.419760         1
         9        11        12        32     9      180.000000        0.215924         2
         9        11        12        32     9        0.000000        0.461782         3
         9        11        12        32     9      180.000000        0.064489         4
         9        11        12        33     9        0.000000        0.419760         1
         9        11        12        33     9      180.000000        0.215924         2
         9        11        12        33     9        0.000000        0.461782         3
         9        11        12        33     9      180.000000        0.064489         4
        10         1         2        28     9        0.000000        0.041416         1
        10         1         2        28     9      180.000000       15.699754         2
        10         1         2        28     9        0.000000       -0.663698         3
        10         1         2        28     9      180.000000        0.010592         4
        10         5         4        30     9        0.000000       -0.066466         1
        10         5         4        30     9      180.000000       12.434152         2
        10         5         4        30     9        0.000000       -0.323248         3
        10         5         4        30     9      180.000000       -0.004888         4
        10         5         6        47     9        0.000000        0.178477         1
        10         5         6        47     9      180.000000       11.719177         2
        10         5         6        47     9        0.000000       -0.090522         3
        10         5         6        47     9      180.000000       -0.134855         4
        10         9        11        12     9        0.000000        4.400951         1
        10         9        11        12     9      180.000000        5.745052         2
        10         9        11        12     9        0.000000        0.814056         3
        10         9        11        12     9      180.000000        0.001520         4
        10         9        11        31     9        0.000000        0.192463         1
        10         9        11        31     9      180.000000        6.461267         2
        10         9        11        31     9        0.000000       -0.066527         3
        10         9        11        31     9      180.000000       -0.111908         4
        11        12        13        15     9        0.000000       -1.334650         1
        11        12        13        15     9      180.000000       -0.408356         2
        11        12        13        15     9        0.000000        0.430237         3
        11        12        13        15     9      180.000000       -0.006903         4
        11        12        13        34     9        0.000000        0.216074         1
        11        12        13        34     9      180.000000        0.130287         2
        11        12        13        34     9        0.000000        0.535510         3
        11        12        13        34     9      180.000000        0.020938         4
        11        12        13        45     9        0.000000        0.216074         1
        11        12        13        45     9      180.000000        0.130286         2
        11        12        13        45     9        0.000000        0.535510         3
        11        12        13        45     9      180.000000        0.020938         4
        12        13        15        14     9        0.000000        0.998593         1
        12        13        15        14     9      180.000000       -0.444891         2
        12        13        15        14     9        0.000000        0.708417         3
        12        13        15        14     9      180.000000        0.065799         4
        12        13        15        21     9        0.000000        0.998593         1
        12        13        15        21     9      180.000000       -0.444891         2
        12        13        15        21     9        0.000000        0.708417         3
        12        13        15        21     9      180.000000        0.065799         4
        12        13        15        46     9        0.000000       -0.770721         1
        12        13        15        46     9      180.000000        0.148885         2
        12        13        15        46     9        0.000000        0.590421         3
        12        13        15        46     9      180.000000        0.053067         4
        13        12        11        31     9        0.000000        1.112469         1
        13        12        11        31     9      180.000000       -1.078393         2
        13        12        11        31     9        0.000000        0.095640         3
        13        12        11        31     9      180.000000        0.038433         4
        13        15        14        16     9        0.000000       -0.164636         1
        13        15        14        16     9      180.000000        0.554299         2
        13        15        14        16     9        0.000000        0.131997         3
        13        15        14        16     9      180.000000        0.154996         4
        13        15        14        20     9        0.000000       -0.164636         1
        13        15        14        20     9      180.000000        0.554299         2
        13        15        14        20     9        0.000000        0.131997         3
        13        15        14        20     9      180.000000        0.154996         4
        13        15        21        22     9        0.000000       -0.164636         1
        13        15        21        22     9      180.000000        0.554299         2
        13        15        21        22     9        0.000000        0.131997         3
        13        15        21        22     9      180.000000        0.154996         4
        13        15        21        26     9        0.000000       -0.164637         1
        13        15        21        26     9      180.000000        0.554299         2
        13        15        21        26     9        0.000000        0.131997         3
        13        15        21        26     9      180.000000        0.154995         4
        14        15        13        34     9        0.000000       -0.085864         1
        14        15        13        34     9      180.000000        0.059867         2
        14        15        13        34     9        0.000000        0.671941         3
        14        15        13        34     9      180.000000        0.000302         4
        14        15        13        45     9        0.000000       -0.085864         1
        14        15        13        45     9      180.000000        0.059866         2
        14        15        13        45     9        0.000000        0.671941         3
        14        15        13        45     9      180.000000        0.000303         4
        14        15        21        22     9        0.000000        0.077723         1
        14        15        21        22     9      180.000000       -0.062176         2
        14        15        21        22     9        0.000000        0.085376         3
        14        15        21        22     9      180.000000        0.032799         4
        14        15        21        26     9        0.000000        0.077723         1
        14        15        21        26     9      180.000000       -0.062176         2
        14        15        21        26     9        0.000000        0.085376         3
        14        15        21        26     9      180.000000        0.032799         4
        14        16        17        18     9        0.000000        0.100567         1
        14        16        17        18     9      180.000000       18.461774         2
        14        16        17        18     9        0.000000       -1.434414         3
        14        16        17        18     9      180.000000       -0.416065         4
        14        16        17        36     9        0.000000        0.052087         1
        14        16        17        36     9      180.000000       14.496526         2
        14        16        17        36     9        0.000000       -0.651621         3
        14        16        17        36     9      180.000000        0.091153         4
        14        20        19        18     9        0.000000        0.100567         1
        14        20        19        18     9      180.000000       18.461774         2
        14        20        19        18     9        0.000000       -1.434414         3
        14        20        19        18     9      180.000000       -0.416065         4
        14        20        19        38     9        0.000000        0.052087         1
        14        20        19        38     9      180.000000       14.496526         2
        14        20        19        38     9        0.000000       -0.651621         3
        14        20        19        38     9      180.000000        0.091153         4
        15        13        12        32     9        0.000000       -0.045119         1
        15        13        12        32     9      180.000000        0.074343         2
        15        13        12        32     9        0.000000        0.517224         3
        15        13        12        32     9      180.000000        0.046974         4
        15        13        12        33     9        0.000000       -0.045119         1
        15        13        12        33     9      180.000000        0.074343         2
        15        13        12        33     9        0.000000        0.517224         3
        15        13        12        33     9      180.000000        0.046974         4
        15        14        16        17     9        0.000000       -0.025329         1
        15        14        16        17     9      180.000000       15.206117         2
        15        14        16        17     9        0.000000       -0.139314         3
        15        14        16        17     9      180.000000       -0.241050         4
        15        14        16        35     9        0.000000       -0.115993         1
        15        14        16        35     9      180.000000       12.691917         2
        15        14        16        35     9        0.000000       -0.371633         3
        15        14        16        35     9      180.000000        0.137850         4
        15        14        20        19     9        0.000000       -0.025329         1
        15        14        20        19     9      180.000000       15.206117         2
        15        14        20        19     9        0.000000       -0.139314         3
        15        14        20        19     9      180.000000       -0.241050         4
        15        14        20        39     9        0.000000       -0.115993         1
        15        14        20        39     9      180.000000       12.691916         2
        15        14        20        39     9        0.000000       -0.371632         3
        15        14        20        39     9      180.000000        0.137850         4
        15        21        22        23     9        0.000000       -0.025329         1
        15        21        22        23     9      180.000000       15.206117         2
        15        21        22        23     9        0.000000       -0.139314         3
        15        21        22        23     9      180.000000       -0.241050         4
        15        21        22        40     9        0.000000       -0.115993         1
        15        21        22        40     9      180.000000       12.691916         2
        15        21        22        40     9        0.000000       -0.371632         3
        15        21        22        40     9      180.000000        0.137850         4
        15        21        26        25     9        0.000000       -0.025328         1
        15        21        26        25     9      180.000000       15.206118         2
        15        21        26        25     9        0.000000       -0.139314         3
        15        21        26        25     9      180.000000       -0.241050         4
        15        21        26        44     9        0.000000       -0.115993         1
        15        21        26        44     9      180.000000       12.691917         2
        15        21        26        44     9        0.000000       -0.371633         3
        15        21        26        44     9      180.000000        0.137850         4
        16        14        15        21     9        0.000000        0.077723         1
        16        14        15        21     9      180.000000       -0.062176         2
        16        14        15        21     9        0.000000        0.085376         3
        16        14        15        21     9      180.000000        0.032799         4
        16        14        15        46     9        0.000000        0.074058         1
        16        14        15        46     9      180.000000        0.012946         2
        16        14        15        46     9        0.000000        0.050980         3
        16        14        15        46     9      180.000000        0.018322         4
        16        14        20        19     9        0.000000       -0.132971         1
        16        14        20        19     9      180.000000       19.357324         2
        16        14        20        19     9        0.000000       -1.328931         3
        16        14        20        19     9      180.000000       -0.533039         4
        16        14        20        39     9        0.000000       -0.065375         1
        16        14        20        39     9      180.000000       14.383812         2
        16        14        20        39     9        0.000000       -0.544127         3
        16        14        20        39     9      180.000000        0.004061         4
        16        17        18        19     9        0.000000       -0.055832         1
        16        17        18        19     9      180.000000       18.644568         2
        16        17        18        19     9        0.000000       -1.603952         3
        16        17        18        19     9      180.000000       -0.402848         4
        16        17        18        37     9        0.000000        0.018306         1
        16        17        18        37     9      180.000000       14.324078         2
        16        17        18        37     9        0.000000       -0.776018         3
        16        17        18        37     9      180.000000        0.121301         4
        17        16        14        20     9        0.000000       -0.132971         1
        17        16        14        20     9      180.000000       19.357324         2
        17        16        14        20     9        0.000000       -1.328931         3
        17        16        14        20     9      180.000000       -0.533039         4
        17        18        19        20     9        0.000000       -0.055832         1
        17        18        19        20     9      180.000000       18.644568         2
        17        18        19        20     9        0.000000       -1.603952         3
        17        18        19        20     9      180.000000       -0.402848         4
        17        18        19        38     9        0.000000        0.029742         1
        17        18        19        38     9      180.000000       14.140938         2
        17        18        19        38     9        0.000000       -0.787921         3
        17        18        19        38     9      180.000000        0.139391         4
        18        17        16        35     9        0.000000        0.098232         1
        18        17        16        35     9      180.000000       14.518926         2
        18        17        16        35     9        0.000000       -0.662681         3
        18        17        16        35     9      180.000000        0.103259         4
        18        19        20        39     9        0.000000        0.098232         1
        18        19        20        39     9      180.000000       14.518926         2
        18        19        20        39     9        0.000000       -0.662681         3
        18        19        20        39     9      180.000000        0.103259         4
        19        18        17        36     9        0.000000        0.029742         1
        19        18        17        36     9      180.000000       14.140938         2
        19        18        17        36     9        0.000000       -0.787921         3
        19        18        17        36     9      180.000000        0.139392         4
        20        14        15        21     9        0.000000        0.077723         1
        20        14        15        21     9      180.000000       -0.062176         2
        20        14        15        21     9        0.000000        0.085376         3
        20        14        15        21     9      180.000000        0.032799         4
        20        14        15        46     9        0.000000        0.074058         1
        20        14        15        46     9      180.000000        0.012946         2
        20        14        15        46     9        0.000000        0.050980         3
        20        14        15        46     9      180.000000        0.018322         4
        20        14        16        35     9        0.000000       -0.065375         1
        20        14        16        35     9      180.000000       14.383809         2
        20        14        16        35     9        0.000000       -0.544127         3
        20        14        16        35     9      180.000000        0.004060         4
        20        19        18        37     9        0.000000        0.018306         1
        20        19        18        37     9      180.000000       14.324078         2
        20        19        18        37     9        0.000000       -0.776018         3
        20        19        18        37     9      180.000000        0.121301         4
        21        15        13        34     9        0.000000       -0.085864         1
        21        15        13        34     9      180.000000        0.059867         2
        21        15        13        34     9        0.000000        0.671941         3
        21        15        13        34     9      180.000000        0.000302         4
        21        15        13        45     9        0.000000       -0.085864         1
        21        15        13        45     9      180.000000        0.059866         2
        21        15        13        45     9        0.000000        0.671941         3
        21        15        13        45     9      180.000000        0.000303         4
        21        22        23        24     9        0.000000        0.100567         1
        21        22        23        24     9      180.000000       18.461774         2
        21        22        23        24     9        0.000000       -1.434414         3
        21        22        23        24     9      180.000000       -0.416065         4
        21        22        23        41     9        0.000000        0.052087         1
        21        22        23        41     9      180.000000       14.496526         2
        21        22        23        41     9        0.000000       -0.651621         3
        21        22        23        41     9      180.000000        0.091153         4
        21        26        25        24     9        0.000000        0.100567         1
        21        26        25        24     9      180.000000       18.461776         2
        21        26        25        24     9        0.000000       -1.434414         3
        21        26        25        24     9      180.000000       -0.416065         4
        21        26        25        43     9        0.000000        0.052087         1
        21        26        25        43     9      180.000000       14.496526         2
        21        26        25        43     9        0.000000       -0.651621         3
        21        26        25        43     9      180.000000        0.091153         4
        22        21        15        46     9        0.000000        0.074058         1
        22        21        15        46     9      180.000000        0.012946         2
        22        21        15        46     9        0.000000        0.050980         3
        22        21        15        46     9      180.000000        0.018322         4
        22        21        26        25     9        0.000000       -0.132971         1
        22        21        26        25     9      180.000000       19.357324         2
        22        21        26        25     9        0.000000       -1.328931         3
        22        21        26        25     9      180.000000       -0.533039         4
        22        21        26        44     9        0.000000       -0.065375         1
        22        21        26        44     9      180.000000       14.383807         2
        22        21        26        44     9        0.000000       -0.544127         3
        22        21        26        44     9      180.000000        0.004060         4
        22        23        24        25     9        0.000000       -0.055833         1
        22        23        24        25     9      180.000000       18.644568         2
        22        23        24        25     9        0.000000       -1.603952         3
        22        23        24        25     9      180.000000       -0.402849         4
        22        23        24        42     9        0.000000        0.018306         1
        22        23        24        42     9      180.000000       14.324078         2
        22        23        24        42     9        0.000000       -0.776018         3
        22        23        24        42     9      180.000000        0.121301         4
        23        22        21        26     9        0.000000       -0.132971         1
        23        22        21        26     9      180.000000       19.357320         2
        23        22        21        26     9        0.000000       -1.328931         3
        23        22        21        26     9      180.000000       -0.533040         4
        23        24        25        26     9        0.000000       -0.055832         1
        23        24        25        26     9      180.000000       18.644570         2
        23        24        25        26     9        0.000000       -1.603952         3
        23        24        25        26     9      180.000000       -0.402849         4
        23        24        25        43     9        0.000000        0.029741         1
        23        24        25        43     9      180.000000       14.140935         2
        23        24        25        43     9        0.000000       -0.787921         3
        23        24        25        43     9      180.000000        0.139391         4
        24        23        22        40     9        0.000000        0.098232         1
        24        23        22        40     9      180.000000       14.518926         2
        24        23        22        40     9        0.000000       -0.662681         3
        24        23        22        40     9      180.000000        0.103259         4
        24        25        26        44     9        0.000000        0.098232         1
        24        25        26        44     9      180.000000       14.518926         2
        24        25        26        44     9        0.000000       -0.662680         3
        24        25        26        44     9      180.000000        0.103259         4
        25        24        23        41     9        0.000000        0.029742         1
        25        24        23        41     9      180.000000       14.140937         2
        25        24        23        41     9        0.000000       -0.787921         3
        25        24        23        41     9      180.000000        0.139391         4
        26        21        15        46     9        0.000000        0.074059         1
        26        21        15        46     9      180.000000        0.012946         2
        26        21        15        46     9        0.000000        0.050980         3
        26        21        15        46     9      180.000000        0.018322         4
        26        21        22        40     9        0.000000       -0.065375         1
        26        21        22        40     9      180.000000       14.383807         2
        26        21        22        40     9        0.000000       -0.544126         3
        26        21        22        40     9      180.000000        0.004060         4
        26        25        24        42     9        0.000000        0.018306         1
        26        25        24        42     9      180.000000       14.324078         2
        26        25        24        42     9        0.000000       -0.776018         3
        26        25        24        42     9      180.000000        0.121300         4
        27         1         2        28     9        0.000000       -0.138623         1
        27         1         2        28     9      180.000000       12.597038         2
        27         1         2        28     9        0.000000       -0.665117         3
        27         1         2        28     9      180.000000        0.329431         4
        28         2         3        29     9        0.000000       -0.104546         1
        28         2         3        29     9      180.000000       10.729282         2
        28         2         3        29     9        0.000000       -0.419113         3
        28         2         3        29     9      180.000000        0.139126         4
        29         3         4        30     9        0.000000       -0.120093         1
        29         3         4        30     9      180.000000       12.736056         2
        29         3         4        30     9        0.000000       -0.566081         3
        29         3         4        30     9      180.000000        0.281546         4
        31        11        12        32     9        0.000000       -0.132480         1
        31        11        12        32     9      180.000000        0.131054         2
        31        11        12        32     9        0.000000        0.322576         3
        31        11        12        32     9      180.000000        0.032040         4
        31        11        12        33     9        0.000000       -0.132480         1
        31        11        12        33     9      180.000000        0.131054         2
        31        11        12        33     9        0.000000        0.322576         3
        31        11        12        33     9      180.000000        0.032040         4
        32        12        13        34     9        0.000000       -0.016316         1
        32        12        13        34     9      180.000000        0.079656         2
        32        12        13        34     9        0.000000        0.647643         3
        32        12        13        34     9      180.000000       -0.046387         4
        32        12        13        45     9        0.000000       -0.016316         1
        32        12        13        45     9      180.000000        0.079654         2
        32        12        13        45     9        0.000000        0.647644         3
        32        12        13        45     9      180.000000       -0.046387         4
        33        12        13        34     9        0.000000       -0.016316         1
        33        12        13        34     9      180.000000        0.079656         2
        33        12        13        34     9        0.000000        0.647643         3
        33        12        13        34     9      180.000000       -0.046387         4
        33        12        13        45     9        0.000000       -0.016316         1
        33        12        13        45     9      180.000000        0.079654         2
        33        12        13        45     9        0.000000        0.647644         3
        33        12        13        45     9      180.000000       -0.046387         4
        34        13        15        46     9        0.000000        0.415250         1
        34        13        15        46     9      180.000000       -0.050127         2
        34        13        15        46     9        0.000000        0.565921         3
        34        13        15        46     9      180.000000       -0.074827         4
        35        16        17        36     9        0.000000       -0.093840         1
        35        16        17        36     9      180.000000       11.931994         2
        35        16        17        36     9        0.000000       -0.649558         3
        35        16        17        36     9      180.000000        0.254077         4
        36        17        18        37     9        0.000000       -0.083747         1
        36        17        18        37     9      180.000000       11.659430         2
        36        17        18        37     9        0.000000       -0.611749         3
        36        17        18        37     9      180.000000        0.244547         4
        37        18        19        38     9        0.000000       -0.083746         1
        37        18        19        38     9      180.000000       11.659430         2
        37        18        19        38     9        0.000000       -0.611749         3
        37        18        19        38     9      180.000000        0.244547         4
        38        19        20        39     9        0.000000       -0.093840         1
        38        19        20        39     9      180.000000       11.931995         2
        38        19        20        39     9        0.000000       -0.649558         3
        38        19        20        39     9      180.000000        0.254077         4
        40        22        23        41     9        0.000000       -0.093840         1
        40        22        23        41     9      180.000000       11.931995         2
        40        22        23        41     9        0.000000       -0.649558         3
        40        22        23        41     9      180.000000        0.254077         4
        41        23        24        42     9        0.000000       -0.083746         1
        41        23        24        42     9      180.000000       11.659429         2
        41        23        24        42     9        0.000000       -0.611749         3
        41        23        24        42     9      180.000000        0.244547         4
        42        24        25        43     9        0.000000       -0.083747         1
        42        24        25        43     9      180.000000       11.659429         2
        42        24        25        43     9        0.000000       -0.611749         3
        42        24        25        43     9      180.000000        0.244547         4
        43        25        26        44     9        0.000000       -0.093840         1
        43        25        26        44     9      180.000000       11.931995         2
        43        25        26        44     9        0.000000       -0.649558         3
        43        25        26        44     9      180.000000        0.254077         4
        45        13        15        46     9        0.000000        0.415250         1
        45        13        15        46     9      180.000000       -0.050127         2
        45        13        15        46     9        0.000000        0.565921         3
        45        13        15        46     9      180.000000       -0.074827         4

[ dihedrals ] ; impropers
;       ai        aj        ak        al funct           phase               k        pn
         6         5         7        47     4      180.000000        8.540685         2
         6         7        47         5     4      180.000000        8.540685         2
         6        47         5         7     4      180.000000        8.540685         2
         9         8        10        11     4      180.000000       24.875387         2
         9        10        11         8     4      180.000000       24.875387         2
         9        11         8        10     4      180.000000       24.875387         2
        16        14        17        35     4      180.000000        3.336013         2
        16        17        35        14     4      180.000000        3.336013         2
        16        35        14        17     4      180.000000        3.336013         2
        17        16        18        36     4      180.000000        2.510755         2
        17        18        36        16     4      180.000000        2.510755         2
        17        36        16        18     4      180.000000        2.510755         2
        18        17        19        37     4      180.000000        2.182729         2
        18        19        37        17     4      180.000000        2.182729         2
        18        37        17        19     4      180.000000        2.182729         2
        19        18        20        38     4      180.000000        2.510755         2
        19        20        38        18     4      180.000000        2.510755         2
        19        38        18        20     4      180.000000        2.510755         2
        20        14        19        39     4      180.000000        3.336013         2
        20        19        39        14     4      180.000000        3.336013         2
        20        39        14        19     4      180.000000        3.336013         2
        22        21        23        40     4      180.000000        3.336013         2
        22        23        40        21     4      180.000000        3.336013         2
        22        40        21        23     4      180.000000        3.336013         2
        23        22        24        41     4      180.000000        2.510755         2
        23        24        41        22     4      180.000000        2.510755         2
        23        41        22        24     4      180.000000        2.510755         2
        24        23        25        42     4      180.000000        2.182730         2
        24        25        42        23     4      180.000000        2.182730         2
        24        42        23        25     4      180.000000        2.182730         2
        25        24        26        43     4      180.000000        2.510755         2
        25        26        43        24     4      180.000000        2.510755         2
        25        43        24        26     4      180.000000        2.510755         2
        26        21        25        44     4      180.000000        3.336013         2
        26        25        44        21     4      180.000000        3.336013         2
        26        44        21        25     4      180.000000        3.336013         2

[ pairs ]
;       ai        aj funct
         1         4     1
         1         6     1
         1         8     1
         1        11     1
         1        29     1
         2         5     1
         2         9     1
         2        30     1
         3         6     1
         3        10     1
         3        27     1
         4         7     1
         4         9     1
         4        28     1
         4        47     1
         5         8     1
         5        11     1
         5        27     1
         5        29     1
         6         9     1
         6        30     1
         7        10     1
         7        11     1
         8        12     1
         8        31     1
         8        47     1
         9        13     1
         9        27     1
         9        32     1
         9        33     1
        10        12     1
        10        28     1
        10        30     1
        10        31     1
        10        47     1
        11        15     1
        11        34     1
        11        45     1
        12        14     1
        12        21     1
        12        46     1
        13        16     1
        13        20     1
        13        22     1
        13        26     1
        13        31     1
        14        18     1
        14        22     1
        14        26     1
        14        34     1
        14        36     1
        14        38     1
        14        45     1
        15        17     1
        15        19     1
        15        23     1
        15        25     1
        15        32     1
        15        33     1
        15        35     1
        15        39     1
        15        40     1
        15        44     1
        16        19     1
        16        21     1
        16        37     1
        16        39     1
        16        46     1
        17        20     1
        17        38     1
        18        35     1
        18        39     1
        19        36     1
        20        21     1
        20        35     1
        20        37     1
        20        46     1
        21        24     1
        21        34     1
        21        41     1
        21        43     1
        21        45     1
        22        25     1
        22        42     1
        22        44     1
        22        46     1
        23        26     1
        23        43     1
        24        40     1
        24        44     1
        25        41     1
        26        40     1
        26        42     1
        26        46     1
        27        28     1
        28        29     1
        29        30     1
        31        32     1
        31        33     1
        32        34     1
        32        45     1
        33        34     1
        33        45     1
        34        46     1
        35        36     1
        36        37     1
        37        38     1
        38        39     1
        40        41     1
        41        42     1
        42        43     1
        43        44     1
        45        46     1
