; ITP file created by ByteFF-joint-25, 2026-02-17 09:28:50.045677

[ atomtypes ]
;name           bonded.type        at.num        mass        charge   ptype           sigma         epsilon
 c0bf                                   6      0.0000       0.00000       A     3.31509e-01     4.13539e-01    ;  uncertainty sigma = 0.000009, epsilon = 0.000465
 c1bf                                   6      0.0000       0.00000       A     3.31538e-01     4.13732e-01    ;  uncertainty sigma = 0.000012, epsilon = 0.001772
 c2bf                                   6      0.0000       0.00000       A     3.31494e-01     4.13424e-01    ;  uncertainty sigma = 0.000006, epsilon = 0.000718
 c3bf                                   6      0.0000       0.00000       A     3.31497e-01     4.12789e-01    ;  uncertainty sigma = 0.000010, epsilon = 0.000732
 c4bf                                   6      0.0000       0.00000       A     3.31516e-01     4.13470e-01    ;  uncertainty sigma = 0.000011, epsilon = 0.000986
 c5bf                                   6      0.0000       0.00000       A     3.31521e-01     4.13012e-01    ;  uncertainty sigma = 0.000010, epsilon = 0.001115
 n6bf                                   7      0.0000       0.00000       A     3.38415e-01     3.93854e-01    ;  uncertainty sigma = 0.000010, epsilon = 0.001066
 c7bf                                   6      0.0000       0.00000       A     3.31531e-01     4.13178e-01    ;  uncertainty sigma = 0.000013, epsilon = 0.000482
 c8bf                                   6      0.0000       0.00000       A     3.31530e-01     4.13238e-01    ;  uncertainty sigma = 0.000010, epsilon = 0.000599
 n9bf                                   7      0.0000       0.00000       A     3.38414e-01     3.93827e-01    ;  uncertainty sigma = 0.000003, epsilon = 0.000862
 n10bf                                  7      0.0000       0.00000       A     3.27956e-01     6.47518e-01    ;  uncertainty sigma = 0.000036, epsilon = 0.003822
 c11bf                                  6      0.0000       0.00000       A     3.31502e-01     4.13462e-01    ;  uncertainty sigma = 0.000018, epsilon = 0.002180
 c12bf                                  6      0.0000       0.00000       A     3.31532e-01     4.13419e-01    ;  uncertainty sigma = 0.000012, epsilon = 0.000931
 n13bf                                  7      0.0000       0.00000       A     3.38420e-01     3.93806e-01    ;  uncertainty sigma = 0.000013, epsilon = 0.000881
 c14bf                                  6      0.0000       0.00000       A     3.31513e-01     4.13350e-01    ;  uncertainty sigma = 0.000011, epsilon = 0.000728
 c15bf                                  6      0.0000       0.00000       A     3.31518e-01     4.13124e-01    ;  uncertainty sigma = 0.000015, epsilon = 0.000361
 c16bf                                  6      0.0000       0.00000       A     3.31501e-01     4.13078e-01    ;  uncertainty sigma = 0.000025, epsilon = 0.001598
 s17bf                                 16      0.0000       0.00000       A     4.05775e-01     2.56504e-01    ;  uncertainty sigma = 0.000009, epsilon = 0.002944
 o18bf                                  8      0.0000       0.00000       A     3.04808e-01     6.12058e-01    ;  uncertainty sigma = 0.000011, epsilon = 0.001075
 o19bf                                  8      0.0000       0.00000       A     3.04808e-01     6.12058e-01    ;  uncertainty sigma = 0.000011, epsilon = 0.001075
 c20bf                                  6      0.0000       0.00000       A     3.39790e-01     4.50653e-01    ;  uncertainty sigma = 0.000003, epsilon = 0.000848
 c21bf                                  6      0.0000       0.00000       A     3.31508e-01     4.13415e-01    ;  uncertainty sigma = 0.000015, epsilon = 0.000942
 c22bf                                  6      0.0000       0.00000       A     3.31511e-01     4.13153e-01    ;  uncertainty sigma = 0.000005, epsilon = 0.000605
 c23bf                                  6      0.0000       0.00000       A     3.31523e-01     4.13488e-01    ;  uncertainty sigma = 0.000003, epsilon = 0.000637
 c24bf                                  6      0.0000       0.00000       A     3.31514e-01     4.13261e-01    ;  uncertainty sigma = 0.000002, epsilon = 0.000678
 c25bf                                  6      0.0000       0.00000       A     3.31527e-01     4.13558e-01    ;  uncertainty sigma = 0.000005, epsilon = 0.000685
 c26bf                                  6      0.0000       0.00000       A     3.31515e-01     4.13237e-01    ;  uncertainty sigma = 0.000006, epsilon = 0.001055
 o27bf                                  8      0.0000       0.00000       A     3.15639e-01     3.03016e-01    ;  uncertainty sigma = 0.000023, epsilon = 0.000796
 c28bf                                  6      0.0000       0.00000       A     3.39790e-01     4.50986e-01    ;  uncertainty sigma = 0.000004, epsilon = 0.000763
 h29bf                                  1      0.0000       0.00000       A     2.62540e-01     6.71221e-02    ;  uncertainty sigma = 0.000022, epsilon = 0.000645
 h30bf                                  1      0.0000       0.00000       A     2.62566e-01     6.71158e-02    ;  uncertainty sigma = 0.000015, epsilon = 0.000400
 h31bf                                  1      0.0000       0.00000       A     2.53628e-01     6.69333e-02    ;  uncertainty sigma = 0.000020, epsilon = 0.000763
 h32bf                                  1      0.0000       0.00000       A     2.53628e-01     6.69333e-02    ;  uncertainty sigma = 0.000020, epsilon = 0.000763
 h33bf                                  1      0.0000       0.00000       A     1.10720e-01     4.14040e-02    ;  uncertainty sigma = 0.000106, epsilon = 0.001477
 h34bf                                  1      0.0000       0.00000       A     2.53624e-01     6.69778e-02    ;  uncertainty sigma = 0.000049, epsilon = 0.000568
 h35bf                                  1      0.0000       0.00000       A     2.53633e-01     6.70304e-02    ;  uncertainty sigma = 0.000014, epsilon = 0.000494
 h36bf                                  1      0.0000       0.00000       A     2.62533e-01     6.70950e-02    ;  uncertainty sigma = 0.000019, epsilon = 0.000754
 h37bf                                  1      0.0000       0.00000       A     2.42167e-01     8.68275e-02    ;  uncertainty sigma = 0.000012, epsilon = 0.000620
 h38bf                                  1      0.0000       0.00000       A     2.42167e-01     8.68275e-02    ;  uncertainty sigma = 0.000012, epsilon = 0.000620
 h39bf                                  1      0.0000       0.00000       A     2.42167e-01     8.68275e-02    ;  uncertainty sigma = 0.000012, epsilon = 0.000620
 h40bf                                  1      0.0000       0.00000       A     2.62563e-01     6.70436e-02    ;  uncertainty sigma = 0.000011, epsilon = 0.000538
 h41bf                                  1      0.0000       0.00000       A     2.62568e-01     6.69691e-02    ;  uncertainty sigma = 0.000011, epsilon = 0.000459
 h42bf                                  1      0.0000       0.00000       A     2.62564e-01     6.71214e-02    ;  uncertainty sigma = 0.000006, epsilon = 0.000469
 h43bf                                  1      0.0000       0.00000       A     2.62561e-01     6.71618e-02    ;  uncertainty sigma = 0.000012, epsilon = 0.000769
 h44bf                                  1      0.0000       0.00000       A     2.42205e-01     8.67538e-02    ;  uncertainty sigma = 0.000015, epsilon = 0.000624
 h45bf                                  1      0.0000       0.00000       A     2.42205e-01     8.67538e-02    ;  uncertainty sigma = 0.000015, epsilon = 0.000624
 h46bf                                  1      0.0000       0.00000       A     2.42205e-01     8.67538e-02    ;  uncertainty sigma = 0.000015, epsilon = 0.000624

[ moleculetype ]
;name             nrexcl
 MOL                   3

[ atoms ]
;       nr            type      resi   res      atom      cgnr      charge          mass ; qtot
         1            c0bf         1   UNL        c0         1    -0.22162       12.0110 ; qtot   -0.222
         2            c1bf         1   UNL        c1         2     0.17383       12.0110 ; qtot   -0.048
         3            c2bf         1   UNL        c2         3    -0.15858       12.0110 ; qtot   -0.206
         4            c3bf         1   UNL        c3         4    -0.02899       12.0110 ; qtot   -0.235
         5            c4bf         1   UNL        c4         5     0.32340       12.0110 ; qtot    0.088
         6            c5bf         1   UNL        c5         6     0.27665       12.0110 ; qtot    0.365
         7            n6bf         1   UNL        n6         7    -0.61814       14.0070 ; qtot   -0.253
         8            c7bf         1   UNL        c7         8     0.29560       12.0110 ; qtot    0.042
         9            c8bf         1   UNL        c8         9     0.29621       12.0110 ; qtot    0.338
        10            n9bf         1   UNL        n9        10    -0.62862       14.0070 ; qtot   -0.290
        11           n10bf         1   UNL       n10        11    -0.64735       14.0070 ; qtot   -0.938
        12           c11bf         1   UNL       c11        12     0.15628       12.0110 ; qtot   -0.781
        13           c12bf         1   UNL       c12        13     0.33325       12.0110 ; qtot   -0.448
        14           n13bf         1   UNL       n13        14    -0.60182       14.0070 ; qtot   -1.050
        15           c14bf         1   UNL       c14        15     0.35581       12.0110 ; qtot   -0.694
        16           c15bf         1   UNL       c15        16    -0.13704       12.0110 ; qtot   -0.831
        17           c16bf         1   UNL       c16        17    -0.26398       12.0110 ; qtot   -1.095
        18           s17bf         1   UNL       s17        18     1.01656       32.0670 ; qtot   -0.079
        19           o18bf         1   UNL       o18        19    -0.58472       15.9990 ; qtot   -0.663
        20           o19bf         1   UNL       o19        20    -0.58472       15.9990 ; qtot   -1.248
        21           c20bf         1   UNL       c20        21    -0.18352       12.0110 ; qtot   -1.432
        22           c21bf         1   UNL       c21        22    -0.00906       12.0110 ; qtot   -1.441
        23           c22bf         1   UNL       c22        23    -0.12845       12.0110 ; qtot   -1.569
        24           c23bf         1   UNL       c23        24    -0.09760       12.0110 ; qtot   -1.667
        25           c24bf         1   UNL       c24        25    -0.18566       12.0110 ; qtot   -1.852
        26           c25bf         1   UNL       c25        26     0.12599       12.0110 ; qtot   -1.726
        27           c26bf         1   UNL       c26        27    -0.16436       12.0110 ; qtot   -1.891
        28           o27bf         1   UNL       o27        28    -0.32684       15.9990 ; qtot   -2.217
        29           c28bf         1   UNL       c28        29     0.12109       12.0110 ; qtot   -2.096
        30           h29bf         1   UNL       h29        30     0.15776        1.0080 ; qtot   -1.939
        31           h30bf         1   UNL       h30        31     0.14723        1.0080 ; qtot   -1.791
        32           h31bf         1   UNL       h31        32     0.03380        1.0080 ; qtot   -1.758
        33           h32bf         1   UNL       h32        33     0.03331        1.0080 ; qtot   -1.724
        34           h33bf         1   UNL       h33        34     0.47844        1.0080 ; qtot   -1.246
        35           h34bf         1   UNL       h34        35     0.03967        1.0080 ; qtot   -1.206
        36           h35bf         1   UNL       h35        36     0.03424        1.0080 ; qtot   -1.172
        37           h36bf         1   UNL       h36        37     0.16807        1.0080 ; qtot   -1.004
        38           h37bf         1   UNL       h37        38     0.10378        1.0080 ; qtot   -0.900
        39           h38bf         1   UNL       h38        39     0.10378        1.0080 ; qtot   -0.796
        40           h39bf         1   UNL       h39        40     0.10378        1.0080 ; qtot   -0.693
        41           h40bf         1   UNL       h40        41     0.14105        1.0080 ; qtot   -0.551
        42           h41bf         1   UNL       h41        42     0.13619        1.0080 ; qtot   -0.415
        43           h42bf         1   UNL       h42        43     0.14126        1.0080 ; qtot   -0.274
        44           h43bf         1   UNL       h43        44     0.14614        1.0080 ; qtot   -0.128
        45           h44bf         1   UNL       h44        45     0.04263        1.0080 ; qtot   -0.085
        46           h45bf         1   UNL       h45        46     0.04263        1.0080 ; qtot   -0.043
        47           h46bf         1   UNL       h46        47     0.04264        1.0080 ; qtot    0.000

[ bonds ]
;       ai        aj funct               r               k
         1         2     1        0.138770   381943.426953    ;  uncertainty r = 0.000111, k = 9.337646
         1         5     1        0.141431   396079.468311    ;  uncertainty r = 0.000094, k = 15.205670
         1        30     1        0.108811   340366.765625    ;  uncertainty r = 0.000031, k = 1.855831
         2         3     1        0.142028   351861.401611    ;  uncertainty r = 0.000227, k = 12.579464
         2        11     1        0.141414   345942.921143    ;  uncertainty r = 0.000097, k = 12.910217
         3         4     1        0.137965   347527.626465    ;  uncertainty r = 0.000128, k = 16.752069
         3        31     1        0.108882   338495.201953    ;  uncertainty r = 0.000015, k = 3.632238
         4         6     1        0.143046   310891.246631    ;  uncertainty r = 0.000118, k = 16.841055
         4        22     1        0.148144   281659.939014    ;  uncertainty r = 0.000114, k = 16.489689
         5         6     1        0.142978   298967.076465    ;  uncertainty r = 0.000063, k = 15.491496
         5        10     1        0.136382   355171.598340    ;  uncertainty r = 0.000057, k = 8.738544
         6         7     1        0.135780   353419.139746    ;  uncertainty r = 0.000093, k = 12.280365
         7         8     1        0.131584   437137.956152    ;  uncertainty r = 0.000061, k = 11.801030
         8         9     1        0.141378   325245.374902    ;  uncertainty r = 0.000067, k = 16.241067
         8        32     1        0.109180   341408.015723    ;  uncertainty r = 0.000031, k = 1.111543
         9        10     1        0.131606   448634.967090    ;  uncertainty r = 0.000067, k = 6.059784
         9        33     1        0.109175   341608.175586    ;  uncertainty r = 0.000026, k = 2.358932
        11        12     1        0.139103   334487.280322    ;  uncertainty r = 0.000264, k = 9.014066
        11        34     1        0.101492   409720.294043    ;  uncertainty r = 0.000088, k = 5.983707
        12        13     1        0.140927   340447.897021    ;  uncertainty r = 0.000113, k = 16.488631
        12        17     1        0.141356   348414.581348    ;  uncertainty r = 0.000198, k = 15.946801
        13        14     1        0.132524   387119.492578    ;  uncertainty r = 0.000108, k = 11.004640
        13        35     1        0.108905   336131.027441    ;  uncertainty r = 0.000101, k = 3.724279
        14        15     1        0.133802   397972.227783    ;  uncertainty r = 0.000074, k = 5.323602
        15        16     1        0.139170   363105.058887    ;  uncertainty r = 0.000048, k = 3.861494
        15        36     1        0.108994   339519.265576    ;  uncertainty r = 0.000025, k = 1.411824
        16        17     1        0.138845   368349.231982    ;  uncertainty r = 0.000202, k = 14.185221
        16        37     1        0.108610   333138.767725    ;  uncertainty r = 0.000052, k = 1.956172
        17        18     1        0.180205   137177.894727    ;  uncertainty r = 0.000181, k = 18.369765
        18        19     1        0.147757   507438.298437    ;  uncertainty r = 0.000058, k = 6.198400
        18        20     1        0.147757   507438.298437    ;  uncertainty r = 0.000058, k = 6.198400
        18        21     1        0.181050   174448.769580    ;  uncertainty r = 0.000039, k = 9.209305
        21        38     1        0.109286   321567.980078    ;  uncertainty r = 0.000031, k = 1.365001
        21        39     1        0.109286   321567.980078    ;  uncertainty r = 0.000031, k = 1.365001
        21        40     1        0.109286   321567.980078    ;  uncertainty r = 0.000031, k = 1.365001
        22        23     1        0.140089   346504.814160    ;  uncertainty r = 0.000053, k = 2.946999
        22        27     1        0.139854   347490.265674    ;  uncertainty r = 0.000037, k = 2.894011
        23        24     1        0.139460   366683.957080    ;  uncertainty r = 0.000016, k = 2.140145
        23        41     1        0.108776   334366.923926    ;  uncertainty r = 0.000029, k = 1.320389
        24        25     1        0.139467   371445.223438    ;  uncertainty r = 0.000041, k = 1.940352
        24        42     1        0.108779   332544.876709    ;  uncertainty r = 0.000016, k = 1.363334
        25        26     1        0.139886   362281.487109    ;  uncertainty r = 0.000020, k = 2.538186
        25        43     1        0.108802   337752.965869    ;  uncertainty r = 0.000012, k = 0.450664
        26        27     1        0.139722   358343.537158    ;  uncertainty r = 0.000018, k = 2.070368
        26        28     1        0.136565   322251.353125    ;  uncertainty r = 0.000037, k = 3.915895
        27        44     1        0.108826   338059.232422    ;  uncertainty r = 0.000037, k = 1.622263
        28        29     1        0.141909   253420.722559    ;  uncertainty r = 0.000028, k = 2.106543
        29        45     1        0.109623   311224.940039    ;  uncertainty r = 0.000009, k = 1.869781
        29        46     1        0.109623   311224.940039    ;  uncertainty r = 0.000009, k = 1.869788
        29        47     1        0.109623   311224.940039    ;  uncertainty r = 0.000009, k = 1.869792

[ angles ]
;       ai        aj        ak funct           theta             cth
         1         2         3     1      119.354149      388.558004    ;  uncertainty theta = 0.003479, k = 0.061803
         1         2        11     1      122.010719      487.333915    ;  uncertainty theta = 0.006482, k = 0.189293
         1         5         6     1      119.497047      391.821392    ;  uncertainty theta = 0.005347, k = 0.191786
         1         5        10     1      122.312637      528.712396    ;  uncertainty theta = 0.003351, k = 0.210335
         2         1         5     1      118.206688      518.635612    ;  uncertainty theta = 0.002447, k = 0.073028
         2         1        30     1      121.438538      270.401917    ;  uncertainty theta = 0.001365, k = 0.142095
         2         3         4     1      122.329445      516.356170    ;  uncertainty theta = 0.004810, k = 0.265125
         2         3        31     1      119.378006      284.937384    ;  uncertainty theta = 0.005110, k = 0.129316
         2        11        12     1      115.247620      387.594010    ;  uncertainty theta = 0.002924, k = 0.212981
         2        11        34     1      115.334732      382.605049    ;  uncertainty theta = 0.007384, k = 0.160726
         3         2        11     1      120.269043      499.771605    ;  uncertainty theta = 0.004775, k = 0.338941
         3         4         6     1      121.291672      456.045466    ;  uncertainty theta = 0.004207, k = 0.129522
         3         4        22     1      120.756943      424.152106    ;  uncertainty theta = 0.003847, k = 0.173469
         4         3        31     1      118.675797      277.790090    ;  uncertainty theta = 0.004880, k = 0.050832
         4         6         5     1      120.653526      398.339579    ;  uncertainty theta = 0.005810, k = 0.067334
         4         6         7     1      118.070938      466.009184    ;  uncertainty theta = 0.003847, k = 0.244705
         4        22        23     1      120.602989      397.214574    ;  uncertainty theta = 0.002212, k = 0.042675
         4        22        27     1      119.832214      392.748548    ;  uncertainty theta = 0.003538, k = 0.093256
         5         1        30     1      120.837975      275.673543    ;  uncertainty theta = 0.003390, k = 0.103595
         5         6         7     1      119.715538      514.287664    ;  uncertainty theta = 0.004171, k = 0.058520
         5        10         9     1      114.458984      488.266148    ;  uncertainty theta = 0.001996, k = 0.147683
         6         4        22     1      119.072083      397.751204    ;  uncertainty theta = 0.003141, k = 0.213817
         6         5        10     1      119.215195      554.928154    ;  uncertainty theta = 0.007493, k = 0.084178
         6         7         8     1      116.467896      472.703067    ;  uncertainty theta = 0.004318, k = 0.126453
         7         8         9     1      121.240555      622.447314    ;  uncertainty theta = 0.002919, k = 0.205880
         7         8        32     1      116.813492      347.959523    ;  uncertainty theta = 0.001638, k = 0.087624
         8         9        10     1      120.931259      612.842998    ;  uncertainty theta = 0.002470, k = 0.239696
         8         9        33     1      121.868530      283.534439    ;  uncertainty theta = 0.002376, k = 0.096063
         9         8        32     1      121.994606      282.804174    ;  uncertainty theta = 0.002439, k = 0.090842
        10         9        33     1      116.754013      350.159800    ;  uncertainty theta = 0.001533, k = 0.075385
        11        12        13     1      118.512817      444.270049    ;  uncertainty theta = 0.006989, k = 0.276229
        11        12        17     1      122.762405      517.830874    ;  uncertainty theta = 0.007977, k = 0.368248
        12        11        34     1      114.408607      380.718399    ;  uncertainty theta = 0.008156, k = 0.169224
        12        13        14     1      124.922012      667.515332    ;  uncertainty theta = 0.002966, k = 0.161817
        12        13        35     1      118.731201      264.771783    ;  uncertainty theta = 0.008633, k = 0.144654
        12        17        16     1      123.289940      400.819392    ;  uncertainty theta = 0.003703, k = 0.311812
        12        17        18     1      119.668861      323.012512    ;  uncertainty theta = 0.009862, k = 0.668304
        13        12        17     1      118.657333      362.619739    ;  uncertainty theta = 0.004612, k = 0.362834
        13        14        15     1      118.268311      445.304685    ;  uncertainty theta = 0.004478, k = 0.098123
        14        13        35     1      116.579346      347.314743    ;  uncertainty theta = 0.005152, k = 0.066004
        14        15        16     1      122.431076      677.632432    ;  uncertainty theta = 0.002046, k = 0.093657
        14        15        36     1      116.840332      340.667018    ;  uncertainty theta = 0.001197, k = 0.068775
        15        16        17     1      118.808189      483.994204    ;  uncertainty theta = 0.004991, k = 0.079007
        15        16        37     1      122.214798      277.736813    ;  uncertainty theta = 0.004016, k = 0.070187
        16        15        36     1      120.256363      277.546307    ;  uncertainty theta = 0.002265, k = 0.082403
        16        17        18     1      114.589767      352.518918    ;  uncertainty theta = 0.008187, k = 0.213541
        17        16        37     1      119.535904      260.121156    ;  uncertainty theta = 0.004889, k = 0.124125
        17        18        19     1      112.903687      607.682204    ;  uncertainty theta = 0.002869, k = 0.171145
        17        18        20     1      112.903687      607.682204    ;  uncertainty theta = 0.002869, k = 0.171145
        17        18        21     1      104.371536      610.740911    ;  uncertainty theta = 0.002610, k = 0.101866
        18        21        38     1      107.113976      366.636152    ;  uncertainty theta = 0.002061, k = 0.075109
        18        21        39     1      107.113976      366.636152    ;  uncertainty theta = 0.002061, k = 0.075109
        18        21        40     1      107.113976      366.636152    ;  uncertainty theta = 0.002061, k = 0.075109
        19        18        20     1      123.473061      838.268448    ;  uncertainty theta = 0.001927, k = 0.047858
        19        18        21     1      112.603317      748.419512    ;  uncertainty theta = 0.000730, k = 0.122171
        20        18        21     1      112.603317      748.419512    ;  uncertainty theta = 0.000730, k = 0.122171
        22        23        24     1      119.554245      525.934661    ;  uncertainty theta = 0.001775, k = 0.066247
        22        23        41     1      119.780617      281.383449    ;  uncertainty theta = 0.002312, k = 0.064582
        22        27        26     1      120.147804      523.174227    ;  uncertainty theta = 0.003088, k = 0.044012
        22        27        44     1      120.247238      277.071604    ;  uncertainty theta = 0.000939, k = 0.093595
        23        22        27     1      120.780174      404.869833    ;  uncertainty theta = 0.002885, k = 0.101014
        23        24        25     1      121.074448      505.220649    ;  uncertainty theta = 0.001540, k = 0.081086
        23        24        42     1      120.195862      282.094083    ;  uncertainty theta = 0.000997, k = 0.027734
        24        23        41     1      120.551270      294.695273    ;  uncertainty theta = 0.001622, k = 0.056194
        24        25        26     1      118.204285      526.137074    ;  uncertainty theta = 0.002741, k = 0.021941
        24        25        43     1      121.129005      286.144236    ;  uncertainty theta = 0.002050, k = 0.024700
        25        24        42     1      120.019920      281.139122    ;  uncertainty theta = 0.000476, k = 0.059236
        25        26        27     1      121.228745      370.324636    ;  uncertainty theta = 0.005374, k = 0.075197
        25        26        28     1      119.771011      424.714210    ;  uncertainty theta = 0.003822, k = 0.050361
        26        25        43     1      119.823402      270.853732    ;  uncertainty theta = 0.002443, k = 0.029382
        26        27        44     1      119.686401      271.981866    ;  uncertainty theta = 0.002842, k = 0.045652
        26        28        29     1      109.656204      514.446920    ;  uncertainty theta = 0.001314, k = 0.066356
        27        26        28     1      118.952858      419.265133    ;  uncertainty theta = 0.003048, k = 0.108875
        28        29        45     1      108.795372      446.331628    ;  uncertainty theta = 0.001356, k = 0.023105
        28        29        46     1      108.795372      446.331628    ;  uncertainty theta = 0.001356, k = 0.023105
        28        29        47     1      108.795372      446.331628    ;  uncertainty theta = 0.001356, k = 0.023105
        38        21        39     1      108.843689      296.191780    ;  uncertainty theta = 0.002069, k = 0.023128
        38        21        40     1      108.843689      296.191780    ;  uncertainty theta = 0.002069, k = 0.023128
        39        21        40     1      108.843689      296.191780    ;  uncertainty theta = 0.002069, k = 0.023128
        45        29        46     1      109.081810      330.154316    ;  uncertainty theta = 0.001818, k = 0.013785
        45        29        47     1      109.081810      330.154316    ;  uncertainty theta = 0.001818, k = 0.013785
        46        29        47     1      109.081810      330.154316    ;  uncertainty theta = 0.001818, k = 0.013785

[ dihedrals ] ; propers for gromacs 4.5 or higher, use funct 9
;       ai        aj        ak        al funct           phase               k        pn
         1         2         3         4     9        0.000000       -0.071993         1    ;  uncertainty k = 0.312881
         1         2         3         4     9      180.000000        6.236136         2    ;  uncertainty k = 0.983384
         1         2         3         4     9        0.000000        0.294310         3    ;  uncertainty k = 0.230009
         1         2         3         4     9      180.000000        1.349273         4    ;  uncertainty k = 0.319967
         1         2         3        31     9        0.000000        0.237751         1    ;  uncertainty k = 0.407272
         1         2         3        31     9      180.000000        5.911712         2    ;  uncertainty k = 0.917305
         1         2         3        31     9        0.000000        1.143639         3    ;  uncertainty k = 0.150774
         1         2         3        31     9      180.000000        1.435209         4    ;  uncertainty k = 0.269147
         1         2        11        12     9        0.000000        2.391292         1    ;  uncertainty k = 0.927258
         1         2        11        12     9      180.000000        5.627189         2    ;  uncertainty k = 0.345908
         1         2        11        12     9        0.000000        0.130796         3    ;  uncertainty k = 0.275597
         1         2        11        12     9      180.000000        0.108068         4    ;  uncertainty k = 0.070781
         1         2        11        34     9        0.000000        3.714210         1    ;  uncertainty k = 1.019186
         1         2        11        34     9      180.000000        4.537151         2    ;  uncertainty k = 0.136540
         1         2        11        34     9        0.000000        0.421528         3    ;  uncertainty k = 0.226094
         1         2        11        34     9      180.000000       -0.068003         4    ;  uncertainty k = 0.067046
         1         5         6         4     9        0.000000       -0.716627         1    ;  uncertainty k = 0.517939
         1         5         6         4     9      180.000000        4.573070         2    ;  uncertainty k = 1.581594
         1         5         6         4     9        0.000000        0.263856         3    ;  uncertainty k = 0.303979
         1         5         6         4     9      180.000000        1.239635         4    ;  uncertainty k = 0.354368
         1         5         6         7     9        0.000000        0.075716         1    ;  uncertainty k = 0.292414
         1         5         6         7     9      180.000000        6.076566         2    ;  uncertainty k = 1.157135
         1         5         6         7     9        0.000000        0.106412         3    ;  uncertainty k = 0.161666
         1         5         6         7     9      180.000000        1.371570         4    ;  uncertainty k = 0.407671
         1         5        10         9     9        0.000000        0.427932         1    ;  uncertainty k = 1.029214
         1         5        10         9     9      180.000000       12.638436         2    ;  uncertainty k = 0.318597
         1         5        10         9     9        0.000000        2.227131         3    ;  uncertainty k = 0.470956
         1         5        10         9     9      180.000000        1.437848         4    ;  uncertainty k = 0.260470
         2         1         5         6     9        0.000000        0.124777         1    ;  uncertainty k = 0.469634
         2         1         5         6     9      180.000000        7.210380         2    ;  uncertainty k = 0.798365
         2         1         5         6     9        0.000000        0.036788         3    ;  uncertainty k = 0.281313
         2         1         5         6     9      180.000000        1.290165         4    ;  uncertainty k = 0.270790
         2         1         5        10     9        0.000000        0.146697         1    ;  uncertainty k = 0.428362
         2         1         5        10     9      180.000000        9.787397         2    ;  uncertainty k = 0.378069
         2         1         5        10     9        0.000000        0.568644         3    ;  uncertainty k = 0.286792
         2         1         5        10     9      180.000000        1.391199         4    ;  uncertainty k = 0.231273
         2         3         4         6     9        0.000000        0.028373         1    ;  uncertainty k = 0.522936
         2         3         4         6     9      180.000000       12.617545         2    ;  uncertainty k = 0.440696
         2         3         4         6     9        0.000000        0.369704         3    ;  uncertainty k = 0.240146
         2         3         4         6     9      180.000000        1.264562         4    ;  uncertainty k = 0.326717
         2         3         4        22     9        0.000000        0.168234         1    ;  uncertainty k = 0.161811
         2         3         4        22     9      180.000000       10.499676         2    ;  uncertainty k = 0.680076
         2         3         4        22     9        0.000000        1.360103         3    ;  uncertainty k = 0.282026
         2         3         4        22     9      180.000000        1.709658         4    ;  uncertainty k = 0.304814
         2        11        12        13     9        0.000000        4.219814         1    ;  uncertainty k = 1.204826
         2        11        12        13     9      180.000000        5.915026         2    ;  uncertainty k = 0.485741
         2        11        12        13     9        0.000000        0.506820         3    ;  uncertainty k = 0.114706
         2        11        12        13     9      180.000000        0.021030         4    ;  uncertainty k = 0.159761
         2        11        12        17     9        0.000000        0.589932         1    ;  uncertainty k = 1.531193
         2        11        12        17     9      180.000000        8.272739         2    ;  uncertainty k = 0.309915
         2        11        12        17     9        0.000000       -0.349199         3    ;  uncertainty k = 0.585019
         2        11        12        17     9      180.000000        0.078445         4    ;  uncertainty k = 0.210861
         3         2         1         5     9        0.000000       -0.230094         1    ;  uncertainty k = 0.193613
         3         2         1         5     9      180.000000        9.799482         2    ;  uncertainty k = 0.334539
         3         2         1         5     9        0.000000        0.322865         3    ;  uncertainty k = 0.471328
         3         2         1         5     9      180.000000        1.352621         4    ;  uncertainty k = 0.303410
         3         2         1        30     9        0.000000        0.271865         1    ;  uncertainty k = 0.395472
         3         2         1        30     9      180.000000        7.009638         2    ;  uncertainty k = 0.650819
         3         2         1        30     9        0.000000        1.296696         3    ;  uncertainty k = 0.117301
         3         2         1        30     9      180.000000        1.627549         4    ;  uncertainty k = 0.152794
         3         2        11        12     9        0.000000        2.703023         1    ;  uncertainty k = 1.093474
         3         2        11        12     9      180.000000        5.646721         2    ;  uncertainty k = 0.287758
         3         2        11        12     9        0.000000        0.628331         3    ;  uncertainty k = 0.301753
         3         2        11        12     9      180.000000        0.075594         4    ;  uncertainty k = 0.163630
         3         2        11        34     9        0.000000        3.315351         1    ;  uncertainty k = 0.856352
         3         2        11        34     9      180.000000        4.508873         2    ;  uncertainty k = 0.528168
         3         2        11        34     9        0.000000        0.509564         3    ;  uncertainty k = 0.257912
         3         2        11        34     9      180.000000       -0.046361         4    ;  uncertainty k = 0.122571
         3         4         6         5     9        0.000000       -0.099935         1    ;  uncertainty k = 0.496974
         3         4         6         5     9      180.000000        5.862102         2    ;  uncertainty k = 1.003744
         3         4         6         5     9        0.000000        0.074673         3    ;  uncertainty k = 0.284310
         3         4         6         5     9      180.000000        0.986237         4    ;  uncertainty k = 0.339660
         3         4         6         7     9        0.000000        0.235537         1    ;  uncertainty k = 0.583081
         3         4         6         7     9      180.000000        6.958877         2    ;  uncertainty k = 0.813062
         3         4         6         7     9        0.000000        0.371316         3    ;  uncertainty k = 0.318358
         3         4         6         7     9      180.000000        1.152055         4    ;  uncertainty k = 0.333815
         3         4        22        23     9        0.000000       -0.235353         1    ;  uncertainty k = 0.372265
         3         4        22        23     9      180.000000        5.237500         2    ;  uncertainty k = 0.225580
         3         4        22        23     9        0.000000        0.431639         3    ;  uncertainty k = 0.149605
         3         4        22        23     9      180.000000        0.486621         4    ;  uncertainty k = 0.108662
         3         4        22        27     9        0.000000        0.116526         1    ;  uncertainty k = 0.254578
         3         4        22        27     9      180.000000        5.220045         2    ;  uncertainty k = 0.228641
         3         4        22        27     9        0.000000        0.388313         3    ;  uncertainty k = 0.141675
         3         4        22        27     9      180.000000        0.526616         4    ;  uncertainty k = 0.123218
         4         3         2        11     9        0.000000        0.291181         1    ;  uncertainty k = 0.704894
         4         3         2        11     9      180.000000        7.641815         2    ;  uncertainty k = 0.512848
         4         3         2        11     9        0.000000        0.801766         3    ;  uncertainty k = 0.269493
         4         3         2        11     9      180.000000        1.624680         4    ;  uncertainty k = 0.124913
         4         6         5        10     9        0.000000       -0.323950         1    ;  uncertainty k = 0.674676
         4         6         5        10     9      180.000000        4.995436         2    ;  uncertainty k = 1.159452
         4         6         5        10     9        0.000000        0.085026         3    ;  uncertainty k = 0.375144
         4         6         5        10     9      180.000000        1.328486         4    ;  uncertainty k = 0.223764
         4         6         7         8     9        0.000000       -0.241644         1    ;  uncertainty k = 0.590156
         4         6         7         8     9      180.000000       12.381798         2    ;  uncertainty k = 0.593243
         4         6         7         8     9        0.000000        2.036291         3    ;  uncertainty k = 0.330379
         4         6         7         8     9      180.000000        1.326600         4    ;  uncertainty k = 0.192092
         4        22        23        24     9        0.000000        0.092755         1    ;  uncertainty k = 0.413462
         4        22        23        24     9      180.000000        8.692627         2    ;  uncertainty k = 0.663893
         4        22        23        24     9        0.000000        1.261395         3    ;  uncertainty k = 0.313421
         4        22        23        24     9      180.000000        1.883684         4    ;  uncertainty k = 0.192456
         4        22        23        41     9        0.000000       -0.097009         1    ;  uncertainty k = 0.101491
         4        22        23        41     9      180.000000        7.191287         2    ;  uncertainty k = 0.448697
         4        22        23        41     9        0.000000        0.852723         3    ;  uncertainty k = 0.222764
         4        22        23        41     9      180.000000        1.215161         4    ;  uncertainty k = 0.191074
         4        22        27        26     9        0.000000        0.093893         1    ;  uncertainty k = 0.118958
         4        22        27        26     9      180.000000        8.969227         2    ;  uncertainty k = 0.485965
         4        22        27        26     9        0.000000        1.261379         3    ;  uncertainty k = 0.259587
         4        22        27        26     9      180.000000        1.734026         4    ;  uncertainty k = 0.199300
         4        22        27        44     9        0.000000       -0.100415         1    ;  uncertainty k = 0.162405
         4        22        27        44     9      180.000000        7.343462         2    ;  uncertainty k = 0.337650
         4        22        27        44     9        0.000000        0.832163         3    ;  uncertainty k = 0.264243
         4        22        27        44     9      180.000000        1.180854         4    ;  uncertainty k = 0.177543
         5         1         2        11     9        0.000000       -0.189602         1    ;  uncertainty k = 0.394616
         5         1         2        11     9      180.000000       11.233636         2    ;  uncertainty k = 0.435508
         5         1         2        11     9        0.000000        0.975271         3    ;  uncertainty k = 0.174800
         5         1         2        11     9      180.000000        1.594279         4    ;  uncertainty k = 0.138017
         5         6         4        22     9        0.000000        0.139035         1    ;  uncertainty k = 0.741939
         5         6         4        22     9      180.000000        5.022589         2    ;  uncertainty k = 0.648391
         5         6         4        22     9        0.000000        1.055700         3    ;  uncertainty k = 0.242937
         5         6         4        22     9      180.000000        1.251596         4    ;  uncertainty k = 0.351613
         5         6         7         8     9        0.000000       -0.121918         1    ;  uncertainty k = 0.899148
         5         6         7         8     9      180.000000       11.592838         2    ;  uncertainty k = 0.635161
         5         6         7         8     9        0.000000        1.459268         3    ;  uncertainty k = 0.284518
         5         6         7         8     9      180.000000        1.335516         4    ;  uncertainty k = 0.320568
         5        10         9         8     9        0.000000        0.013311         1    ;  uncertainty k = 0.131653
         5        10         9         8     9      180.000000       17.231919         2    ;  uncertainty k = 0.196674
         5        10         9         8     9        0.000000        0.888029         3    ;  uncertainty k = 0.629562
         5        10         9         8     9      180.000000        1.519865         4    ;  uncertainty k = 0.234840
         5        10         9        33     9        0.000000        0.424411         1    ;  uncertainty k = 0.517708
         5        10         9        33     9      180.000000       19.045700         2    ;  uncertainty k = 0.443936
         5        10         9        33     9        0.000000        2.354564         3    ;  uncertainty k = 0.582721
         5        10         9        33     9      180.000000        1.407429         4    ;  uncertainty k = 0.336465
         6         4         3        31     9        0.000000        0.096977         1    ;  uncertainty k = 0.263832
         6         4         3        31     9      180.000000        9.642330         2    ;  uncertainty k = 0.351743
         6         4         3        31     9        0.000000        1.476436         3    ;  uncertainty k = 0.150128
         6         4         3        31     9      180.000000        1.666012         4    ;  uncertainty k = 0.168098
         6         4        22        23     9        0.000000        0.408081         1    ;  uncertainty k = 0.703967
         6         4        22        23     9      180.000000        4.904501         2    ;  uncertainty k = 0.390242
         6         4        22        23     9        0.000000        0.355115         3    ;  uncertainty k = 0.370118
         6         4        22        23     9      180.000000        0.696797         4    ;  uncertainty k = 0.050100
         6         4        22        27     9        0.000000       -0.489431         1    ;  uncertainty k = 0.738188
         6         4        22        27     9      180.000000        4.901033         2    ;  uncertainty k = 0.361852
         6         4        22        27     9        0.000000        0.465908         3    ;  uncertainty k = 0.378030
         6         4        22        27     9      180.000000        0.652094         4    ;  uncertainty k = 0.100760
         6         5         1        30     9        0.000000       -0.227944         1    ;  uncertainty k = 0.343151
         6         5         1        30     9      180.000000        5.855722         2    ;  uncertainty k = 0.873789
         6         5         1        30     9        0.000000        1.201888         3    ;  uncertainty k = 0.161541
         6         5         1        30     9      180.000000        1.243551         4    ;  uncertainty k = 0.340266
         6         5        10         9     9        0.000000       -0.066074         1    ;  uncertainty k = 1.326543
         6         5        10         9     9      180.000000       10.119061         2    ;  uncertainty k = 0.624084
         6         5        10         9     9        0.000000        1.274776         3    ;  uncertainty k = 0.483533
         6         5        10         9     9      180.000000        1.288278         4    ;  uncertainty k = 0.224413
         6         7         8         9     9        0.000000        0.032700         1    ;  uncertainty k = 0.371842
         6         7         8         9     9      180.000000       16.595219         2    ;  uncertainty k = 0.331031
         6         7         8         9     9        0.000000        0.830940         3    ;  uncertainty k = 0.755157
         6         7         8         9     9      180.000000        1.569816         4    ;  uncertainty k = 0.254727
         6         7         8        32     9        0.000000        0.273195         1    ;  uncertainty k = 0.534605
         6         7         8        32     9      180.000000       18.195196         2    ;  uncertainty k = 0.528958
         6         7         8        32     9        0.000000        2.346360         3    ;  uncertainty k = 0.656567
         6         7         8        32     9      180.000000        1.630137         4    ;  uncertainty k = 0.414697
         7         6         4        22     9        0.000000        0.242894         1    ;  uncertainty k = 1.202331
         7         6         4        22     9      180.000000        7.420423         2    ;  uncertainty k = 0.635628
         7         6         4        22     9        0.000000        0.792529         3    ;  uncertainty k = 0.529409
         7         6         4        22     9      180.000000        1.165500         4    ;  uncertainty k = 0.249976
         7         6         5        10     9        0.000000       -0.400758         1    ;  uncertainty k = 0.893249
         7         6         5        10     9      180.000000        7.082848         2    ;  uncertainty k = 0.717739
         7         6         5        10     9        0.000000        0.077325         3    ;  uncertainty k = 0.333985
         7         6         5        10     9      180.000000        1.332378         4    ;  uncertainty k = 0.355974
         7         8         9        10     9        0.000000       -0.202866         1    ;  uncertainty k = 0.782206
         7         8         9        10     9      180.000000       12.112991         2    ;  uncertainty k = 0.805807
         7         8         9        10     9        0.000000       -1.599825         3    ;  uncertainty k = 0.569696
         7         8         9        10     9      180.000000        0.918172         4    ;  uncertainty k = 0.463986
         7         8         9        33     9        0.000000        0.036887         1    ;  uncertainty k = 0.700692
         7         8         9        33     9      180.000000        6.513920         2    ;  uncertainty k = 1.135261
         7         8         9        33     9        0.000000        0.521732         3    ;  uncertainty k = 0.385188
         7         8         9        33     9      180.000000        1.117821         4    ;  uncertainty k = 0.330142
        10         5         1        30     9        0.000000        0.139927         1    ;  uncertainty k = 0.233388
        10         5         1        30     9      180.000000        8.199302         2    ;  uncertainty k = 0.492393
        10         5         1        30     9        0.000000        1.032825         3    ;  uncertainty k = 0.329116
        10         5         1        30     9      180.000000        1.219854         4    ;  uncertainty k = 0.291231
        10         9         8        32     9        0.000000       -0.033262         1    ;  uncertainty k = 0.634830
        10         9         8        32     9      180.000000        6.504272         2    ;  uncertainty k = 1.136878
        10         9         8        32     9        0.000000        0.521238         3    ;  uncertainty k = 0.433609
        10         9         8        32     9      180.000000        1.070757         4    ;  uncertainty k = 0.343719
        11         2         1        30     9        0.000000       -0.570256         1    ;  uncertainty k = 0.225437
        11         2         1        30     9      180.000000        8.036469         2    ;  uncertainty k = 0.539841
        11         2         1        30     9        0.000000        0.826404         3    ;  uncertainty k = 0.259178
        11         2         1        30     9      180.000000        1.188346         4    ;  uncertainty k = 0.226655
        11         2         3        31     9        0.000000       -0.452049         1    ;  uncertainty k = 0.327503
        11         2         3        31     9      180.000000        6.961909         2    ;  uncertainty k = 0.390567
        11         2         3        31     9        0.000000        0.803667         3    ;  uncertainty k = 0.225958
        11         2         3        31     9      180.000000        1.176718         4    ;  uncertainty k = 0.121576
        11        12        13        14     9        0.000000        0.284522         1    ;  uncertainty k = 0.937481
        11        12        13        14     9      180.000000        8.701419         2    ;  uncertainty k = 0.854399
        11        12        13        14     9        0.000000        0.836725         3    ;  uncertainty k = 0.185927
        11        12        13        14     9      180.000000        1.496108         4    ;  uncertainty k = 0.299674
        11        12        13        35     9        0.000000        0.007094         1    ;  uncertainty k = 0.499751
        11        12        13        35     9      180.000000        5.972506         2    ;  uncertainty k = 0.983101
        11        12        13        35     9        0.000000        0.942185         3    ;  uncertainty k = 0.273146
        11        12        13        35     9      180.000000        1.158933         4    ;  uncertainty k = 0.246634
        11        12        17        16     9        0.000000       -0.020825         1    ;  uncertainty k = 0.416437
        11        12        17        16     9      180.000000        7.821352         2    ;  uncertainty k = 0.442940
        11        12        17        16     9        0.000000        1.029527         3    ;  uncertainty k = 0.210995
        11        12        17        16     9      180.000000        1.524188         4    ;  uncertainty k = 0.257372
        11        12        17        18     9        0.000000       -0.506013         1    ;  uncertainty k = 0.475729
        11        12        17        18     9      180.000000        7.636455         2    ;  uncertainty k = 0.878998
        11        12        17        18     9        0.000000        1.159105         3    ;  uncertainty k = 0.332203
        11        12        17        18     9      180.000000        1.400877         4    ;  uncertainty k = 0.254665
        12        13        14        15     9        0.000000        0.036596         1    ;  uncertainty k = 0.371494
        12        13        14        15     9      180.000000       16.597051         2    ;  uncertainty k = 0.304805
        12        13        14        15     9        0.000000        0.966622         3    ;  uncertainty k = 0.517836
        12        13        14        15     9      180.000000        1.451098         4    ;  uncertainty k = 0.177715
        12        17        16        15     9        0.000000       -0.265670         1    ;  uncertainty k = 0.419232
        12        17        16        15     9      180.000000       10.460451         2    ;  uncertainty k = 0.389563
        12        17        16        15     9        0.000000       -0.366509         3    ;  uncertainty k = 0.514479
        12        17        16        15     9      180.000000        0.929899         4    ;  uncertainty k = 0.330295
        12        17        16        37     9        0.000000        0.238370         1    ;  uncertainty k = 0.382236
        12        17        16        37     9      180.000000        7.525225         2    ;  uncertainty k = 0.903253
        12        17        16        37     9        0.000000        1.267263         3    ;  uncertainty k = 0.290614
        12        17        16        37     9      180.000000        1.474858         4    ;  uncertainty k = 0.123421
        12        17        18        19     9        0.000000       -5.228555         1    ;  uncertainty k = 2.158654
        12        17        18        19     9      180.000000       -0.861345         2    ;  uncertainty k = 0.805163
        12        17        18        19     9        0.000000        1.201042         3    ;  uncertainty k = 0.425532
        12        17        18        19     9      180.000000       -0.042324         4    ;  uncertainty k = 0.375368
        12        17        18        20     9        0.000000       -5.228555         1    ;  uncertainty k = 2.158654
        12        17        18        20     9      180.000000       -0.861345         2    ;  uncertainty k = 0.805163
        12        17        18        20     9        0.000000        1.201042         3    ;  uncertainty k = 0.425532
        12        17        18        20     9      180.000000       -0.042324         4    ;  uncertainty k = 0.375368
        12        17        18        21     9        0.000000        0.262420         1    ;  uncertainty k = 1.833669
        12        17        18        21     9      180.000000       -1.026927         2    ;  uncertainty k = 0.798423
        12        17        18        21     9        0.000000        0.956203         3    ;  uncertainty k = 0.348086
        12        17        18        21     9      180.000000        0.178350         4    ;  uncertainty k = 0.195567
        13        12        11        34     9        0.000000        0.917546         1    ;  uncertainty k = 1.463601
        13        12        11        34     9      180.000000        4.182459         2    ;  uncertainty k = 0.765145
        13        12        11        34     9        0.000000       -0.106076         3    ;  uncertainty k = 0.498484
        13        12        11        34     9      180.000000       -0.220151         4    ;  uncertainty k = 0.253379
        13        12        17        16     9        0.000000       -0.438834         1    ;  uncertainty k = 0.840319
        13        12        17        16     9      180.000000        4.610450         2    ;  uncertainty k = 1.641699
        13        12        17        16     9        0.000000        0.358135         3    ;  uncertainty k = 0.323563
        13        12        17        16     9      180.000000        1.351096         4    ;  uncertainty k = 0.315698
        13        12        17        18     9        0.000000        0.917642         1    ;  uncertainty k = 0.634888
        13        12        17        18     9      180.000000        4.793053         2    ;  uncertainty k = 1.087368
        13        12        17        18     9        0.000000        1.108846         3    ;  uncertainty k = 0.290817
        13        12        17        18     9      180.000000        1.561541         4    ;  uncertainty k = 0.342192
        13        14        15        16     9        0.000000       -0.485016         1    ;  uncertainty k = 0.425215
        13        14        15        16     9      180.000000       15.189731         2    ;  uncertainty k = 0.461239
        13        14        15        16     9        0.000000        1.127628         3    ;  uncertainty k = 0.661679
        13        14        15        16     9      180.000000        1.285431         4    ;  uncertainty k = 0.097277
        13        14        15        36     9        0.000000        0.172531         1    ;  uncertainty k = 0.566095
        13        14        15        36     9      180.000000       15.445791         2    ;  uncertainty k = 0.425751
        13        14        15        36     9        0.000000        2.152703         3    ;  uncertainty k = 0.508047
        13        14        15        36     9      180.000000        1.381410         4    ;  uncertainty k = 0.359272
        14        13        12        17     9        0.000000       -0.562844         1    ;  uncertainty k = 0.540738
        14        13        12        17     9      180.000000        6.748516         2    ;  uncertainty k = 1.268444
        14        13        12        17     9        0.000000        0.077078         3    ;  uncertainty k = 0.370451
        14        13        12        17     9      180.000000        1.216829         4    ;  uncertainty k = 0.295894
        14        15        16        17     9        0.000000       -0.252470         1    ;  uncertainty k = 0.431541
        14        15        16        17     9      180.000000       13.556324         2    ;  uncertainty k = 0.574918
        14        15        16        17     9        0.000000       -1.106331         3    ;  uncertainty k = 1.113055
        14        15        16        17     9      180.000000        0.952273         4    ;  uncertainty k = 0.151718
        14        15        16        37     9        0.000000       -0.068096         1    ;  uncertainty k = 0.262319
        14        15        16        37     9      180.000000        9.165641         2    ;  uncertainty k = 0.726880
        14        15        16        37     9        0.000000        0.979809         3    ;  uncertainty k = 0.350348
        14        15        16        37     9      180.000000        1.652653         4    ;  uncertainty k = 0.185846
        15        14        13        35     9        0.000000        0.508068         1    ;  uncertainty k = 0.686765
        15        14        13        35     9      180.000000       16.706316         2    ;  uncertainty k = 0.583289
        15        14        13        35     9        0.000000        2.361242         3    ;  uncertainty k = 0.235965
        15        14        13        35     9      180.000000        1.517602         4    ;  uncertainty k = 0.508262
        15        16        17        18     9        0.000000        0.601785         1    ;  uncertainty k = 0.840722
        15        16        17        18     9      180.000000        9.254868         2    ;  uncertainty k = 0.664789
        15        16        17        18     9        0.000000        1.560649         3    ;  uncertainty k = 0.502422
        15        16        17        18     9      180.000000        1.838812         4    ;  uncertainty k = 0.146620
        16        17        18        19     9        0.000000       -0.492326         1    ;  uncertainty k = 1.108210
        16        17        18        19     9      180.000000        0.135604         2    ;  uncertainty k = 0.455039
        16        17        18        19     9        0.000000        0.177824         3    ;  uncertainty k = 0.237275
        16        17        18        19     9      180.000000        0.012962         4    ;  uncertainty k = 0.209193
        16        17        18        20     9        0.000000       -0.492326         1    ;  uncertainty k = 1.108210
        16        17        18        20     9      180.000000        0.135604         2    ;  uncertainty k = 0.455039
        16        17        18        20     9        0.000000        0.177824         3    ;  uncertainty k = 0.237275
        16        17        18        20     9      180.000000        0.012962         4    ;  uncertainty k = 0.209193
        16        17        18        21     9        0.000000        3.406873         1    ;  uncertainty k = 1.708513
        16        17        18        21     9      180.000000        0.171419         2    ;  uncertainty k = 0.576992
        16        17        18        21     9        0.000000       -0.078308         3    ;  uncertainty k = 0.399032
        16        17        18        21     9      180.000000        0.444416         4    ;  uncertainty k = 0.155672
        17        12        11        34     9        0.000000        9.262104         1    ;  uncertainty k = 0.773179
        17        12        11        34     9      180.000000        3.945831         2    ;  uncertainty k = 0.536445
        17        12        11        34     9        0.000000        0.752572         3    ;  uncertainty k = 0.273739
        17        12        11        34     9      180.000000       -0.119638         4    ;  uncertainty k = 0.176171
        17        12        13        35     9        0.000000        0.000816         1    ;  uncertainty k = 1.384590
        17        12        13        35     9      180.000000        4.685090         2    ;  uncertainty k = 1.110640
        17        12        13        35     9        0.000000        1.104677         3    ;  uncertainty k = 0.238510
        17        12        13        35     9      180.000000        1.089443         4    ;  uncertainty k = 0.205054
        17        16        15        36     9        0.000000       -0.148524         1    ;  uncertainty k = 0.589762
        17        16        15        36     9      180.000000        6.244192         2    ;  uncertainty k = 0.249576
        17        16        15        36     9        0.000000        1.014104         3    ;  uncertainty k = 0.237437
        17        16        15        36     9      180.000000        1.497615         4    ;  uncertainty k = 0.181166
        17        18        21        38     9        0.000000        2.345205         1    ;  uncertainty k = 0.643496
        17        18        21        38     9      180.000000       -2.433989         2    ;  uncertainty k = 0.375725
        17        18        21        38     9        0.000000        0.170343         3    ;  uncertainty k = 0.101207
        17        18        21        38     9      180.000000        0.001304         4    ;  uncertainty k = 0.149207
        17        18        21        39     9        0.000000        2.345205         1    ;  uncertainty k = 0.643496
        17        18        21        39     9      180.000000       -2.433989         2    ;  uncertainty k = 0.375725
        17        18        21        39     9        0.000000        0.170343         3    ;  uncertainty k = 0.101207
        17        18        21        39     9      180.000000        0.001304         4    ;  uncertainty k = 0.149207
        17        18        21        40     9        0.000000        2.345205         1    ;  uncertainty k = 0.643496
        17        18        21        40     9      180.000000       -2.433989         2    ;  uncertainty k = 0.375725
        17        18        21        40     9        0.000000        0.170343         3    ;  uncertainty k = 0.101207
        17        18        21        40     9      180.000000        0.001304         4    ;  uncertainty k = 0.149207
        18        17        16        37     9        0.000000       -0.424035         1    ;  uncertainty k = 0.616074
        18        17        16        37     9      180.000000        7.010378         2    ;  uncertainty k = 0.550571
        18        17        16        37     9        0.000000        0.781435         3    ;  uncertainty k = 0.169299
        18        17        16        37     9      180.000000        1.269235         4    ;  uncertainty k = 0.186787
        19        18        21        38     9        0.000000       -0.057641         1    ;  uncertainty k = 0.603702
        19        18        21        38     9      180.000000       -0.366450         2    ;  uncertainty k = 0.288159
        19        18        21        38     9        0.000000        0.801561         3    ;  uncertainty k = 0.057212
        19        18        21        38     9      180.000000        0.039211         4    ;  uncertainty k = 0.101280
        19        18        21        39     9        0.000000       -0.057641         1    ;  uncertainty k = 0.603702
        19        18        21        39     9      180.000000       -0.366450         2    ;  uncertainty k = 0.288159
        19        18        21        39     9        0.000000        0.801561         3    ;  uncertainty k = 0.057212
        19        18        21        39     9      180.000000        0.039211         4    ;  uncertainty k = 0.101280
        19        18        21        40     9        0.000000       -0.057641         1    ;  uncertainty k = 0.603702
        19        18        21        40     9      180.000000       -0.366450         2    ;  uncertainty k = 0.288159
        19        18        21        40     9        0.000000        0.801561         3    ;  uncertainty k = 0.057212
        19        18        21        40     9      180.000000        0.039211         4    ;  uncertainty k = 0.101280
        20        18        21        38     9        0.000000       -0.057641         1    ;  uncertainty k = 0.603702
        20        18        21        38     9      180.000000       -0.366450         2    ;  uncertainty k = 0.288159
        20        18        21        38     9        0.000000        0.801561         3    ;  uncertainty k = 0.057212
        20        18        21        38     9      180.000000        0.039211         4    ;  uncertainty k = 0.101280
        20        18        21        39     9        0.000000       -0.057641         1    ;  uncertainty k = 0.603702
        20        18        21        39     9      180.000000       -0.366450         2    ;  uncertainty k = 0.288159
        20        18        21        39     9        0.000000        0.801561         3    ;  uncertainty k = 0.057212
        20        18        21        39     9      180.000000        0.039211         4    ;  uncertainty k = 0.101280
        20        18        21        40     9        0.000000       -0.057641         1    ;  uncertainty k = 0.603702
        20        18        21        40     9      180.000000       -0.366450         2    ;  uncertainty k = 0.288159
        20        18        21        40     9        0.000000        0.801561         3    ;  uncertainty k = 0.057212
        20        18        21        40     9      180.000000        0.039211         4    ;  uncertainty k = 0.101280
        22         4         3        31     9        0.000000        0.139055         1    ;  uncertainty k = 0.270326
        22         4         3        31     9      180.000000        8.521932         2    ;  uncertainty k = 0.235556
        22         4         3        31     9        0.000000        1.036942         3    ;  uncertainty k = 0.141866
        22         4         3        31     9      180.000000        1.394642         4    ;  uncertainty k = 0.283934
        22        23        24        25     9        0.000000       -0.067769         1    ;  uncertainty k = 0.216709
        22        23        24        25     9      180.000000       14.275191         2    ;  uncertainty k = 0.295194
        22        23        24        25     9        0.000000       -0.992435         3    ;  uncertainty k = 0.504053
        22        23        24        25     9      180.000000        0.717424         4    ;  uncertainty k = 0.248524
        22        23        24        42     9        0.000000       -0.053958         1    ;  uncertainty k = 0.199666
        22        23        24        42     9      180.000000        7.537215         2    ;  uncertainty k = 0.330235
        22        23        24        42     9        0.000000        1.315387         3    ;  uncertainty k = 0.206872
        22        23        24        42     9      180.000000        1.815910         4    ;  uncertainty k = 0.186183
        22        27        26        25     9        0.000000        0.025316         1    ;  uncertainty k = 0.413139
        22        27        26        25     9      180.000000        8.972315         2    ;  uncertainty k = 0.561970
        22        27        26        25     9        0.000000        0.187259         3    ;  uncertainty k = 0.312983
        22        27        26        25     9      180.000000        1.255115         4    ;  uncertainty k = 0.307050
        22        27        26        28     9        0.000000       -0.063403         1    ;  uncertainty k = 0.364971
        22        27        26        28     9      180.000000       10.934374         2    ;  uncertainty k = 0.520348
        22        27        26        28     9        0.000000        1.029617         3    ;  uncertainty k = 0.345196
        22        27        26        28     9      180.000000        1.531781         4    ;  uncertainty k = 0.142801
        23        22        27        26     9        0.000000       -0.182902         1    ;  uncertainty k = 0.314648
        23        22        27        26     9      180.000000       11.559626         2    ;  uncertainty k = 0.191042
        23        22        27        26     9        0.000000       -0.288041         3    ;  uncertainty k = 0.225482
        23        22        27        26     9      180.000000        0.981189         4    ;  uncertainty k = 0.224822
        23        22        27        44     9        0.000000        0.403249         1    ;  uncertainty k = 0.225583
        23        22        27        44     9      180.000000        7.264073         2    ;  uncertainty k = 0.509547
        23        22        27        44     9        0.000000        1.518442         3    ;  uncertainty k = 0.216412
        23        22        27        44     9      180.000000        1.663553         4    ;  uncertainty k = 0.158506
        23        24        25        26     9        0.000000       -0.105018         1    ;  uncertainty k = 0.200791
        23        24        25        26     9      180.000000       14.396944         2    ;  uncertainty k = 0.256908
        23        24        25        26     9        0.000000       -0.967703         3    ;  uncertainty k = 0.476640
        23        24        25        26     9      180.000000        0.735922         4    ;  uncertainty k = 0.224455
        23        24        25        43     9        0.000000        0.177202         1    ;  uncertainty k = 0.134030
        23        24        25        43     9      180.000000        7.712827         2    ;  uncertainty k = 0.340144
        23        24        25        43     9        0.000000        1.528407         3    ;  uncertainty k = 0.241716
        23        24        25        43     9      180.000000        1.831045         4    ;  uncertainty k = 0.160788
        24        23        22        27     9        0.000000       -0.231581         1    ;  uncertainty k = 0.105438
        24        23        22        27     9      180.000000       12.021449         2    ;  uncertainty k = 0.164245
        24        23        22        27     9        0.000000       -0.622173         3    ;  uncertainty k = 0.416134
        24        23        22        27     9      180.000000        0.837376         4    ;  uncertainty k = 0.300125
        24        25        26        27     9        0.000000       -0.024887         1    ;  uncertainty k = 0.170460
        24        25        26        27     9      180.000000        9.173008         2    ;  uncertainty k = 0.544076
        24        25        26        27     9        0.000000       -0.019261         3    ;  uncertainty k = 0.351129
        24        25        26        27     9      180.000000        1.164030         4    ;  uncertainty k = 0.345863
        24        25        26        28     9        0.000000       -0.007046         1    ;  uncertainty k = 0.276791
        24        25        26        28     9      180.000000       10.435157         2    ;  uncertainty k = 0.551356
        24        25        26        28     9        0.000000        1.139219         3    ;  uncertainty k = 0.287694
        24        25        26        28     9      180.000000        1.592503         4    ;  uncertainty k = 0.131735
        25        24        23        41     9        0.000000        0.117029         1    ;  uncertainty k = 0.078157
        25        24        23        41     9      180.000000        7.853709         2    ;  uncertainty k = 0.347345
        25        24        23        41     9        0.000000        1.397602         3    ;  uncertainty k = 0.295919
        25        24        23        41     9      180.000000        1.864676         4    ;  uncertainty k = 0.156796
        25        26        27        44     9        0.000000        0.225791         1    ;  uncertainty k = 0.352998
        25        26        27        44     9      180.000000        6.132066         2    ;  uncertainty k = 0.449119
        25        26        27        44     9        0.000000        1.417841         3    ;  uncertainty k = 0.293518
        25        26        27        44     9      180.000000        1.656582         4    ;  uncertainty k = 0.129371
        25        26        28        29     9        0.000000        0.583317         1    ;  uncertainty k = 0.485649
        25        26        28        29     9      180.000000        7.615886         2    ;  uncertainty k = 0.073676
        25        26        28        29     9        0.000000        0.662452         3    ;  uncertainty k = 0.070383
        25        26        28        29     9      180.000000        0.292633         4    ;  uncertainty k = 0.015497
        26        25        24        42     9        0.000000       -0.010994         1    ;  uncertainty k = 0.140110
        26        25        24        42     9      180.000000        7.873060         2    ;  uncertainty k = 0.362729
        26        25        24        42     9        0.000000        1.302854         3    ;  uncertainty k = 0.291519
        26        25        24        42     9      180.000000        1.716992         4    ;  uncertainty k = 0.123586
        26        28        29        45     9        0.000000        0.690562         1    ;  uncertainty k = 0.196658
        26        28        29        45     9      180.000000       -1.412710         2    ;  uncertainty k = 0.125709
        26        28        29        45     9        0.000000        0.938804         3    ;  uncertainty k = 0.037866
        26        28        29        45     9      180.000000        0.289494         4    ;  uncertainty k = 0.055618
        26        28        29        46     9        0.000000        0.690562         1    ;  uncertainty k = 0.196658
        26        28        29        46     9      180.000000       -1.412710         2    ;  uncertainty k = 0.125709
        26        28        29        46     9        0.000000        0.938804         3    ;  uncertainty k = 0.037866
        26        28        29        46     9      180.000000        0.289494         4    ;  uncertainty k = 0.055618
        26        28        29        47     9        0.000000        0.690562         1    ;  uncertainty k = 0.196658
        26        28        29        47     9      180.000000       -1.412710         2    ;  uncertainty k = 0.125709
        26        28        29        47     9        0.000000        0.938804         3    ;  uncertainty k = 0.037866
        26        28        29        47     9      180.000000        0.289494         4    ;  uncertainty k = 0.055618
        27        22        23        41     9        0.000000        0.326450         1    ;  uncertainty k = 0.111649
        27        22        23        41     9      180.000000        7.100320         2    ;  uncertainty k = 0.618074
        27        22        23        41     9        0.000000        1.503412         3    ;  uncertainty k = 0.216701
        27        22        23        41     9      180.000000        1.702023         4    ;  uncertainty k = 0.248384
        27        26        25        43     9        0.000000        0.248420         1    ;  uncertainty k = 0.349837
        27        26        25        43     9      180.000000        5.941716         2    ;  uncertainty k = 0.510332
        27        26        25        43     9        0.000000        1.440061         3    ;  uncertainty k = 0.279383
        27        26        25        43     9      180.000000        1.560522         4    ;  uncertainty k = 0.130669
        27        26        28        29     9        0.000000       -0.414369         1    ;  uncertainty k = 0.510035
        27        26        28        29     9      180.000000        7.587371         2    ;  uncertainty k = 0.099267
        27        26        28        29     9        0.000000        0.516191         3    ;  uncertainty k = 0.130198
        27        26        28        29     9      180.000000        0.285809         4    ;  uncertainty k = 0.067284
        28        26        25        43     9        0.000000       -0.135000         1    ;  uncertainty k = 0.159928
        28        26        25        43     9      180.000000        8.163874         2    ;  uncertainty k = 0.290530
        28        26        25        43     9        0.000000        0.669888         3    ;  uncertainty k = 0.141422
        28        26        25        43     9      180.000000        0.988649         4    ;  uncertainty k = 0.203928
        28        26        27        44     9        0.000000       -0.131588         1    ;  uncertainty k = 0.269112
        28        26        27        44     9      180.000000        8.277165         2    ;  uncertainty k = 0.207547
        28        26        27        44     9        0.000000        0.678756         3    ;  uncertainty k = 0.124696
        28        26        27        44     9      180.000000        1.091123         4    ;  uncertainty k = 0.155341
        32         8         9        33     9        0.000000       -0.152652         1    ;  uncertainty k = 0.805688
        32         8         9        33     9      180.000000        5.398109         2    ;  uncertainty k = 0.723628
        32         8         9        33     9        0.000000        0.147471         3    ;  uncertainty k = 0.248173
        32         8         9        33     9      180.000000        0.216442         4    ;  uncertainty k = 0.153410
        36        15        16        37     9        0.000000       -0.307962         1    ;  uncertainty k = 0.440104
        36        15        16        37     9      180.000000        6.502708         2    ;  uncertainty k = 0.379417
        36        15        16        37     9        0.000000       -0.130867         3    ;  uncertainty k = 0.246878
        36        15        16        37     9      180.000000        0.283979         4    ;  uncertainty k = 0.141773
        41        23        24        42     9        0.000000       -0.110576         1    ;  uncertainty k = 0.173773
        41        23        24        42     9      180.000000        7.551009         2    ;  uncertainty k = 0.344027
        41        23        24        42     9        0.000000       -0.464158         3    ;  uncertainty k = 0.289315
        41        23        24        42     9      180.000000        0.122974         4    ;  uncertainty k = 0.126281
        42        24        25        43     9        0.000000       -0.090624         1    ;  uncertainty k = 0.061308
        42        24        25        43     9      180.000000        7.513108         2    ;  uncertainty k = 0.411327
        42        24        25        43     9        0.000000       -0.412082         3    ;  uncertainty k = 0.252676
        42        24        25        43     9      180.000000        0.087144         4    ;  uncertainty k = 0.123946

[ dihedrals ] ; impropers
;       ai        aj        ak        al funct           phase               k        pn
         1         2         5        30     4      180.000000        2.538906         2    ;  uncertainty k = 0.373105
         1         5        30         2     4      180.000000        2.538906         2    ;  uncertainty k = 0.373105
         1        30         2         5     4      180.000000        2.538906         2    ;  uncertainty k = 0.373105
         2         1         3        11     4      180.000000       20.656996         2    ;  uncertainty k = 0.063650
         2         3        11         1     4      180.000000       20.656996         2    ;  uncertainty k = 0.063650
         2        11         1         3     4      180.000000       20.656996         2    ;  uncertainty k = 0.063650
         3         2         4        31     4      180.000000        3.162499         2    ;  uncertainty k = 0.348024
         3         4        31         2     4      180.000000        3.162499         2    ;  uncertainty k = 0.348024
         3        31         2         4     4      180.000000        3.162499         2    ;  uncertainty k = 0.348024
         4         3         6        22     4      180.000000       17.780538         2    ;  uncertainty k = 0.112449
         4         6        22         3     4      180.000000       17.780538         2    ;  uncertainty k = 0.112449
         4        22         3         6     4      180.000000       17.780538         2    ;  uncertainty k = 0.112449
         5         1         6        10     4      180.000000       18.452158         2    ;  uncertainty k = 0.055457
         5         6        10         1     4      180.000000       18.452158         2    ;  uncertainty k = 0.055457
         5        10         1         6     4      180.000000       18.452158         2    ;  uncertainty k = 0.055457
         6         4         5         7     4      180.000000       16.639273         2    ;  uncertainty k = 0.073144
         6         5         7         4     4      180.000000       16.639273         2    ;  uncertainty k = 0.073144
         6         7         4         5     4      180.000000       16.639273         2    ;  uncertainty k = 0.073144
         8         7         9        32     4      180.000000       12.058352         2    ;  uncertainty k = 0.155869
         8         9        32         7     4      180.000000       12.058352         2    ;  uncertainty k = 0.155869
         8        32         7         9     4      180.000000       12.058352         2    ;  uncertainty k = 0.155869
         9         8        10        33     4      180.000000       11.948848         2    ;  uncertainty k = 0.101429
         9        10        33         8     4      180.000000       11.948848         2    ;  uncertainty k = 0.101429
         9        33         8        10     4      180.000000       11.948848         2    ;  uncertainty k = 0.101429
        11         2        12        34     4      180.000000        1.379952         2    ;  uncertainty k = 1.192013
        11        12        34         2     4      180.000000        1.379952         2    ;  uncertainty k = 1.192013
        11        34         2        12     4      180.000000        1.379952         2    ;  uncertainty k = 1.192013
        12        11        13        17     4      180.000000       22.010771         2    ;  uncertainty k = 0.077536
        12        13        17        11     4      180.000000       22.010771         2    ;  uncertainty k = 0.077536
        12        17        11        13     4      180.000000       22.010771         2    ;  uncertainty k = 0.077536
        13        12        14        35     4      180.000000       10.900441         2    ;  uncertainty k = 0.192114
        13        14        35        12     4      180.000000       10.900441         2    ;  uncertainty k = 0.192114
        13        35        12        14     4      180.000000       10.900441         2    ;  uncertainty k = 0.192114
        15        14        16        36     4      180.000000       11.385377         2    ;  uncertainty k = 0.107036
        15        16        36        14     4      180.000000       11.385377         2    ;  uncertainty k = 0.107036
        15        36        14        16     4      180.000000       11.385377         2    ;  uncertainty k = 0.107036
        16        15        17        37     4      180.000000        4.322237         2    ;  uncertainty k = 0.262312
        16        17        37        15     4      180.000000        4.322237         2    ;  uncertainty k = 0.262312
        16        37        15        17     4      180.000000        4.322237         2    ;  uncertainty k = 0.262312
        17        12        16        18     4      180.000000        5.945010         2    ;  uncertainty k = 0.459976
        17        16        18        12     4      180.000000        5.945010         2    ;  uncertainty k = 0.459976
        17        18        12        16     4      180.000000        5.945010         2    ;  uncertainty k = 0.459976
        22         4        23        27     4      180.000000       13.766754         2    ;  uncertainty k = 0.196074
        22        23        27         4     4      180.000000       13.766754         2    ;  uncertainty k = 0.196074
        22        27         4        23     4      180.000000       13.766754         2    ;  uncertainty k = 0.196074
        23        22        24        41     4      180.000000        3.341869         2    ;  uncertainty k = 0.085130
        23        24        41        22     4      180.000000        3.341869         2    ;  uncertainty k = 0.085130
        23        41        22        24     4      180.000000        3.341869         2    ;  uncertainty k = 0.085130
        24        23        25        42     4      180.000000        4.405496         2    ;  uncertainty k = 0.096572
        24        25        42        23     4      180.000000        4.405496         2    ;  uncertainty k = 0.096572
        24        42        23        25     4      180.000000        4.405496         2    ;  uncertainty k = 0.096572
        25        24        26        43     4      180.000000        2.302694         2    ;  uncertainty k = 0.258281
        25        26        43        24     4      180.000000        2.302694         2    ;  uncertainty k = 0.258281
        25        43        24        26     4      180.000000        2.302694         2    ;  uncertainty k = 0.258281
        26        25        27        28     4      180.000000       20.157406         2    ;  uncertainty k = 0.060661
        26        27        28        25     4      180.000000       20.157406         2    ;  uncertainty k = 0.060661
        26        28        25        27     4      180.000000       20.157406         2    ;  uncertainty k = 0.060661
        27        22        26        44     4      180.000000        2.695620         2    ;  uncertainty k = 0.162289
        27        26        44        22     4      180.000000        2.695620         2    ;  uncertainty k = 0.162289
        27        44        22        26     4      180.000000        2.695620         2    ;  uncertainty k = 0.162289

[ pairs ]
;       ai        aj funct
         1         4     1
         1         7     1
         1         9     1
         1        12     1
         1        31     1
         1        34     1
         2         6     1
         2        10     1
         2        13     1
         2        17     1
         2        22     1
         3         5     1
         3         7     1
         3        12     1
         3        23     1
         3        27     1
         3        30     1
         3        34     1
         4         8     1
         4        10     1
         4        11     1
         4        24     1
         4        26     1
         4        41     1
         4        44     1
         5         8     1
         5        11     1
         5        22     1
         5        33     1
         6         9     1
         6        23     1
         6        27     1
         6        30     1
         6        31     1
         6        32     1
         7        10     1
         7        22     1
         7        33     1
        10        30     1
        10        32     1
        11        14     1
        11        16     1
        11        18     1
        11        30     1
        11        31     1
        11        35     1
        12        15     1
        12        19     1
        12        20     1
        12        21     1
        12        37     1
        13        16     1
        13        18     1
        13        34     1
        13        36     1
        14        17     1
        14        37     1
        15        18     1
        15        35     1
        16        19     1
        16        20     1
        16        21     1
        17        34     1
        17        35     1
        17        36     1
        17        38     1
        17        39     1
        17        40     1
        18        37     1
        19        38     1
        19        39     1
        19        40     1
        20        38     1
        20        39     1
        20        40     1
        22        25     1
        22        28     1
        22        31     1
        22        42     1
        23        26     1
        23        43     1
        23        44     1
        24        27     1
        24        28     1
        25        29     1
        25        41     1
        25        44     1
        26        42     1
        26        45     1
        26        46     1
        26        47     1
        27        29     1
        27        41     1
        27        43     1
        28        43     1
        28        44     1
        32        33     1
        36        37     1
        41        42     1
        42        43     1
