; ITP file created by ByteFF-joint-25, 2026-02-17 09:24:54.542999

[ atomtypes ]
;name           bonded.type        at.num        mass        charge   ptype           sigma         epsilon
 n0bf                                   7      0.0000       0.00000       A     3.38414e-01     3.93827e-01    ;  uncertainty sigma = 0.000003, epsilon = 0.000862
 n1bf                                   7      0.0000       0.00000       A     3.38415e-01     3.93854e-01    ;  uncertainty sigma = 0.000010, epsilon = 0.001065
 c2bf                                   6      0.0000       0.00000       A     3.31531e-01     4.13177e-01    ;  uncertainty sigma = 0.000013, epsilon = 0.000483
 c3bf                                   6      0.0000       0.00000       A     3.31530e-01     4.13238e-01    ;  uncertainty sigma = 0.000010, epsilon = 0.000599
 c4bf                                   6      0.0000       0.00000       A     3.31519e-01     4.13020e-01    ;  uncertainty sigma = 0.000010, epsilon = 0.001115
 c5bf                                   6      0.0000       0.00000       A     3.31516e-01     4.13470e-01    ;  uncertainty sigma = 0.000011, epsilon = 0.000986
 c6bf                                   6      0.0000       0.00000       A     3.31509e-01     4.13539e-01    ;  uncertainty sigma = 0.000009, epsilon = 0.000465
 c7bf                                   6      0.0000       0.00000       A     3.31555e-01     4.13641e-01    ;  uncertainty sigma = 0.000014, epsilon = 0.001564
 c8bf                                   6      0.0000       0.00000       A     3.31496e-01     4.13470e-01    ;  uncertainty sigma = 0.000006, epsilon = 0.000742
 c9bf                                   6      0.0000       0.00000       A     3.31488e-01     4.12665e-01    ;  uncertainty sigma = 0.000011, epsilon = 0.000854
 c10bf                                  6      0.0000       0.00000       A     3.31492e-01     4.13019e-01    ;  uncertainty sigma = 0.000020, epsilon = 0.000990
 n11bf                                  7      0.0000       0.00000       A     3.27910e-01     6.46645e-01    ;  uncertainty sigma = 0.000045, epsilon = 0.002072
 c12bf                                  6      0.0000       0.00000       A     3.31520e-01     4.13275e-01    ;  uncertainty sigma = 0.000004, epsilon = 0.000572
 c13bf                                  6      0.0000       0.00000       A     3.31527e-01     4.13211e-01    ;  uncertainty sigma = 0.000005, epsilon = 0.000881
 c14bf                                  6      0.0000       0.00000       A     3.31521e-01     4.13082e-01    ;  uncertainty sigma = 0.000007, epsilon = 0.000493
 c15bf                                  6      0.0000       0.00000       A     3.31522e-01     4.13356e-01    ;  uncertainty sigma = 0.000007, epsilon = 0.000813
 c16bf                                  6      0.0000       0.00000       A     3.31520e-01     4.13329e-01    ;  uncertainty sigma = 0.000004, epsilon = 0.000805
 c17bf                                  6      0.0000       0.00000       A     3.31516e-01     4.13261e-01    ;  uncertainty sigma = 0.000006, epsilon = 0.000450
 c18bf                                  6      0.0000       0.00000       A     3.31521e-01     4.12984e-01    ;  uncertainty sigma = 0.000005, epsilon = 0.000844
 n19bf                                  7      0.0000       0.00000       A     3.20630e-01     8.53726e-01    ;  uncertainty sigma = 0.000021, epsilon = 0.000808
 c20bf                                  6      0.0000       0.00000       A     3.39777e-01     4.51126e-01    ;  uncertainty sigma = 0.000006, epsilon = 0.000488
 c21bf                                  6      0.0000       0.00000       A     3.31494e-01     4.12479e-01    ;  uncertainty sigma = 0.000015, epsilon = 0.001164
 c22bf                                  6      0.0000       0.00000       A     3.31521e-01     4.13592e-01    ;  uncertainty sigma = 0.000009, epsilon = 0.000412
 c23bf                                  6      0.0000       0.00000       A     3.31521e-01     4.13458e-01    ;  uncertainty sigma = 0.000003, epsilon = 0.000528
 c24bf                                  6      0.0000       0.00000       A     3.31514e-01     4.13456e-01    ;  uncertainty sigma = 0.000005, epsilon = 0.000679
 c25bf                                  6      0.0000       0.00000       A     3.31520e-01     4.13332e-01    ;  uncertainty sigma = 0.000006, epsilon = 0.000590
 c26bf                                  6      0.0000       0.00000       A     3.31524e-01     4.12557e-01    ;  uncertainty sigma = 0.000023, epsilon = 0.000947
 c27bf                                  6      0.0000       0.00000       A     3.47926e-01     6.68165e-01    ;  uncertainty sigma = 0.000021, epsilon = 0.001695
 n28bf                                  7      0.0000       0.00000       A     3.27368e-01     4.60016e-01    ;  uncertainty sigma = 0.000030, epsilon = 0.000469
 h29bf                                  1      0.0000       0.00000       A     2.53628e-01     6.69334e-02    ;  uncertainty sigma = 0.000020, epsilon = 0.000763
 h30bf                                  1      0.0000       0.00000       A     2.53628e-01     6.69334e-02    ;  uncertainty sigma = 0.000020, epsilon = 0.000763
 h31bf                                  1      0.0000       0.00000       A     2.62540e-01     6.71221e-02    ;  uncertainty sigma = 0.000022, epsilon = 0.000645
 h32bf                                  1      0.0000       0.00000       A     2.62566e-01     6.71159e-02    ;  uncertainty sigma = 0.000015, epsilon = 0.000400
 h33bf                                  1      0.0000       0.00000       A     1.10689e-01     4.10395e-02    ;  uncertainty sigma = 0.000110, epsilon = 0.001803
 h34bf                                  1      0.0000       0.00000       A     2.62563e-01     6.70733e-02    ;  uncertainty sigma = 0.000010, epsilon = 0.000583
 h35bf                                  1      0.0000       0.00000       A     2.62569e-01     6.69122e-02    ;  uncertainty sigma = 0.000009, epsilon = 0.000334
 h36bf                                  1      0.0000       0.00000       A     2.62578e-01     6.73015e-02    ;  uncertainty sigma = 0.000018, epsilon = 0.000492
 h37bf                                  1      0.0000       0.00000       A     2.62543e-01     6.72781e-02    ;  uncertainty sigma = 0.000012, epsilon = 0.000446
 h38bf                                  1      0.0000       0.00000       A     2.53669e-01     6.69808e-02    ;  uncertainty sigma = 0.000019, epsilon = 0.000693
 h39bf                                  1      0.0000       0.00000       A     2.42192e-01     8.67346e-02    ;  uncertainty sigma = 0.000017, epsilon = 0.000545
 h40bf                                  1      0.0000       0.00000       A     2.42192e-01     8.67346e-02    ;  uncertainty sigma = 0.000017, epsilon = 0.000545
 h41bf                                  1      0.0000       0.00000       A     2.42192e-01     8.67346e-02    ;  uncertainty sigma = 0.000017, epsilon = 0.000545
 h42bf                                  1      0.0000       0.00000       A     2.62558e-01     6.70763e-02    ;  uncertainty sigma = 0.000012, epsilon = 0.000421
 h43bf                                  1      0.0000       0.00000       A     2.62557e-01     6.69914e-02    ;  uncertainty sigma = 0.000012, epsilon = 0.000478
 h44bf                                  1      0.0000       0.00000       A     2.62558e-01     6.70324e-02    ;  uncertainty sigma = 0.000010, epsilon = 0.000442
 h45bf                                  1      0.0000       0.00000       A     2.62568e-01     6.70079e-02    ;  uncertainty sigma = 0.000013, epsilon = 0.000560

[ moleculetype ]
;name             nrexcl
 MOL                   3

[ atoms ]
;       nr            type      resi   res      atom      cgnr      charge          mass ; qtot
         1            n0bf         1   UNL        n0         1    -0.62862       14.0070 ; qtot   -0.629
         2            n1bf         1   UNL        n1         2    -0.61815       14.0070 ; qtot   -1.247
         3            c2bf         1   UNL        c2         3     0.29560       12.0110 ; qtot   -0.951
         4            c3bf         1   UNL        c3         4     0.29621       12.0110 ; qtot   -0.655
         5            c4bf         1   UNL        c4         5     0.27545       12.0110 ; qtot   -0.380
         6            c5bf         1   UNL        c5         6     0.32361       12.0110 ; qtot   -0.056
         7            c6bf         1   UNL        c6         7    -0.22949       12.0110 ; qtot   -0.285
         8            c7bf         1   UNL        c7         8     0.18065       12.0110 ; qtot   -0.105
         9            c8bf         1   UNL        c8         9    -0.16337       12.0110 ; qtot   -0.268
        10            c9bf         1   UNL        c9        10    -0.02411       12.0110 ; qtot   -0.292
        11           c10bf         1   UNL       c10        11    -0.02479       12.0110 ; qtot   -0.317
        12           n11bf         1   UNL       n11        12    -0.65056       14.0070 ; qtot   -0.968
        13           c12bf         1   UNL       c12        13    -0.13841       12.0110 ; qtot   -1.106
        14           c13bf         1   UNL       c13        14    -0.08699       12.0110 ; qtot   -1.193
        15           c14bf         1   UNL       c14        15    -0.12505       12.0110 ; qtot   -1.318
        16           c15bf         1   UNL       c15        16    -0.05127       12.0110 ; qtot   -1.369
        17           c16bf         1   UNL       c16        17    -0.09144       12.0110 ; qtot   -1.461
        18           c17bf         1   UNL       c17        18    -0.19068       12.0110 ; qtot   -1.651
        19           c18bf         1   UNL       c18        19    -0.10251       12.0110 ; qtot   -1.754
        20           n19bf         1   UNL       n19        20    -0.07889       14.0070 ; qtot   -1.833
        21           c20bf         1   UNL       c20        21     0.03587       12.0110 ; qtot   -1.797
        22           c21bf         1   UNL       c21        22     0.21721       12.0110 ; qtot   -1.580
        23           c22bf         1   UNL       c22        23    -0.18988       12.0110 ; qtot   -1.770
        24           c23bf         1   UNL       c23        24    -0.06813       12.0110 ; qtot   -1.838
        25           c24bf         1   UNL       c24        25    -0.16525       12.0110 ; qtot   -2.003
        26           c25bf         1   UNL       c25        26    -0.05650       12.0110 ; qtot   -2.059
        27           c26bf         1   UNL       c26        27    -0.08314       12.0110 ; qtot   -2.143
        28           c27bf         1   UNL       c27        28     0.24225       12.0110 ; qtot   -1.900
        29           n28bf         1   UNL       n28        29    -0.37872       14.0070 ; qtot   -2.279
        30           h29bf         1   UNL       h29        30     0.03380        1.0080 ; qtot   -2.245
        31           h30bf         1   UNL       h30        31     0.03331        1.0080 ; qtot   -2.212
        32           h31bf         1   UNL       h31        32     0.15776        1.0080 ; qtot   -2.054
        33           h32bf         1   UNL       h32        33     0.14719        1.0080 ; qtot   -1.907
        34           h33bf         1   UNL       h33        34     0.45458        1.0080 ; qtot   -1.452
        35           h34bf         1   UNL       h34        35     0.13697        1.0080 ; qtot   -1.315
        36           h35bf         1   UNL       h35        36     0.13662        1.0080 ; qtot   -1.179
        37           h36bf         1   UNL       h36        37     0.13971        1.0080 ; qtot   -1.039
        38           h37bf         1   UNL       h37        38     0.15551        1.0080 ; qtot   -0.884
        39           h38bf         1   UNL       h38        39     0.16110        1.0080 ; qtot   -0.723
        40           h39bf         1   UNL       h39        40     0.04975        1.0080 ; qtot   -0.673
        41           h40bf         1   UNL       h40        41     0.04975        1.0080 ; qtot   -0.623
        42           h41bf         1   UNL       h41        42     0.04975        1.0080 ; qtot   -0.573
        43           h42bf         1   UNL       h42        43     0.14864        1.0080 ; qtot   -0.425
        44           h43bf         1   UNL       h43        44     0.13354        1.0080 ; qtot   -0.291
        45           h44bf         1   UNL       h44        45     0.14560        1.0080 ; qtot   -0.146
        46           h45bf         1   UNL       h45        46     0.14552        1.0080 ; qtot   -0.000

[ bonds ]
;       ai        aj funct               r               k
         1         4     1        0.131606   448635.018164    ;  uncertainty r = 0.000067, k = 6.059825
         1         6     1        0.136382   355171.598340    ;  uncertainty r = 0.000057, k = 8.738537
         2         3     1        0.131584   437137.956152    ;  uncertainty r = 0.000061, k = 11.801020
         2         5     1        0.135767   353109.910889    ;  uncertainty r = 0.000088, k = 12.675257
         3         4     1        0.141378   325245.374902    ;  uncertainty r = 0.000067, k = 16.241050
         3        30     1        0.109180   341408.015723    ;  uncertainty r = 0.000031, k = 1.111515
         4        31     1        0.109175   341608.201123    ;  uncertainty r = 0.000026, k = 2.358967
         5         6     1        0.142995   298655.574805    ;  uncertainty r = 0.000072, k = 15.498955
         5        10     1        0.143085   310245.259912    ;  uncertainty r = 0.000128, k = 17.466661
         6         7     1        0.141431   396079.468311    ;  uncertainty r = 0.000094, k = 15.205662
         7         8     1        0.138877   382001.855859    ;  uncertainty r = 0.000134, k = 8.822406
         7        32     1        0.108811   340366.765625    ;  uncertainty r = 0.000031, k = 1.855832
         8         9     1        0.142130   350389.851221    ;  uncertainty r = 0.000225, k = 14.491750
         8        12     1        0.141114   346772.851660    ;  uncertainty r = 0.000112, k = 15.591934
         9        10     1        0.138000   347495.985986    ;  uncertainty r = 0.000143, k = 17.234330
         9        33     1        0.108883   338510.243311    ;  uncertainty r = 0.000020, k = 3.739130
        10        11     1        0.148137   283751.887939    ;  uncertainty r = 0.000105, k = 15.453595
        11        13     1        0.141773   332885.056543    ;  uncertainty r = 0.000129, k = 5.382942
        11        15     1        0.139578   348941.182080    ;  uncertainty r = 0.000096, k = 3.247030
        12        22     1        0.139655   338956.019092    ;  uncertainty r = 0.000174, k = 17.833025
        12        34     1        0.101486   412607.008887    ;  uncertainty r = 0.000081, k = 2.505506
        13        14     1        0.138795   364168.858252    ;  uncertainty r = 0.000031, k = 1.854511
        13        35     1        0.108772   335281.458887    ;  uncertainty r = 0.000023, k = 2.010192
        14        17     1        0.140496   366588.397217    ;  uncertainty r = 0.000029, k = 1.524532
        14        36     1        0.108842   335262.663574    ;  uncertainty r = 0.000021, k = 1.243212
        15        16     1        0.139638   360882.589795    ;  uncertainty r = 0.000073, k = 8.112547
        15        37     1        0.108815   335784.310107    ;  uncertainty r = 0.000035, k = 1.319558
        16        17     1        0.142478   370413.064551    ;  uncertainty r = 0.000021, k = 8.656138
        16        20     1        0.138409   299089.858887    ;  uncertainty r = 0.000058, k = 4.369587
        17        18     1        0.143851   263887.924023    ;  uncertainty r = 0.000049, k = 9.849667
        18        19     1        0.137643   438880.659570    ;  uncertainty r = 0.000039, k = 2.390634
        18        38     1        0.108258   339903.777832    ;  uncertainty r = 0.000020, k = 1.257353
        19        20     1        0.138800   299198.136230    ;  uncertainty r = 0.000053, k = 11.566369
        19        39     1        0.108278   339863.020605    ;  uncertainty r = 0.000024, k = 2.230051
        20        21     1        0.145040   254644.665137    ;  uncertainty r = 0.000030, k = 4.755567
        21        40     1        0.109426   310040.631055    ;  uncertainty r = 0.000012, k = 1.344889
        21        41     1        0.109426   310040.631055    ;  uncertainty r = 0.000012, k = 1.344889
        21        42     1        0.109426   310040.631055    ;  uncertainty r = 0.000012, k = 1.344889
        22        23     1        0.140521   346572.845020    ;  uncertainty r = 0.000040, k = 4.635741
        22        27     1        0.141782   331784.943408    ;  uncertainty r = 0.000087, k = 9.860333
        23        24     1        0.139065   372933.934766    ;  uncertainty r = 0.000058, k = 2.604740
        23        43     1        0.108779   337134.380469    ;  uncertainty r = 0.000018, k = 1.419075
        24        25     1        0.139916   370816.933936    ;  uncertainty r = 0.000042, k = 2.487351
        24        44     1        0.108797   333140.172266    ;  uncertainty r = 0.000018, k = 0.818619
        25        26     1        0.138922   371220.573486    ;  uncertainty r = 0.000047, k = 2.280727
        25        45     1        0.108749   333692.412256    ;  uncertainty r = 0.000024, k = 1.125795
        26        27     1        0.140679   358024.399902    ;  uncertainty r = 0.000053, k = 6.816182
        26        46     1        0.108619   331489.887646    ;  uncertainty r = 0.000008, k = 0.547262
        27        28     1        0.143219   319435.886816    ;  uncertainty r = 0.000049, k = 5.694471
        28        29     1        0.116784  1129512.272266    ;  uncertainty r = 0.000023, k = 1.971965

[ angles ]
;       ai        aj        ak funct           theta             cth
         1         4         3     1      120.931259      612.842998    ;  uncertainty theta = 0.002470, k = 0.239695
         1         4        31     1      116.754013      350.159800    ;  uncertainty theta = 0.001533, k = 0.075385
         1         6         5     1      119.243858      555.279545    ;  uncertainty theta = 0.007472, k = 0.086369
         1         6         7     1      122.312637      528.712460    ;  uncertainty theta = 0.003351, k = 0.210334
         2         3         4     1      121.240555      622.447314    ;  uncertainty theta = 0.002919, k = 0.205880
         2         3        30     1      116.813477      347.959523    ;  uncertainty theta = 0.001638, k = 0.087624
         2         5         6     1      119.722855      514.456656    ;  uncertainty theta = 0.004269, k = 0.061579
         2         5        10     1      118.059143      466.719084    ;  uncertainty theta = 0.004200, k = 0.232797
         3         2         5     1      116.502525      472.887509    ;  uncertainty theta = 0.004302, k = 0.130226
         3         4        31     1      121.868530      283.534439    ;  uncertainty theta = 0.002376, k = 0.096063
         4         1         6     1      114.458984      488.266211    ;  uncertainty theta = 0.001996, k = 0.147683
         4         3        30     1      121.994606      282.804174    ;  uncertainty theta = 0.002439, k = 0.090842
         5         6         7     1      119.517235      392.036829    ;  uncertainty theta = 0.005326, k = 0.191059
         5        10         9     1      121.234207      456.906322    ;  uncertainty theta = 0.004548, k = 0.137789
         5        10        11     1      119.335999      396.188588    ;  uncertainty theta = 0.004435, k = 0.267308
         6         5        10     1      120.727844      398.377566    ;  uncertainty theta = 0.005688, k = 0.083900
         6         7         8     1      118.279381      519.510258    ;  uncertainty theta = 0.002541, k = 0.067684
         6         7        32     1      120.837975      275.673543    ;  uncertainty theta = 0.003390, k = 0.103596
         7         8         9     1      119.296326      389.106478    ;  uncertainty theta = 0.003981, k = 0.081676
         7         8        12     1      121.834328      504.270733    ;  uncertainty theta = 0.004438, k = 0.185699
         8         7        32     1      121.496750      269.964307    ;  uncertainty theta = 0.001027, k = 0.149329
         8         9        10     1      122.407822      516.136902    ;  uncertainty theta = 0.004570, k = 0.263630
         8         9        33     1      119.455521      285.607797    ;  uncertainty theta = 0.005240, k = 0.143728
         8        12        22     1      116.184303      363.984697    ;  uncertainty theta = 0.006528, k = 0.226798
         8        12        34     1      114.053207      381.372660    ;  uncertainty theta = 0.006784, k = 0.085785
         9         8        12     1      120.062096      500.529546    ;  uncertainty theta = 0.003409, k = 0.352233
         9        10        11     1      121.228798      423.141060    ;  uncertainty theta = 0.002961, k = 0.156452
        10         9        33     1      118.704933      277.851890    ;  uncertainty theta = 0.005306, k = 0.050256
        10        11        13     1      119.939163      397.252847    ;  uncertainty theta = 0.003248, k = 0.114582
        10        11        15     1      119.830284      387.483850    ;  uncertainty theta = 0.002251, k = 0.190078
        11        13        14     1      122.513977      519.825227    ;  uncertainty theta = 0.002504, k = 0.082970
        11        13        35     1      118.705055      283.822275    ;  uncertainty theta = 0.003481, k = 0.052326
        11        15        16     1      118.386093      529.920716    ;  uncertainty theta = 0.003401, k = 0.180792
        11        15        37     1      120.176918      276.179305    ;  uncertainty theta = 0.003371, k = 0.099806
        12        22        23     1      121.242271      481.830700    ;  uncertainty theta = 0.004179, k = 0.278322
        12        22        27     1      118.165329      527.883653    ;  uncertainty theta = 0.007491, k = 0.069683
        13        11        15     1      122.892189      427.495488    ;  uncertainty theta = 0.004657, k = 0.054030
        13        14        17     1      119.126968      545.225329    ;  uncertainty theta = 0.002014, k = 0.075473
        13        14        36     1      120.552231      281.882188    ;  uncertainty theta = 0.001756, k = 0.032676
        14        13        35     1      119.644821      296.182874    ;  uncertainty theta = 0.002811, k = 0.056212
        14        17        16     1      116.316528      401.555212    ;  uncertainty theta = 0.003524, k = 0.104666
        14        17        18     1      133.137314      372.613048    ;  uncertainty theta = 0.003601, k = 0.161997
        15        16        17     1      122.096420      362.937197    ;  uncertainty theta = 0.001381, k = 0.132828
        15        16        20     1      127.554398      386.261548    ;  uncertainty theta = 0.001561, k = 0.197527
        16        15        37     1      122.049515      289.470477    ;  uncertainty theta = 0.001404, k = 0.108597
        16        17        18     1      106.331848      697.004628    ;  uncertainty theta = 0.002119, k = 0.268284
        16        20        19     1      107.260864      818.300726    ;  uncertainty theta = 0.002708, k = 0.112517
        16        20        21     1      120.714661      413.315913    ;  uncertainty theta = 0.003757, k = 0.146507
        17        14        36     1      121.660202      297.421073    ;  uncertainty theta = 0.001725, k = 0.098896
        17        16        20     1      108.699356      659.259248    ;  uncertainty theta = 0.001396, k = 0.199015
        17        18        19     1      106.600060      811.238758    ;  uncertainty theta = 0.002477, k = 0.071833
        17        18        38     1      125.357811      254.842571    ;  uncertainty theta = 0.003088, k = 0.059342
        18        19        20     1      111.357628      756.000331    ;  uncertainty theta = 0.002253, k = 0.100899
        18        19        39     1      128.154099      239.476972    ;  uncertainty theta = 0.003447, k = 0.106541
        19        18        38     1      123.663986      251.202927    ;  uncertainty theta = 0.003182, k = 0.069917
        19        20        21     1      121.539627      391.310362    ;  uncertainty theta = 0.002440, k = 0.111857
        20        19        39     1      117.041054      288.340843    ;  uncertainty theta = 0.001716, k = 0.115275
        20        21        40     1      109.087296      471.938965    ;  uncertainty theta = 0.000901, k = 0.078971
        20        21        41     1      109.087296      471.938965    ;  uncertainty theta = 0.000901, k = 0.078971
        20        21        42     1      109.087296      471.938965    ;  uncertainty theta = 0.000901, k = 0.078971
        22        12        34     1      114.185867      379.729826    ;  uncertainty theta = 0.005957, k = 0.068343
        22        23        24     1      119.846878      526.986949    ;  uncertainty theta = 0.004484, k = 0.116222
        22        23        43     1      118.854660      263.861927    ;  uncertainty theta = 0.001430, k = 0.115604
        22        27        26     1      123.154068      445.731921    ;  uncertainty theta = 0.004707, k = 0.076601
        22        27        28     1      116.250893      374.631278    ;  uncertainty theta = 0.005070, k = 0.289117
        23        22        27     1      120.574448      385.349043    ;  uncertainty theta = 0.008091, k = 0.166102
        23        24        25     1      119.770142      515.475810    ;  uncertainty theta = 0.001147, k = 0.057613
        23        24        44     1      119.708595      280.665984    ;  uncertainty theta = 0.001514, k = 0.041520
        24        23        43     1      121.219681      298.476011    ;  uncertainty theta = 0.001430, k = 0.049547
        24        25        26     1      118.057144      521.501163    ;  uncertainty theta = 0.001371, k = 0.065800
        24        25        45     1      120.955666      288.978919    ;  uncertainty theta = 0.001872, k = 0.033193
        25        24        44     1      120.521523      285.659446    ;  uncertainty theta = 0.001133, k = 0.039048
        25        26        27     1      121.415543      499.980658    ;  uncertainty theta = 0.002129, k = 0.179894
        25        26        46     1      120.906799      283.528566    ;  uncertainty theta = 0.001444, k = 0.058318
        26        25        45     1      120.158691      288.456653    ;  uncertainty theta = 0.002373, k = 0.037769
        26        27        28     1      119.779015      390.136868    ;  uncertainty theta = 0.001776, k = 0.122412
        27        26        46     1      118.096947      271.114115    ;  uncertainty theta = 0.001926, k = 0.078399
        27        28        29     1      179.447723      237.486275    ;  uncertainty theta = 0.006882, k = 0.702308
        40        21        41     1      107.317055      322.193856    ;  uncertainty theta = 0.001017, k = 0.038184
        40        21        42     1      107.317055      322.193856    ;  uncertainty theta = 0.001017, k = 0.038184
        41        21        42     1      107.317055      322.193856    ;  uncertainty theta = 0.001017, k = 0.038184

[ dihedrals ] ; propers for gromacs 4.5 or higher, use funct 9
;       ai        aj        ak        al funct           phase               k        pn
         1         4         3         2     9        0.000000       -0.202867         1    ;  uncertainty k = 0.782206
         1         4         3         2     9      180.000000       12.112998         2    ;  uncertainty k = 0.805809
         1         4         3         2     9        0.000000       -1.599826         3    ;  uncertainty k = 0.569696
         1         4         3         2     9      180.000000        0.918171         4    ;  uncertainty k = 0.463986
         1         4         3        30     9        0.000000       -0.033262         1    ;  uncertainty k = 0.634831
         1         4         3        30     9      180.000000        6.504271         2    ;  uncertainty k = 1.136879
         1         4         3        30     9        0.000000        0.521237         3    ;  uncertainty k = 0.433609
         1         4         3        30     9      180.000000        1.070757         4    ;  uncertainty k = 0.343719
         1         6         5         2     9        0.000000       -0.400491         1    ;  uncertainty k = 0.890675
         1         6         5         2     9      180.000000        7.087147         2    ;  uncertainty k = 0.720454
         1         6         5         2     9        0.000000        0.077638         3    ;  uncertainty k = 0.327161
         1         6         5         2     9      180.000000        1.330895         4    ;  uncertainty k = 0.356326
         1         6         5        10     9        0.000000       -0.297577         1    ;  uncertainty k = 0.701970
         1         6         5        10     9      180.000000        5.014357         2    ;  uncertainty k = 1.176011
         1         6         5        10     9        0.000000        0.093990         3    ;  uncertainty k = 0.371276
         1         6         5        10     9      180.000000        1.323525         4    ;  uncertainty k = 0.229333
         1         6         7         8     9        0.000000        0.127554         1    ;  uncertainty k = 0.442476
         1         6         7         8     9      180.000000        9.823443         2    ;  uncertainty k = 0.375803
         1         6         7         8     9        0.000000        0.572009         3    ;  uncertainty k = 0.284394
         1         6         7         8     9      180.000000        1.386361         4    ;  uncertainty k = 0.238577
         1         6         7        32     9        0.000000        0.139926         1    ;  uncertainty k = 0.233388
         1         6         7        32     9      180.000000        8.199300         2    ;  uncertainty k = 0.492394
         1         6         7        32     9        0.000000        1.032825         3    ;  uncertainty k = 0.329116
         1         6         7        32     9      180.000000        1.219854         4    ;  uncertainty k = 0.291231
         2         3         4        31     9        0.000000        0.036888         1    ;  uncertainty k = 0.700690
         2         3         4        31     9      180.000000        6.513922         2    ;  uncertainty k = 1.135263
         2         3         4        31     9        0.000000        0.521732         3    ;  uncertainty k = 0.385189
         2         3         4        31     9      180.000000        1.117821         4    ;  uncertainty k = 0.330143
         2         5         6         7     9        0.000000        0.076453         1    ;  uncertainty k = 0.284768
         2         5         6         7     9      180.000000        6.080418         2    ;  uncertainty k = 1.149878
         2         5         6         7     9        0.000000        0.106983         3    ;  uncertainty k = 0.156573
         2         5         6         7     9      180.000000        1.373586         4    ;  uncertainty k = 0.405208
         2         5        10         9     9        0.000000        0.261322         1    ;  uncertainty k = 0.518994
         2         5        10         9     9      180.000000        6.885067         2    ;  uncertainty k = 0.805625
         2         5        10         9     9        0.000000        0.373938         3    ;  uncertainty k = 0.290823
         2         5        10         9     9      180.000000        1.164313         4    ;  uncertainty k = 0.349613
         2         5        10        11     9        0.000000        0.205608         1    ;  uncertainty k = 1.297119
         2         5        10        11     9      180.000000        7.137752         2    ;  uncertainty k = 0.766265
         2         5        10        11     9        0.000000        0.773424         3    ;  uncertainty k = 0.512634
         2         5        10        11     9      180.000000        1.176774         4    ;  uncertainty k = 0.263388
         3         2         5         6     9        0.000000       -0.112022         1    ;  uncertainty k = 0.910116
         3         2         5         6     9      180.000000       11.596635         2    ;  uncertainty k = 0.629166
         3         2         5         6     9        0.000000        1.457658         3    ;  uncertainty k = 0.287217
         3         2         5         6     9      180.000000        1.330866         4    ;  uncertainty k = 0.318778
         3         2         5        10     9        0.000000       -0.230726         1    ;  uncertainty k = 0.542095
         3         2         5        10     9      180.000000       12.457805         2    ;  uncertainty k = 0.567635
         3         2         5        10     9        0.000000        2.051214         3    ;  uncertainty k = 0.352155
         3         2         5        10     9      180.000000        1.316225         4    ;  uncertainty k = 0.190863
         3         4         1         6     9        0.000000        0.013311         1    ;  uncertainty k = 0.131653
         3         4         1         6     9      180.000000       17.231919         2    ;  uncertainty k = 0.196673
         3         4         1         6     9        0.000000        0.888029         3    ;  uncertainty k = 0.629563
         3         4         1         6     9      180.000000        1.519865         4    ;  uncertainty k = 0.234840
         4         1         6         5     9        0.000000       -0.063178         1    ;  uncertainty k = 1.326753
         4         1         6         5     9      180.000000       10.095140         2    ;  uncertainty k = 0.612696
         4         1         6         5     9        0.000000        1.278116         3    ;  uncertainty k = 0.488030
         4         1         6         5     9      180.000000        1.281713         4    ;  uncertainty k = 0.220795
         4         1         6         7     9        0.000000        0.427931         1    ;  uncertainty k = 1.029214
         4         1         6         7     9      180.000000       12.638433         2    ;  uncertainty k = 0.318598
         4         1         6         7     9        0.000000        2.227131         3    ;  uncertainty k = 0.470955
         4         1         6         7     9      180.000000        1.437848         4    ;  uncertainty k = 0.260470
         4         3         2         5     9        0.000000        0.020379         1    ;  uncertainty k = 0.368422
         4         3         2         5     9      180.000000       16.581263         2    ;  uncertainty k = 0.335688
         4         3         2         5     9        0.000000        0.829257         3    ;  uncertainty k = 0.750676
         4         3         2         5     9      180.000000        1.566270         4    ;  uncertainty k = 0.253963
         5         2         3        30     9        0.000000        0.275901         1    ;  uncertainty k = 0.531875
         5         2         3        30     9      180.000000       18.156242         2    ;  uncertainty k = 0.522835
         5         2         3        30     9        0.000000        2.344021         3    ;  uncertainty k = 0.655907
         5         2         3        30     9      180.000000        1.633483         4    ;  uncertainty k = 0.415921
         5         6         7         8     9        0.000000        0.096007         1    ;  uncertainty k = 0.404401
         5         6         7         8     9      180.000000        7.191109         2    ;  uncertainty k = 0.788007
         5         6         7         8     9        0.000000        0.054347         3    ;  uncertainty k = 0.305039
         5         6         7         8     9      180.000000        1.298492         4    ;  uncertainty k = 0.269139
         5         6         7        32     9        0.000000       -0.216754         1    ;  uncertainty k = 0.343874
         5         6         7        32     9      180.000000        5.853915         2    ;  uncertainty k = 0.879792
         5         6         7        32     9        0.000000        1.199032         3    ;  uncertainty k = 0.162615
         5         6         7        32     9      180.000000        1.246406         4    ;  uncertainty k = 0.338414
         5        10         9         8     9        0.000000        0.006981         1    ;  uncertainty k = 0.551457
         5        10         9         8     9      180.000000       12.471965         2    ;  uncertainty k = 0.425356
         5        10         9         8     9        0.000000        0.358040         3    ;  uncertainty k = 0.232192
         5        10         9         8     9      180.000000        1.279601         4    ;  uncertainty k = 0.332572
         5        10         9        33     9        0.000000        0.123738         1    ;  uncertainty k = 0.256832
         5        10         9        33     9      180.000000        9.582771         2    ;  uncertainty k = 0.350597
         5        10         9        33     9        0.000000        1.473211         3    ;  uncertainty k = 0.141254
         5        10         9        33     9      180.000000        1.670290         4    ;  uncertainty k = 0.172670
         5        10        11        13     9        0.000000        0.294934         1    ;  uncertainty k = 0.682343
         5        10        11        13     9      180.000000        5.135222         2    ;  uncertainty k = 0.368550
         5        10        11        13     9        0.000000        0.449391         3    ;  uncertainty k = 0.368548
         5        10        11        13     9      180.000000        0.735448         4    ;  uncertainty k = 0.087901
         5        10        11        15     9        0.000000       -0.139301         1    ;  uncertainty k = 0.564767
         5        10        11        15     9      180.000000        5.053883         2    ;  uncertainty k = 0.350243
         5        10        11        15     9        0.000000        0.265394         3    ;  uncertainty k = 0.358781
         5        10        11        15     9      180.000000        0.716032         4    ;  uncertainty k = 0.142482
         6         1         4        31     9        0.000000        0.424413         1    ;  uncertainty k = 0.517708
         6         1         4        31     9      180.000000       19.045700         2    ;  uncertainty k = 0.443936
         6         1         4        31     9        0.000000        2.354563         3    ;  uncertainty k = 0.582720
         6         1         4        31     9      180.000000        1.407430         4    ;  uncertainty k = 0.336466
         6         5        10         9     9        0.000000       -0.064269         1    ;  uncertainty k = 0.482879
         6         5        10         9     9      180.000000        5.815076         2    ;  uncertainty k = 0.996902
         6         5        10         9     9        0.000000        0.060037         3    ;  uncertainty k = 0.264413
         6         5        10         9     9      180.000000        1.005082         4    ;  uncertainty k = 0.332027
         6         5        10        11     9        0.000000        0.163368         1    ;  uncertainty k = 0.742862
         6         5        10        11     9      180.000000        4.925991         2    ;  uncertainty k = 0.482653
         6         5        10        11     9        0.000000        1.071668         3    ;  uncertainty k = 0.234644
         6         5        10        11     9      180.000000        1.265584         4    ;  uncertainty k = 0.346238
         6         7         8         9     9        0.000000       -0.210327         1    ;  uncertainty k = 0.221415
         6         7         8         9     9      180.000000        9.569195         2    ;  uncertainty k = 0.280244
         6         7         8         9     9        0.000000        0.345413         3    ;  uncertainty k = 0.487384
         6         7         8         9     9      180.000000        1.381198         4    ;  uncertainty k = 0.295975
         6         7         8        12     9        0.000000       -0.096430         1    ;  uncertainty k = 0.506937
         6         7         8        12     9      180.000000       10.942815         2    ;  uncertainty k = 0.422026
         6         7         8        12     9        0.000000        0.972961         3    ;  uncertainty k = 0.162873
         6         7         8        12     9      180.000000        1.602908         4    ;  uncertainty k = 0.126237
         7         6         5        10     9        0.000000       -0.713079         1    ;  uncertainty k = 0.521881
         7         6         5        10     9      180.000000        4.611686         2    ;  uncertainty k = 1.535208
         7         6         5        10     9        0.000000        0.274757         3    ;  uncertainty k = 0.299130
         7         6         5        10     9      180.000000        1.240052         4    ;  uncertainty k = 0.359772
         7         8         9        10     9        0.000000       -0.078018         1    ;  uncertainty k = 0.348964
         7         8         9        10     9      180.000000        6.080120         2    ;  uncertainty k = 0.993866
         7         8         9        10     9        0.000000        0.319932         3    ;  uncertainty k = 0.208169
         7         8         9        10     9      180.000000        1.351336         4    ;  uncertainty k = 0.324166
         7         8         9        33     9        0.000000        0.279785         1    ;  uncertainty k = 0.392102
         7         8         9        33     9      180.000000        5.890655         2    ;  uncertainty k = 0.873685
         7         8         9        33     9        0.000000        1.148917         3    ;  uncertainty k = 0.157963
         7         8         9        33     9      180.000000        1.431758         4    ;  uncertainty k = 0.266041
         7         8        12        22     9        0.000000        2.030876         1    ;  uncertainty k = 0.540518
         7         8        12        22     9      180.000000        5.554635         2    ;  uncertainty k = 0.202836
         7         8        12        22     9        0.000000        0.149588         3    ;  uncertainty k = 0.342250
         7         8        12        22     9      180.000000        0.181599         4    ;  uncertainty k = 0.098902
         7         8        12        34     9        0.000000        3.762342         1    ;  uncertainty k = 0.588968
         7         8        12        34     9      180.000000        4.985616         2    ;  uncertainty k = 0.129750
         7         8        12        34     9        0.000000        0.578137         3    ;  uncertainty k = 0.201195
         7         8        12        34     9      180.000000       -0.085705         4    ;  uncertainty k = 0.086270
         8         9        10        11     9        0.000000        0.179557         1    ;  uncertainty k = 0.200703
         8         9        10        11     9      180.000000       10.382176         2    ;  uncertainty k = 0.629278
         8         9        10        11     9        0.000000        1.348588         3    ;  uncertainty k = 0.270664
         8         9        10        11     9      180.000000        1.717172         4    ;  uncertainty k = 0.289726
         8        12        22        23     9        0.000000        2.676671         1    ;  uncertainty k = 0.503748
         8        12        22        23     9      180.000000        6.168572         2    ;  uncertainty k = 0.378099
         8        12        22        23     9        0.000000        0.219158         3    ;  uncertainty k = 0.112748
         8        12        22        23     9      180.000000        0.126629         4    ;  uncertainty k = 0.099715
         8        12        22        27     9        0.000000        1.987382         1    ;  uncertainty k = 1.231157
         8        12        22        27     9      180.000000        7.219116         2    ;  uncertainty k = 0.470735
         8        12        22        27     9        0.000000        0.262162         3    ;  uncertainty k = 0.302668
         8        12        22        27     9      180.000000        0.164264         4    ;  uncertainty k = 0.117373
         9         8         7        32     9        0.000000        0.302306         1    ;  uncertainty k = 0.413094
         9         8         7        32     9      180.000000        6.971491         2    ;  uncertainty k = 0.620661
         9         8         7        32     9        0.000000        1.306449         3    ;  uncertainty k = 0.108480
         9         8         7        32     9      180.000000        1.631809         4    ;  uncertainty k = 0.154302
         9         8        12        22     9        0.000000        2.030102         1    ;  uncertainty k = 0.648937
         9         8        12        22     9      180.000000        5.749822         2    ;  uncertainty k = 0.212653
         9         8        12        22     9        0.000000        0.625915         3    ;  uncertainty k = 0.241871
         9         8        12        22     9      180.000000        0.138503         4    ;  uncertainty k = 0.104621
         9         8        12        34     9        0.000000        3.426368         1    ;  uncertainty k = 0.600056
         9         8        12        34     9      180.000000        4.982052         2    ;  uncertainty k = 0.575137
         9         8        12        34     9        0.000000        0.640173         3    ;  uncertainty k = 0.261082
         9         8        12        34     9      180.000000       -0.062965         4    ;  uncertainty k = 0.102476
         9        10        11        13     9        0.000000       -0.241236         1    ;  uncertainty k = 0.353963
         9        10        11        13     9      180.000000        5.771563         2    ;  uncertainty k = 0.169727
         9        10        11        13     9        0.000000        0.317160         3    ;  uncertainty k = 0.177141
         9        10        11        13     9      180.000000        0.588639         4    ;  uncertainty k = 0.117338
         9        10        11        15     9        0.000000       -0.358624         1    ;  uncertainty k = 0.397327
         9        10        11        15     9      180.000000        5.522278         2    ;  uncertainty k = 0.163710
         9        10        11        15     9        0.000000        0.471433         3    ;  uncertainty k = 0.101553
         9        10        11        15     9      180.000000        0.524759         4    ;  uncertainty k = 0.136869
        10         9         8        12     9        0.000000        0.351860         1    ;  uncertainty k = 0.831686
        10         9         8        12     9      180.000000        7.524762         2    ;  uncertainty k = 0.576328
        10         9         8        12     9        0.000000        0.819616         3    ;  uncertainty k = 0.247938
        10         9         8        12     9      180.000000        1.614885         4    ;  uncertainty k = 0.124728
        10        11        13        14     9        0.000000        0.106033         1    ;  uncertainty k = 0.347322
        10        11        13        14     9      180.000000        7.741873         2    ;  uncertainty k = 0.677794
        10        11        13        14     9        0.000000        1.125160         3    ;  uncertainty k = 0.437428
        10        11        13        14     9      180.000000        1.837354         4    ;  uncertainty k = 0.142429
        10        11        13        35     9        0.000000       -0.194197         1    ;  uncertainty k = 0.071950
        10        11        13        35     9      180.000000        7.286467         2    ;  uncertainty k = 0.459536
        10        11        13        35     9        0.000000        0.820345         3    ;  uncertainty k = 0.187087
        10        11        13        35     9      180.000000        1.127886         4    ;  uncertainty k = 0.183906
        10        11        15        16     9        0.000000        0.008339         1    ;  uncertainty k = 0.510405
        10        11        15        16     9      180.000000       10.601910         2    ;  uncertainty k = 0.755181
        10        11        15        16     9        0.000000        1.446684         3    ;  uncertainty k = 0.244022
        10        11        15        16     9      180.000000        1.685324         4    ;  uncertainty k = 0.268772
        10        11        15        37     9        0.000000       -0.217859         1    ;  uncertainty k = 0.216539
        10        11        15        37     9      180.000000        7.816293         2    ;  uncertainty k = 0.229990
        10        11        15        37     9        0.000000        0.863299         3    ;  uncertainty k = 0.206756
        10        11        15        37     9      180.000000        1.171828         4    ;  uncertainty k = 0.102501
        11        10         9        33     9        0.000000        0.133921         1    ;  uncertainty k = 0.241848
        11        10         9        33     9      180.000000        8.368022         2    ;  uncertainty k = 0.247908
        11        10         9        33     9        0.000000        1.001196         3    ;  uncertainty k = 0.152989
        11        10         9        33     9      180.000000        1.398313         4    ;  uncertainty k = 0.293350
        11        13        14        17     9        0.000000       -0.088237         1    ;  uncertainty k = 0.303402
        11        13        14        17     9      180.000000       16.637936         2    ;  uncertainty k = 0.333976
        11        13        14        17     9        0.000000       -0.360480         3    ;  uncertainty k = 0.532646
        11        13        14        17     9      180.000000        0.692098         4    ;  uncertainty k = 0.430868
        11        13        14        36     9        0.000000       -0.068872         1    ;  uncertainty k = 0.208186
        11        13        14        36     9      180.000000        8.826761         2    ;  uncertainty k = 0.512391
        11        13        14        36     9        0.000000        1.364386         3    ;  uncertainty k = 0.219988
        11        13        14        36     9      180.000000        1.899722         4    ;  uncertainty k = 0.318555
        11        15        16        17     9        0.000000       -0.149025         1    ;  uncertainty k = 0.543450
        11        15        16        17     9      180.000000       12.121194         2    ;  uncertainty k = 0.115800
        11        15        16        17     9        0.000000       -0.939443         3    ;  uncertainty k = 0.507590
        11        15        16        17     9      180.000000        0.860045         4    ;  uncertainty k = 0.197235
        11        15        16        20     9        0.000000        0.212529         1    ;  uncertainty k = 0.147666
        11        15        16        20     9      180.000000       10.459761         2    ;  uncertainty k = 0.471483
        11        15        16        20     9        0.000000        1.021284         3    ;  uncertainty k = 0.274552
        11        15        16        20     9      180.000000        1.335798         4    ;  uncertainty k = 0.221198
        12         8         7        32     9        0.000000       -0.479110         1    ;  uncertainty k = 0.284203
        12         8         7        32     9      180.000000        8.082708         2    ;  uncertainty k = 0.504202
        12         8         7        32     9        0.000000        0.834471         3    ;  uncertainty k = 0.216992
        12         8         7        32     9      180.000000        1.131017         4    ;  uncertainty k = 0.267203
        12         8         9        33     9        0.000000       -0.290248         1    ;  uncertainty k = 0.296874
        12         8         9        33     9      180.000000        7.112980         2    ;  uncertainty k = 0.404194
        12         8         9        33     9        0.000000        0.815033         3    ;  uncertainty k = 0.189932
        12         8         9        33     9      180.000000        1.127240         4    ;  uncertainty k = 0.194838
        12        22        23        24     9        0.000000        0.187471         1    ;  uncertainty k = 0.423494
        12        22        23        24     9      180.000000        9.327635         2    ;  uncertainty k = 0.614845
        12        22        23        24     9        0.000000        1.098530         3    ;  uncertainty k = 0.236037
        12        22        23        24     9      180.000000        1.694913         4    ;  uncertainty k = 0.202652
        12        22        23        43     9        0.000000       -0.419309         1    ;  uncertainty k = 0.275812
        12        22        23        43     9      180.000000        7.513630         2    ;  uncertainty k = 0.379379
        12        22        23        43     9        0.000000        0.858413         3    ;  uncertainty k = 0.272880
        12        22        23        43     9      180.000000        1.151481         4    ;  uncertainty k = 0.204081
        12        22        27        26     9        0.000000        0.004850         1    ;  uncertainty k = 0.526507
        12        22        27        26     9      180.000000        7.790717         2    ;  uncertainty k = 0.563432
        12        22        27        26     9        0.000000        1.001287         3    ;  uncertainty k = 0.253731
        12        22        27        26     9      180.000000        1.538412         4    ;  uncertainty k = 0.212445
        12        22        27        28     9        0.000000       -0.501879         1    ;  uncertainty k = 0.767404
        12        22        27        28     9      180.000000       10.507858         2    ;  uncertainty k = 0.682770
        12        22        27        28     9        0.000000        0.959830         3    ;  uncertainty k = 0.282589
        12        22        27        28     9      180.000000        1.200950         4    ;  uncertainty k = 0.311734
        13        11        15        16     9        0.000000       -0.053116         1    ;  uncertainty k = 0.278158
        13        11        15        16     9      180.000000       13.312170         2    ;  uncertainty k = 0.270025
        13        11        15        16     9        0.000000       -0.017985         3    ;  uncertainty k = 0.385054
        13        11        15        16     9      180.000000        0.899869         4    ;  uncertainty k = 0.336493
        13        11        15        37     9        0.000000        0.324287         1    ;  uncertainty k = 0.275979
        13        11        15        37     9      180.000000        7.772420         2    ;  uncertainty k = 0.500278
        13        11        15        37     9        0.000000        1.473057         3    ;  uncertainty k = 0.166958
        13        11        15        37     9      180.000000        1.643834         4    ;  uncertainty k = 0.220963
        13        14        17        16     9        0.000000        0.015179         1    ;  uncertainty k = 0.183013
        13        14        17        16     9      180.000000       13.267790         2    ;  uncertainty k = 0.263042
        13        14        17        16     9        0.000000       -1.677047         3    ;  uncertainty k = 0.342200
        13        14        17        16     9      180.000000        0.680122         4    ;  uncertainty k = 0.245766
        13        14        17        18     9        0.000000        0.168080         1    ;  uncertainty k = 0.172639
        13        14        17        18     9      180.000000        8.937069         2    ;  uncertainty k = 0.347170
        13        14        17        18     9        0.000000        0.640839         3    ;  uncertainty k = 0.199489
        13        14        17        18     9      180.000000        1.231016         4    ;  uncertainty k = 0.108242
        14        13        11        15     9        0.000000       -0.234352         1    ;  uncertainty k = 0.151822
        14        13        11        15     9      180.000000       10.060346         2    ;  uncertainty k = 0.243332
        14        13        11        15     9        0.000000       -0.319786         3    ;  uncertainty k = 0.496922
        14        13        11        15     9      180.000000        0.990976         4    ;  uncertainty k = 0.258596
        14        17        16        15     9        0.000000       -0.563658         1    ;  uncertainty k = 1.052578
        14        17        16        15     9      180.000000        7.918711         2    ;  uncertainty k = 0.880080
        14        17        16        15     9        0.000000        0.146189         3    ;  uncertainty k = 0.303935
        14        17        16        15     9      180.000000        0.889830         4    ;  uncertainty k = 0.388926
        14        17        16        20     9        0.000000        0.176056         1    ;  uncertainty k = 0.453596
        14        17        16        20     9      180.000000        8.243113         2    ;  uncertainty k = 0.257976
        14        17        16        20     9        0.000000       -0.059609         3    ;  uncertainty k = 0.396357
        14        17        16        20     9      180.000000        1.309643         4    ;  uncertainty k = 0.308186
        14        17        18        19     9        0.000000        0.511305         1    ;  uncertainty k = 0.793984
        14        17        18        19     9      180.000000        6.744679         2    ;  uncertainty k = 0.997873
        14        17        18        19     9        0.000000        0.274717         3    ;  uncertainty k = 0.537264
        14        17        18        19     9      180.000000        1.010143         4    ;  uncertainty k = 0.225695
        14        17        18        38     9        0.000000        0.606453         1    ;  uncertainty k = 0.850020
        14        17        18        38     9      180.000000        4.093390         2    ;  uncertainty k = 0.848756
        14        17        18        38     9        0.000000        1.375301         3    ;  uncertainty k = 0.426874
        14        17        18        38     9      180.000000        0.101118         4    ;  uncertainty k = 0.145410
        15        11        13        35     9        0.000000        0.170681         1    ;  uncertainty k = 0.094348
        15        11        13        35     9      180.000000        6.588589         2    ;  uncertainty k = 0.576706
        15        11        13        35     9        0.000000        1.389949         3    ;  uncertainty k = 0.140405
        15        11        13        35     9      180.000000        1.590416         4    ;  uncertainty k = 0.228050
        15        16        17        18     9        0.000000        0.110683         1    ;  uncertainty k = 0.560069
        15        16        17        18     9      180.000000        7.680714         2    ;  uncertainty k = 0.276651
        15        16        17        18     9        0.000000        0.240823         3    ;  uncertainty k = 0.430527
        15        16        17        18     9      180.000000        1.182836         4    ;  uncertainty k = 0.239317
        15        16        20        19     9        0.000000        1.096033         1    ;  uncertainty k = 1.298951
        15        16        20        19     9      180.000000        6.112339         2    ;  uncertainty k = 0.742501
        15        16        20        19     9        0.000000        0.700126         3    ;  uncertainty k = 0.193201
        15        16        20        19     9      180.000000        0.290745         4    ;  uncertainty k = 0.152038
        15        16        20        21     9        0.000000        0.381171         1    ;  uncertainty k = 1.813552
        15        16        20        21     9      180.000000        2.830187         2    ;  uncertainty k = 0.478377
        15        16        20        21     9        0.000000        0.849606         3    ;  uncertainty k = 0.419853
        15        16        20        21     9      180.000000        0.083786         4    ;  uncertainty k = 0.135735
        16        17        14        36     9        0.000000        0.124387         1    ;  uncertainty k = 0.373034
        16        17        14        36     9      180.000000        7.210885         2    ;  uncertainty k = 0.881419
        16        17        14        36     9        0.000000        1.401520         3    ;  uncertainty k = 0.369643
        16        17        14        36     9      180.000000        1.163099         4    ;  uncertainty k = 0.413706
        16        17        18        19     9        0.000000        0.450027         1    ;  uncertainty k = 0.908073
        16        17        18        19     9      180.000000       13.173235         2    ;  uncertainty k = 0.776587
        16        17        18        19     9        0.000000      -10.991006         3    ;  uncertainty k = 2.573421
        16        17        18        19     9      180.000000        1.867148         4    ;  uncertainty k = 0.661434
        16        17        18        38     9        0.000000        0.023375         1    ;  uncertainty k = 0.592174
        16        17        18        38     9      180.000000        8.114226         2    ;  uncertainty k = 0.620357
        16        17        18        38     9        0.000000        1.336432         3    ;  uncertainty k = 0.600041
        16        17        18        38     9      180.000000        0.332208         4    ;  uncertainty k = 0.200948
        16        20        19        18     9        0.000000       -0.256602         1    ;  uncertainty k = 0.388703
        16        20        19        18     9      180.000000       15.681418         2    ;  uncertainty k = 0.602078
        16        20        19        18     9        0.000000       -6.396111         3    ;  uncertainty k = 1.656550
        16        20        19        18     9      180.000000        0.936026         4    ;  uncertainty k = 0.391999
        16        20        19        39     9        0.000000        1.176326         1    ;  uncertainty k = 0.849237
        16        20        19        39     9      180.000000        7.035330         2    ;  uncertainty k = 0.660686
        16        20        19        39     9        0.000000        1.598165         3    ;  uncertainty k = 0.299780
        16        20        19        39     9      180.000000        0.164807         4    ;  uncertainty k = 0.100188
        16        20        21        40     9        0.000000       -0.408568         1    ;  uncertainty k = 0.246905
        16        20        21        40     9      180.000000       -1.317196         2    ;  uncertainty k = 0.168942
        16        20        21        40     9        0.000000        1.090647         3    ;  uncertainty k = 0.080702
        16        20        21        40     9      180.000000        0.217211         4    ;  uncertainty k = 0.045154
        16        20        21        41     9        0.000000       -0.408568         1    ;  uncertainty k = 0.246905
        16        20        21        41     9      180.000000       -1.317196         2    ;  uncertainty k = 0.168942
        16        20        21        41     9        0.000000        1.090647         3    ;  uncertainty k = 0.080702
        16        20        21        41     9      180.000000        0.217211         4    ;  uncertainty k = 0.045154
        16        20        21        42     9        0.000000       -0.408568         1    ;  uncertainty k = 0.246905
        16        20        21        42     9      180.000000       -1.317196         2    ;  uncertainty k = 0.168942
        16        20        21        42     9        0.000000        1.090647         3    ;  uncertainty k = 0.080702
        16        20        21        42     9      180.000000        0.217211         4    ;  uncertainty k = 0.045154
        17        14        13        35     9        0.000000       -0.025946         1    ;  uncertainty k = 0.303009
        17        14        13        35     9      180.000000       11.299050         2    ;  uncertainty k = 0.337052
        17        14        13        35     9        0.000000        1.440130         3    ;  uncertainty k = 0.287189
        17        14        13        35     9      180.000000        1.704244         4    ;  uncertainty k = 0.284573
        17        16        15        37     9        0.000000        0.113362         1    ;  uncertainty k = 0.441544
        17        16        15        37     9      180.000000        6.764951         2    ;  uncertainty k = 0.865472
        17        16        15        37     9        0.000000        1.346688         3    ;  uncertainty k = 0.169660
        17        16        15        37     9      180.000000        1.338700         4    ;  uncertainty k = 0.261595
        17        16        20        19     9        0.000000        0.268811         1    ;  uncertainty k = 0.833799
        17        16        20        19     9      180.000000       14.131316         2    ;  uncertainty k = 0.606105
        17        16        20        19     9        0.000000       -6.512747         3    ;  uncertainty k = 1.135818
        17        16        20        19     9      180.000000        0.929198         4    ;  uncertainty k = 0.439288
        17        16        20        21     9        0.000000        2.277569         1    ;  uncertainty k = 0.770886
        17        16        20        21     9      180.000000        5.178088         2    ;  uncertainty k = 0.354898
        17        16        20        21     9        0.000000        1.568715         3    ;  uncertainty k = 0.279168
        17        16        20        21     9      180.000000        0.176309         4    ;  uncertainty k = 0.114600
        17        18        19        20     9        0.000000       -0.277607         1    ;  uncertainty k = 0.238564
        17        18        19        20     9      180.000000       22.092014         2    ;  uncertainty k = 0.248817
        17        18        19        20     9        0.000000       -6.461113         3    ;  uncertainty k = 0.282795
        17        18        19        20     9      180.000000        1.349535         4    ;  uncertainty k = 0.401228
        17        18        19        39     9        0.000000       -0.004714         1    ;  uncertainty k = 0.396226
        17        18        19        39     9      180.000000       12.360945         2    ;  uncertainty k = 0.135928
        17        18        19        39     9        0.000000        1.866097         3    ;  uncertainty k = 0.177332
        17        18        19        39     9      180.000000        0.972890         4    ;  uncertainty k = 0.182999
        18        17        14        36     9        0.000000        0.105500         1    ;  uncertainty k = 0.553990
        18        17        14        36     9      180.000000        5.639368         2    ;  uncertainty k = 0.488477
        18        17        14        36     9        0.000000        1.044663         3    ;  uncertainty k = 0.341162
        18        17        14        36     9      180.000000        0.711452         4    ;  uncertainty k = 0.362067
        18        17        16        20     9        0.000000       -0.248706         1    ;  uncertainty k = 0.120972
        18        17        16        20     9      180.000000       12.895532         2    ;  uncertainty k = 0.840948
        18        17        16        20     9        0.000000       -3.668924         3    ;  uncertainty k = 1.019109
        18        17        16        20     9      180.000000        1.520072         4    ;  uncertainty k = 0.794284
        18        19        20        21     9        0.000000        1.377314         1    ;  uncertainty k = 0.855302
        18        19        20        21     9      180.000000        8.854296         2    ;  uncertainty k = 0.336077
        18        19        20        21     9        0.000000        1.850755         3    ;  uncertainty k = 0.421572
        18        19        20        21     9      180.000000        0.005711         4    ;  uncertainty k = 0.191906
        19        20        21        40     9        0.000000        0.012373         1    ;  uncertainty k = 0.156207
        19        20        21        40     9      180.000000       -1.304491         2    ;  uncertainty k = 0.215975
        19        20        21        40     9        0.000000        0.598725         3    ;  uncertainty k = 0.126338
        19        20        21        40     9      180.000000        0.181531         4    ;  uncertainty k = 0.051525
        19        20        21        41     9        0.000000        0.012373         1    ;  uncertainty k = 0.156207
        19        20        21        41     9      180.000000       -1.304491         2    ;  uncertainty k = 0.215975
        19        20        21        41     9        0.000000        0.598725         3    ;  uncertainty k = 0.126338
        19        20        21        41     9      180.000000        0.181531         4    ;  uncertainty k = 0.051525
        19        20        21        42     9        0.000000        0.012373         1    ;  uncertainty k = 0.156207
        19        20        21        42     9      180.000000       -1.304491         2    ;  uncertainty k = 0.215975
        19        20        21        42     9        0.000000        0.598725         3    ;  uncertainty k = 0.126338
        19        20        21        42     9      180.000000        0.181531         4    ;  uncertainty k = 0.051525
        20        16        15        37     9        0.000000        0.243929         1    ;  uncertainty k = 0.292557
        20        16        15        37     9      180.000000        5.709932         2    ;  uncertainty k = 0.412052
        20        16        15        37     9        0.000000        1.177664         3    ;  uncertainty k = 0.438420
        20        16        15        37     9      180.000000        0.924568         4    ;  uncertainty k = 0.367001
        20        19        18        38     9        0.000000        0.281182         1    ;  uncertainty k = 0.777506
        20        19        18        38     9      180.000000       14.368325         2    ;  uncertainty k = 0.563599
        20        19        18        38     9        0.000000        1.716577         3    ;  uncertainty k = 0.616570
        20        19        18        38     9      180.000000        0.925073         4    ;  uncertainty k = 0.423264
        21        20        19        39     9        0.000000       -0.357950         1    ;  uncertainty k = 0.336354
        21        20        19        39     9      180.000000        2.701717         2    ;  uncertainty k = 0.518907
        21        20        19        39     9        0.000000        1.060504         3    ;  uncertainty k = 0.337396
        21        20        19        39     9      180.000000        0.096607         4    ;  uncertainty k = 0.212503
        22        23        24        25     9        0.000000       -0.221076         1    ;  uncertainty k = 0.376153
        22        23        24        25     9      180.000000       14.575749         2    ;  uncertainty k = 0.208320
        22        23        24        25     9        0.000000       -0.837607         3    ;  uncertainty k = 0.451508
        22        23        24        25     9      180.000000        0.674908         4    ;  uncertainty k = 0.287536
        22        23        24        44     9        0.000000        0.072029         1    ;  uncertainty k = 0.219237
        22        23        24        44     9      180.000000        8.232675         2    ;  uncertainty k = 0.471541
        22        23        24        44     9        0.000000        1.365771         3    ;  uncertainty k = 0.304972
        22        23        24        44     9      180.000000        1.623190         4    ;  uncertainty k = 0.181741
        22        27        26        25     9        0.000000       -0.175119         1    ;  uncertainty k = 0.345025
        22        27        26        25     9      180.000000       11.144808         2    ;  uncertainty k = 0.194539
        22        27        26        25     9        0.000000       -0.400335         3    ;  uncertainty k = 0.426093
        22        27        26        25     9      180.000000        0.945549         4    ;  uncertainty k = 0.171720
        22        27        26        46     9        0.000000        0.100319         1    ;  uncertainty k = 0.321583
        22        27        26        46     9      180.000000        7.005344         2    ;  uncertainty k = 0.704895
        22        27        26        46     9        0.000000        1.268292         3    ;  uncertainty k = 0.249189
        22        27        26        46     9      180.000000        1.463416         4    ;  uncertainty k = 0.225844
        22        27        28        29     9        0.000000        0.000000         1    ;  uncertainty k = 0.000000
        22        27        28        29     9      180.000000        0.000000         2    ;  uncertainty k = 0.000000
        22        27        28        29     9        0.000000        0.000000         3    ;  uncertainty k = 0.000000
        22        27        28        29     9      180.000000        0.000000         4    ;  uncertainty k = 0.000000
        23        22        12        34     9        0.000000        2.705169         1    ;  uncertainty k = 0.653458
        23        22        12        34     9      180.000000        5.511864         2    ;  uncertainty k = 0.313789
        23        22        12        34     9        0.000000        0.513329         3    ;  uncertainty k = 0.227741
        23        22        12        34     9      180.000000       -0.213180         4    ;  uncertainty k = 0.059834
        23        22        27        26     9        0.000000       -0.235490         1    ;  uncertainty k = 0.494595
        23        22        27        26     9      180.000000        5.300046         2    ;  uncertainty k = 0.705821
        23        22        27        26     9        0.000000        0.534666         3    ;  uncertainty k = 0.315599
        23        22        27        26     9      180.000000        1.501258         4    ;  uncertainty k = 0.279121
        23        22        27        28     9        0.000000        0.101714         1    ;  uncertainty k = 0.328182
        23        22        27        28     9      180.000000        7.723660         2    ;  uncertainty k = 0.525249
        23        22        27        28     9        0.000000        1.116123         3    ;  uncertainty k = 0.218263
        23        22        27        28     9      180.000000        1.451127         4    ;  uncertainty k = 0.357190
        23        24        25        26     9        0.000000       -0.107451         1    ;  uncertainty k = 0.262458
        23        24        25        26     9      180.000000       14.776657         2    ;  uncertainty k = 0.302691
        23        24        25        26     9        0.000000       -1.007456         3    ;  uncertainty k = 0.489382
        23        24        25        26     9      180.000000        0.542140         4    ;  uncertainty k = 0.288318
        23        24        25        45     9        0.000000        0.089356         1    ;  uncertainty k = 0.166141
        23        24        25        45     9      180.000000        7.597678         2    ;  uncertainty k = 0.329431
        23        24        25        45     9        0.000000        1.446869         3    ;  uncertainty k = 0.277796
        23        24        25        45     9      180.000000        1.770290         4    ;  uncertainty k = 0.114566
        24        23        22        27     9        0.000000        0.010511         1    ;  uncertainty k = 0.233590
        24        23        22        27     9      180.000000        7.988766         2    ;  uncertainty k = 0.711095
        24        23        22        27     9        0.000000        0.494436         3    ;  uncertainty k = 0.278842
        24        23        22        27     9      180.000000        1.432254         4    ;  uncertainty k = 0.294156
        24        25        26        27     9        0.000000       -0.042977         1    ;  uncertainty k = 0.117015
        24        25        26        27     9      180.000000       14.723500         2    ;  uncertainty k = 0.213227
        24        25        26        27     9        0.000000       -0.957060         3    ;  uncertainty k = 0.462565
        24        25        26        27     9      180.000000        0.770422         4    ;  uncertainty k = 0.223336
        24        25        26        46     9        0.000000        0.013231         1    ;  uncertainty k = 0.172790
        24        25        26        46     9      180.000000        7.780499         2    ;  uncertainty k = 0.311481
        24        25        26        46     9        0.000000        1.365106         3    ;  uncertainty k = 0.293123
        24        25        26        46     9      180.000000        1.723400         4    ;  uncertainty k = 0.134579
        25        24        23        43     9        0.000000        0.036752         1    ;  uncertainty k = 0.111054
        25        24        23        43     9      180.000000        8.698319         2    ;  uncertainty k = 0.367208
        25        24        23        43     9        0.000000        1.442510         3    ;  uncertainty k = 0.287847
        25        24        23        43     9      180.000000        1.854962         4    ;  uncertainty k = 0.110555
        25        26        27        28     9        0.000000        0.256662         1    ;  uncertainty k = 0.105757
        25        26        27        28     9      180.000000       10.974144         2    ;  uncertainty k = 0.413079
        25        26        27        28     9        0.000000        1.243275         3    ;  uncertainty k = 0.253907
        25        26        27        28     9      180.000000        1.540339         4    ;  uncertainty k = 0.180324
        26        25        24        44     9        0.000000       -0.018704         1    ;  uncertainty k = 0.198562
        26        25        24        44     9      180.000000        7.271061         2    ;  uncertainty k = 0.300954
        26        25        24        44     9        0.000000        1.437223         3    ;  uncertainty k = 0.298580
        26        25        24        44     9      180.000000        1.691939         4    ;  uncertainty k = 0.111880
        26        27        28        29     9        0.000000        0.000000         1    ;  uncertainty k = 0.000000
        26        27        28        29     9      180.000000        0.000000         2    ;  uncertainty k = 0.000000
        26        27        28        29     9        0.000000        0.000000         3    ;  uncertainty k = 0.000000
        26        27        28        29     9      180.000000        0.000000         4    ;  uncertainty k = 0.000000
        27        22        12        34     9        0.000000        6.550282         1    ;  uncertainty k = 0.493717
        27        22        12        34     9      180.000000        4.514435         2    ;  uncertainty k = 0.463310
        27        22        12        34     9        0.000000        0.510564         3    ;  uncertainty k = 0.157733
        27        22        12        34     9      180.000000       -0.202757         4    ;  uncertainty k = 0.176138
        27        22        23        43     9        0.000000        0.185526         1    ;  uncertainty k = 0.218011
        27        22        23        43     9      180.000000        6.363598         2    ;  uncertainty k = 0.514965
        27        22        23        43     9        0.000000        1.332367         3    ;  uncertainty k = 0.336541
        27        22        23        43     9      180.000000        1.438621         4    ;  uncertainty k = 0.239752
        27        26        25        45     9        0.000000        0.084478         1    ;  uncertainty k = 0.205432
        27        26        25        45     9      180.000000        8.431408         2    ;  uncertainty k = 0.450788
        27        26        25        45     9        0.000000        1.287804         3    ;  uncertainty k = 0.341335
        27        26        25        45     9      180.000000        1.740344         4    ;  uncertainty k = 0.164335
        28        27        26        46     9        0.000000       -0.091281         1    ;  uncertainty k = 0.549556
        28        27        26        46     9      180.000000        8.050152         2    ;  uncertainty k = 0.388100
        28        27        26        46     9        0.000000        0.679666         3    ;  uncertainty k = 0.277867
        28        27        26        46     9      180.000000        1.017645         4    ;  uncertainty k = 0.181147
        30         3         4        31     9        0.000000       -0.152652         1    ;  uncertainty k = 0.805688
        30         3         4        31     9      180.000000        5.398109         2    ;  uncertainty k = 0.723627
        30         3         4        31     9        0.000000        0.147471         3    ;  uncertainty k = 0.248173
        30         3         4        31     9      180.000000        0.216442         4    ;  uncertainty k = 0.153409
        35        13        14        36     9        0.000000       -0.116206         1    ;  uncertainty k = 0.085774
        35        13        14        36     9      180.000000        7.987767         2    ;  uncertainty k = 0.371552
        35        13        14        36     9        0.000000       -0.214199         3    ;  uncertainty k = 0.235186
        35        13        14        36     9      180.000000        0.260529         4    ;  uncertainty k = 0.235508
        38        18        19        39     9        0.000000       -0.013046         1    ;  uncertainty k = 0.452147
        38        18        19        39     9      180.000000        5.800982         2    ;  uncertainty k = 0.791053
        38        18        19        39     9        0.000000        1.154438         3    ;  uncertainty k = 0.426921
        38        18        19        39     9      180.000000        0.344798         4    ;  uncertainty k = 0.119750
        43        23        24        44     9        0.000000       -0.050588         1    ;  uncertainty k = 0.341460
        43        23        24        44     9      180.000000        8.060110         2    ;  uncertainty k = 0.404163
        43        23        24        44     9        0.000000       -0.478416         3    ;  uncertainty k = 0.319927
        43        23        24        44     9      180.000000        0.153209         4    ;  uncertainty k = 0.173869
        44        24        25        45     9        0.000000       -0.043289         1    ;  uncertainty k = 0.094733
        44        24        25        45     9      180.000000        7.659601         2    ;  uncertainty k = 0.479762
        44        24        25        45     9        0.000000       -0.343045         3    ;  uncertainty k = 0.299068
        44        24        25        45     9      180.000000        0.047378         4    ;  uncertainty k = 0.153283
        45        25        26        46     9        0.000000       -0.045822         1    ;  uncertainty k = 0.070555
        45        25        26        46     9      180.000000        7.920164         2    ;  uncertainty k = 0.467395
        45        25        26        46     9        0.000000       -0.302673         3    ;  uncertainty k = 0.257428
        45        25        26        46     9      180.000000        0.086371         4    ;  uncertainty k = 0.177317

[ dihedrals ] ; impropers
;       ai        aj        ak        al funct           phase               k        pn
         3         2         4        30     4      180.000000       12.058349         2    ;  uncertainty k = 0.155868
         3         4        30         2     4      180.000000       12.058349         2    ;  uncertainty k = 0.155868
         3        30         2         4     4      180.000000       12.058349         2    ;  uncertainty k = 0.155868
         4         1         3        31     4      180.000000       11.948849         2    ;  uncertainty k = 0.101429
         4         3        31         1     4      180.000000       11.948849         2    ;  uncertainty k = 0.101429
         4        31         1         3     4      180.000000       11.948849         2    ;  uncertainty k = 0.101429
         5         2         6        10     4      180.000000       16.619254         2    ;  uncertainty k = 0.086962
         5         6        10         2     4      180.000000       16.619254         2    ;  uncertainty k = 0.086962
         5        10         2         6     4      180.000000       16.619254         2    ;  uncertainty k = 0.086962
         6         1         5         7     4      180.000000       18.442493         2    ;  uncertainty k = 0.055238
         6         5         7         1     4      180.000000       18.442493         2    ;  uncertainty k = 0.055238
         6         7         1         5     4      180.000000       18.442493         2    ;  uncertainty k = 0.055238
         7         6         8        32     4      180.000000        2.533570         2    ;  uncertainty k = 0.374085
         7         8        32         6     4      180.000000        2.533570         2    ;  uncertainty k = 0.374085
         7        32         6         8     4      180.000000        2.533570         2    ;  uncertainty k = 0.374085
         8         7         9        12     4      180.000000       21.067235         2    ;  uncertainty k = 0.026149
         8         9        12         7     4      180.000000       21.067235         2    ;  uncertainty k = 0.026149
         8        12         7         9     4      180.000000       21.067235         2    ;  uncertainty k = 0.026149
         9         8        10        33     4      180.000000        3.044471         2    ;  uncertainty k = 0.376025
         9        10        33         8     4      180.000000        3.044471         2    ;  uncertainty k = 0.376025
         9        33         8        10     4      180.000000        3.044471         2    ;  uncertainty k = 0.376025
        10         5         9        11     4      180.000000       17.976631         2    ;  uncertainty k = 0.099558
        10         9        11         5     4      180.000000       17.976631         2    ;  uncertainty k = 0.099558
        10        11         5         9     4      180.000000       17.976631         2    ;  uncertainty k = 0.099558
        11        10        13        15     4      180.000000       12.719695         2    ;  uncertainty k = 0.169586
        11        13        15        10     4      180.000000       12.719695         2    ;  uncertainty k = 0.169586
        11        15        10        13     4      180.000000       12.719695         2    ;  uncertainty k = 0.169586
        12         8        22        34     4      180.000000        1.506915         2    ;  uncertainty k = 1.080895
        12        22        34         8     4      180.000000        1.506915         2    ;  uncertainty k = 1.080895
        12        34         8        22     4      180.000000        1.506915         2    ;  uncertainty k = 1.080895
        13        11        14        35     4      180.000000        3.145473         2    ;  uncertainty k = 0.234148
        13        14        35        11     4      180.000000        3.145473         2    ;  uncertainty k = 0.234148
        13        35        11        14     4      180.000000        3.145473         2    ;  uncertainty k = 0.234148
        14        13        17        36     4      180.000000        3.905817         2    ;  uncertainty k = 0.125325
        14        17        36        13     4      180.000000        3.905817         2    ;  uncertainty k = 0.125325
        14        36        13        17     4      180.000000        3.905817         2    ;  uncertainty k = 0.125325
        15        11        16        37     4      180.000000        2.774842         2    ;  uncertainty k = 0.245478
        15        16        37        11     4      180.000000        2.774842         2    ;  uncertainty k = 0.245478
        15        37        11        16     4      180.000000        2.774842         2    ;  uncertainty k = 0.245478
        16        15        17        20     4      180.000000        0.447274         2    ;  uncertainty k = 0.540174
        16        17        20        15     4      180.000000        0.447274         2    ;  uncertainty k = 0.540174
        16        20        15        17     4      180.000000        0.447274         2    ;  uncertainty k = 0.540174
        19        18        20        39     4      180.000000        0.796715         2    ;  uncertainty k = 0.335582
        19        20        39        18     4      180.000000        0.796715         2    ;  uncertainty k = 0.335582
        19        39        18        20     4      180.000000        0.796715         2    ;  uncertainty k = 0.335582
        22        12        23        27     4      180.000000       21.553036         2    ;  uncertainty k = 0.119717
        22        23        27        12     4      180.000000       21.553036         2    ;  uncertainty k = 0.119717
        22        27        12        23     4      180.000000       21.553036         2    ;  uncertainty k = 0.119717
        23        22        24        43     4      180.000000        2.547790         2    ;  uncertainty k = 0.340068
        23        24        43        22     4      180.000000        2.547790         2    ;  uncertainty k = 0.340068
        23        43        22        24     4      180.000000        2.547790         2    ;  uncertainty k = 0.340068
        24        23        25        44     4      180.000000        5.355929         2    ;  uncertainty k = 0.136513
        24        25        44        23     4      180.000000        5.355929         2    ;  uncertainty k = 0.136513
        24        44        23        25     4      180.000000        5.355929         2    ;  uncertainty k = 0.136513
        25        24        26        45     4      180.000000        3.364625         2    ;  uncertainty k = 0.121349
        25        26        45        24     4      180.000000        3.364625         2    ;  uncertainty k = 0.121349
        25        45        24        26     4      180.000000        3.364625         2    ;  uncertainty k = 0.121349
        26        25        27        46     4      180.000000        4.787349         2    ;  uncertainty k = 0.206311
        26        27        46        25     4      180.000000        4.787349         2    ;  uncertainty k = 0.206311
        26        46        25        27     4      180.000000        4.787349         2    ;  uncertainty k = 0.206311
        27        22        26        28     4      180.000000        7.216967         2    ;  uncertainty k = 0.084934
        27        26        28        22     4      180.000000        7.216967         2    ;  uncertainty k = 0.084934
        27        28        22        26     4      180.000000        7.216967         2    ;  uncertainty k = 0.084934

[ pairs ]
;       ai        aj funct
         1         2     1
         1         8     1
         1        10     1
         1        30     1
         1        32     1
         2         7     1
         2         9     1
         2        11     1
         2        31     1
         3         6     1
         3        10     1
         4         5     1
         4         7     1
         5         8     1
         5        13     1
         5        15     1
         5        30     1
         5        32     1
         5        33     1
         6         9     1
         6        11     1
         6        12     1
         6        31     1
         7        10     1
         7        22     1
         7        33     1
         7        34     1
         8        11     1
         8        23     1
         8        27     1
         9        13     1
         9        15     1
         9        22     1
         9        32     1
         9        34     1
        10        12     1
        10        14     1
        10        16     1
        10        35     1
        10        37     1
        11        17     1
        11        20     1
        11        33     1
        11        36     1
        12        24     1
        12        26     1
        12        28     1
        12        32     1
        12        33     1
        12        43     1
        13        16     1
        13        18     1
        13        37     1
        14        15     1
        14        19     1
        14        20     1
        14        38     1
        15        18     1
        15        19     1
        15        21     1
        15        35     1
        16        36     1
        16        38     1
        16        39     1
        16        40     1
        16        41     1
        16        42     1
        17        21     1
        17        35     1
        17        37     1
        17        39     1
        18        21     1
        18        36     1
        19        40     1
        19        41     1
        19        42     1
        20        37     1
        20        38     1
        21        39     1
        22        25     1
        22        29     1
        22        44     1
        22        46     1
        23        26     1
        23        28     1
        23        34     1
        23        45     1
        24        27     1
        24        46     1
        25        28     1
        25        43     1
        26        29     1
        26        44     1
        27        34     1
        27        43     1
        27        45     1
        28        46     1
        30        31     1
        35        36     1
        38        39     1
        43        44     1
        44        45     1
        45        46     1
