; ITP file created by ByteFF-joint-25, 2026-02-17 09:21:39.655853

[ atomtypes ]
;name           bonded.type        at.num        mass        charge   ptype           sigma         epsilon
 c0bf                                   6      0.0000       0.00000       A     3.31509e-01     4.13539e-01    ;  uncertainty sigma = 0.000009, epsilon = 0.000465
 c1bf                                   6      0.0000       0.00000       A     3.31555e-01     4.13641e-01    ;  uncertainty sigma = 0.000014, epsilon = 0.001564
 c2bf                                   6      0.0000       0.00000       A     3.31496e-01     4.13470e-01    ;  uncertainty sigma = 0.000006, epsilon = 0.000742
 c3bf                                   6      0.0000       0.00000       A     3.31488e-01     4.12665e-01    ;  uncertainty sigma = 0.000011, epsilon = 0.000854
 c4bf                                   6      0.0000       0.00000       A     3.31516e-01     4.13470e-01    ;  uncertainty sigma = 0.000011, epsilon = 0.000986
 c5bf                                   6      0.0000       0.00000       A     3.31519e-01     4.13020e-01    ;  uncertainty sigma = 0.000010, epsilon = 0.001115
 n6bf                                   7      0.0000       0.00000       A     3.38415e-01     3.93854e-01    ;  uncertainty sigma = 0.000010, epsilon = 0.001066
 c7bf                                   6      0.0000       0.00000       A     3.31531e-01     4.13178e-01    ;  uncertainty sigma = 0.000013, epsilon = 0.000482
 c8bf                                   6      0.0000       0.00000       A     3.31530e-01     4.13238e-01    ;  uncertainty sigma = 0.000010, epsilon = 0.000599
 n9bf                                   7      0.0000       0.00000       A     3.38414e-01     3.93827e-01    ;  uncertainty sigma = 0.000003, epsilon = 0.000862
 c10bf                                  6      0.0000       0.00000       A     3.31492e-01     4.13019e-01    ;  uncertainty sigma = 0.000020, epsilon = 0.000990
 n11bf                                  7      0.0000       0.00000       A     3.27920e-01     6.47665e-01    ;  uncertainty sigma = 0.000029, epsilon = 0.002544
 c12bf                                  6      0.0000       0.00000       A     3.31520e-01     4.13276e-01    ;  uncertainty sigma = 0.000004, epsilon = 0.000572
 c13bf                                  6      0.0000       0.00000       A     3.31527e-01     4.13211e-01    ;  uncertainty sigma = 0.000005, epsilon = 0.000881
 c14bf                                  6      0.0000       0.00000       A     3.31521e-01     4.13081e-01    ;  uncertainty sigma = 0.000007, epsilon = 0.000493
 c15bf                                  6      0.0000       0.00000       A     3.31522e-01     4.13356e-01    ;  uncertainty sigma = 0.000007, epsilon = 0.000813
 c16bf                                  6      0.0000       0.00000       A     3.31520e-01     4.13329e-01    ;  uncertainty sigma = 0.000004, epsilon = 0.000805
 c17bf                                  6      0.0000       0.00000       A     3.31516e-01     4.13261e-01    ;  uncertainty sigma = 0.000006, epsilon = 0.000450
 c18bf                                  6      0.0000       0.00000       A     3.31521e-01     4.12984e-01    ;  uncertainty sigma = 0.000005, epsilon = 0.000844
 n19bf                                  7      0.0000       0.00000       A     3.20630e-01     8.53726e-01    ;  uncertainty sigma = 0.000021, epsilon = 0.000808
 c20bf                                  6      0.0000       0.00000       A     3.39777e-01     4.51126e-01    ;  uncertainty sigma = 0.000006, epsilon = 0.000488
 c21bf                                  6      0.0000       0.00000       A     3.31550e-01     4.12766e-01    ;  uncertainty sigma = 0.000026, epsilon = 0.001808
 c22bf                                  6      0.0000       0.00000       A     3.31529e-01     4.13097e-01    ;  uncertainty sigma = 0.000026, epsilon = 0.001445
 c23bf                                  6      0.0000       0.00000       A     3.31526e-01     4.13830e-01    ;  uncertainty sigma = 0.000011, epsilon = 0.001035
 c24bf                                  6      0.0000       0.00000       A     3.31516e-01     4.13305e-01    ;  uncertainty sigma = 0.000002, epsilon = 0.000571
 c25bf                                  6      0.0000       0.00000       A     3.31521e-01     4.13458e-01    ;  uncertainty sigma = 0.000003, epsilon = 0.000528
 c26bf                                  6      0.0000       0.00000       A     3.31528e-01     4.12947e-01    ;  uncertainty sigma = 0.000011, epsilon = 0.000715
 c27bf                                  6      0.0000       0.00000       A     3.31588e-01     4.13234e-01    ;  uncertainty sigma = 0.000039, epsilon = 0.000574
 o28bf                                  8      0.0000       0.00000       A     3.04824e-01     6.12666e-01    ;  uncertainty sigma = 0.000020, epsilon = 0.001529
 n29bf                                  7      0.0000       0.00000       A     3.36058e-01     3.53914e-01    ;  uncertainty sigma = 0.000035, epsilon = 0.002199
 h30bf                                  1      0.0000       0.00000       A     2.62540e-01     6.71221e-02    ;  uncertainty sigma = 0.000022, epsilon = 0.000645
 h31bf                                  1      0.0000       0.00000       A     2.62566e-01     6.71158e-02    ;  uncertainty sigma = 0.000015, epsilon = 0.000400
 h32bf                                  1      0.0000       0.00000       A     2.53628e-01     6.69333e-02    ;  uncertainty sigma = 0.000020, epsilon = 0.000763
 h33bf                                  1      0.0000       0.00000       A     2.53628e-01     6.69333e-02    ;  uncertainty sigma = 0.000020, epsilon = 0.000763
 h34bf                                  1      0.0000       0.00000       A     1.10689e-01     4.10393e-02    ;  uncertainty sigma = 0.000110, epsilon = 0.001803
 h35bf                                  1      0.0000       0.00000       A     2.62563e-01     6.70733e-02    ;  uncertainty sigma = 0.000010, epsilon = 0.000583
 h36bf                                  1      0.0000       0.00000       A     2.62569e-01     6.69121e-02    ;  uncertainty sigma = 0.000009, epsilon = 0.000334
 h37bf                                  1      0.0000       0.00000       A     2.62578e-01     6.73015e-02    ;  uncertainty sigma = 0.000018, epsilon = 0.000492
 h38bf                                  1      0.0000       0.00000       A     2.62543e-01     6.72781e-02    ;  uncertainty sigma = 0.000012, epsilon = 0.000446
 h39bf                                  1      0.0000       0.00000       A     2.53669e-01     6.69808e-02    ;  uncertainty sigma = 0.000019, epsilon = 0.000693
 h40bf                                  1      0.0000       0.00000       A     2.42192e-01     8.67346e-02    ;  uncertainty sigma = 0.000017, epsilon = 0.000545
 h41bf                                  1      0.0000       0.00000       A     2.42192e-01     8.67346e-02    ;  uncertainty sigma = 0.000017, epsilon = 0.000545
 h42bf                                  1      0.0000       0.00000       A     2.42192e-01     8.67346e-02    ;  uncertainty sigma = 0.000017, epsilon = 0.000545
 h43bf                                  1      0.0000       0.00000       A     2.62560e-01     6.71537e-02    ;  uncertainty sigma = 0.000006, epsilon = 0.000705
 h44bf                                  1      0.0000       0.00000       A     2.62558e-01     6.70325e-02    ;  uncertainty sigma = 0.000010, epsilon = 0.000442
 h45bf                                  1      0.0000       0.00000       A     2.62557e-01     6.69914e-02    ;  uncertainty sigma = 0.000012, epsilon = 0.000478
 h46bf                                  1      0.0000       0.00000       A     2.62558e-01     6.70763e-02    ;  uncertainty sigma = 0.000012, epsilon = 0.000421
 h47bf                                  1      0.0000       0.00000       A     1.10644e-01     4.14126e-02    ;  uncertainty sigma = 0.000051, epsilon = 0.000340
 h48bf                                  1      0.0000       0.00000       A     1.10644e-01     4.14126e-02    ;  uncertainty sigma = 0.000051, epsilon = 0.000340

[ moleculetype ]
;name             nrexcl
 MOL                   3

[ atoms ]
;       nr            type      resi   res      atom      cgnr      charge          mass ; qtot
         1            c0bf         1   UNL        c0         1    -0.22949       12.0110 ; qtot   -0.229
         2            c1bf         1   UNL        c1         2     0.18356       12.0110 ; qtot   -0.046
         3            c2bf         1   UNL        c2         3    -0.16337       12.0110 ; qtot   -0.209
         4            c3bf         1   UNL        c3         4    -0.02411       12.0110 ; qtot   -0.233
         5            c4bf         1   UNL        c4         5     0.32361       12.0110 ; qtot    0.090
         6            c5bf         1   UNL        c5         6     0.27545       12.0110 ; qtot    0.366
         7            n6bf         1   UNL        n6         7    -0.61815       14.0070 ; qtot   -0.252
         8            c7bf         1   UNL        c7         8     0.29560       12.0110 ; qtot    0.043
         9            c8bf         1   UNL        c8         9     0.29621       12.0110 ; qtot    0.339
        10            n9bf         1   UNL        n9        10    -0.62862       14.0070 ; qtot   -0.289
        11           c10bf         1   UNL       c10        11    -0.02479       12.0110 ; qtot   -0.314
        12           n11bf         1   UNL       n11        12    -0.66523       14.0070 ; qtot   -0.979
        13           c12bf         1   UNL       c12        13    -0.13841       12.0110 ; qtot   -1.118
        14           c13bf         1   UNL       c13        14    -0.08699       12.0110 ; qtot   -1.205
        15           c14bf         1   UNL       c14        15    -0.12505       12.0110 ; qtot   -1.330
        16           c15bf         1   UNL       c15        16    -0.05127       12.0110 ; qtot   -1.381
        17           c16bf         1   UNL       c16        17    -0.09144       12.0110 ; qtot   -1.472
        18           c17bf         1   UNL       c17        18    -0.19068       12.0110 ; qtot   -1.663
        19           c18bf         1   UNL       c18        19    -0.10251       12.0110 ; qtot   -1.766
        20           n19bf         1   UNL       n19        20    -0.07889       14.0070 ; qtot   -1.845
        21           c20bf         1   UNL       c20        21     0.03587       12.0110 ; qtot   -1.809
        22           c21bf         1   UNL       c21        22     0.22720       12.0110 ; qtot   -1.581
        23           c22bf         1   UNL       c22        23    -0.22650       12.0110 ; qtot   -1.808
        24           c23bf         1   UNL       c23        24    -0.05974       12.0110 ; qtot   -1.868
        25           c24bf         1   UNL       c24        25    -0.17338       12.0110 ; qtot   -2.041
        26           c25bf         1   UNL       c25        26    -0.07026       12.0110 ; qtot   -2.111
        27           c26bf         1   UNL       c26        27    -0.19903       12.0110 ; qtot   -2.310
        28           c27bf         1   UNL       c27        28     0.67186       12.0110 ; qtot   -1.639
        29           o28bf         1   UNL       o28        29    -0.62366       15.9990 ; qtot   -2.262
        30           n29bf         1   UNL       n29        30    -0.65025       14.0070 ; qtot   -2.912
        31           h30bf         1   UNL       h30        31     0.15776        1.0080 ; qtot   -2.755
        32           h31bf         1   UNL       h31        32     0.14719        1.0080 ; qtot   -2.608
        33           h32bf         1   UNL       h32        33     0.03380        1.0080 ; qtot   -2.574
        34           h33bf         1   UNL       h33        34     0.03331        1.0080 ; qtot   -2.540
        35           h34bf         1   UNL       h34        35     0.47668        1.0080 ; qtot   -2.064
        36           h35bf         1   UNL       h35        36     0.13697        1.0080 ; qtot   -1.927
        37           h36bf         1   UNL       h36        37     0.13662        1.0080 ; qtot   -1.790
        38           h37bf         1   UNL       h37        38     0.13971        1.0080 ; qtot   -1.650
        39           h38bf         1   UNL       h38        39     0.15551        1.0080 ; qtot   -1.495
        40           h39bf         1   UNL       h39        40     0.16110        1.0080 ; qtot   -1.334
        41           h40bf         1   UNL       h40        41     0.04975        1.0080 ; qtot   -1.284
        42           h41bf         1   UNL       h41        42     0.04975        1.0080 ; qtot   -1.234
        43           h42bf         1   UNL       h42        43     0.04975        1.0080 ; qtot   -1.185
        44           h43bf         1   UNL       h43        44     0.13955        1.0080 ; qtot   -1.045
        45           h44bf         1   UNL       h44        45     0.13933        1.0080 ; qtot   -0.906
        46           h45bf         1   UNL       h45        46     0.13354        1.0080 ; qtot   -0.772
        47           h46bf         1   UNL       h46        47     0.14741        1.0080 ; qtot   -0.625
        48           h47bf         1   UNL       h47        48     0.31237        1.0080 ; qtot   -0.312
        49           h48bf         1   UNL       h48        49     0.31236        1.0080 ; qtot    0.000

[ bonds ]
;       ai        aj funct               r               k
         1         2     1        0.138877   382001.906934    ;  uncertainty r = 0.000134, k = 8.822395
         1         5     1        0.141431   396079.468311    ;  uncertainty r = 0.000094, k = 15.205670
         1        31     1        0.108811   340366.765625    ;  uncertainty r = 0.000031, k = 1.855831
         2         3     1        0.142130   350389.902295    ;  uncertainty r = 0.000225, k = 14.491736
         2        12     1        0.140590   351897.740918    ;  uncertainty r = 0.000249, k = 8.479017
         3         4     1        0.138000   347495.985986    ;  uncertainty r = 0.000143, k = 17.234335
         3        32     1        0.108883   338510.268848    ;  uncertainty r = 0.000020, k = 3.739164
         4         6     1        0.143085   310245.234375    ;  uncertainty r = 0.000128, k = 17.466674
         4        11     1        0.148137   283751.862402    ;  uncertainty r = 0.000105, k = 15.453581
         5         6     1        0.142995   298655.600342    ;  uncertainty r = 0.000072, k = 15.498948
         5        10     1        0.136382   355171.598340    ;  uncertainty r = 0.000057, k = 8.738544
         6         7     1        0.135767   353109.910889    ;  uncertainty r = 0.000088, k = 12.675249
         7         8     1        0.131584   437137.956152    ;  uncertainty r = 0.000061, k = 11.801030
         8         9     1        0.141378   325245.374902    ;  uncertainty r = 0.000067, k = 16.241067
         8        33     1        0.109180   341408.015723    ;  uncertainty r = 0.000031, k = 1.111543
         9        10     1        0.131606   448634.967090    ;  uncertainty r = 0.000067, k = 6.059784
         9        34     1        0.109175   341608.175586    ;  uncertainty r = 0.000026, k = 2.358932
        11        13     1        0.141773   332885.056543    ;  uncertainty r = 0.000129, k = 5.382996
        11        15     1        0.139578   348941.182080    ;  uncertainty r = 0.000096, k = 3.247029
        12        22     1        0.139907   344745.128564    ;  uncertainty r = 0.000219, k = 22.450847
        12        35     1        0.101447   407237.882715    ;  uncertainty r = 0.000190, k = 5.493748
        13        14     1        0.138795   364168.909326    ;  uncertainty r = 0.000031, k = 1.854519
        13        36     1        0.108772   335281.433350    ;  uncertainty r = 0.000023, k = 2.010175
        14        17     1        0.140496   366588.397217    ;  uncertainty r = 0.000029, k = 1.524532
        14        37     1        0.108842   335262.612500    ;  uncertainty r = 0.000021, k = 1.243220
        15        16     1        0.139638   360882.589795    ;  uncertainty r = 0.000073, k = 8.112548
        15        38     1        0.108815   335784.310107    ;  uncertainty r = 0.000035, k = 1.319575
        16        17     1        0.142478   370413.064551    ;  uncertainty r = 0.000021, k = 8.656138
        16        20     1        0.138409   299089.858887    ;  uncertainty r = 0.000058, k = 4.369587
        17        18     1        0.143851   263887.924023    ;  uncertainty r = 0.000049, k = 9.849667
        18        19     1        0.137643   438880.659570    ;  uncertainty r = 0.000039, k = 2.390634
        18        39     1        0.108258   339903.777832    ;  uncertainty r = 0.000020, k = 1.257353
        19        20     1        0.138800   299198.136230    ;  uncertainty r = 0.000053, k = 11.566369
        19        40     1        0.108278   339863.020605    ;  uncertainty r = 0.000024, k = 2.230051
        20        21     1        0.145040   254644.665137    ;  uncertainty r = 0.000030, k = 4.755567
        21        41     1        0.109426   310040.631055    ;  uncertainty r = 0.000012, k = 1.344889
        21        42     1        0.109426   310040.631055    ;  uncertainty r = 0.000012, k = 1.344889
        21        43     1        0.109426   310040.631055    ;  uncertainty r = 0.000012, k = 1.344889
        22        23     1        0.142301   319985.241113    ;  uncertainty r = 0.000065, k = 19.745480
        22        27     1        0.140944   342113.350684    ;  uncertainty r = 0.000127, k = 6.320611
        23        24     1        0.140334   352590.613770    ;  uncertainty r = 0.000129, k = 6.320096
        23        28     1        0.148806   248520.227881    ;  uncertainty r = 0.000169, k = 30.544565
        24        25     1        0.139074   367703.577246    ;  uncertainty r = 0.000043, k = 4.374299
        24        44     1        0.108677   330978.660254    ;  uncertainty r = 0.000071, k = 2.222026
        25        26     1        0.139770   375317.926074    ;  uncertainty r = 0.000030, k = 2.177288
        25        45     1        0.108805   332997.138916    ;  uncertainty r = 0.000021, k = 1.453563
        26        27     1        0.138847   376428.637109    ;  uncertainty r = 0.000068, k = 3.742578
        26        46     1        0.108797   333140.197803    ;  uncertainty r = 0.000018, k = 0.818616
        27        47     1        0.108743   337214.541455    ;  uncertainty r = 0.000051, k = 1.386916
        28        29     1        0.124728   835983.374316    ;  uncertainty r = 0.000057, k = 13.622538
        28        30     1        0.138994   506914.787695    ;  uncertainty r = 0.000151, k = 18.827887
        30        48     1        0.101653   427755.315723    ;  uncertainty r = 0.000052, k = 3.050501
        30        49     1        0.101653   427755.315723    ;  uncertainty r = 0.000052, k = 3.050501

[ angles ]
;       ai        aj        ak funct           theta             cth
         1         2         3     1      119.296326      389.106446    ;  uncertainty theta = 0.003981, k = 0.081676
         1         2        12     1      121.945946      481.705281    ;  uncertainty theta = 0.005784, k = 0.193480
         1         5         6     1      119.517235      392.036797    ;  uncertainty theta = 0.005326, k = 0.191059
         1         5        10     1      122.312637      528.712396    ;  uncertainty theta = 0.003351, k = 0.210335
         2         1         5     1      118.279373      519.510258    ;  uncertainty theta = 0.002541, k = 0.067684
         2         1        31     1      121.496750      269.964275    ;  uncertainty theta = 0.001027, k = 0.149329
         2         3         4     1      122.407822      516.136902    ;  uncertainty theta = 0.004570, k = 0.263630
         2         3        32     1      119.455521      285.607797    ;  uncertainty theta = 0.005240, k = 0.143728
         2        12        22     1      115.142189      396.889901    ;  uncertainty theta = 0.007875, k = 0.183351
         2        12        35     1      115.841713      376.145916    ;  uncertainty theta = 0.005702, k = 0.151951
         3         2        12     1      120.206741      488.773442    ;  uncertainty theta = 0.003380, k = 0.179734
         3         4         6     1      121.234207      456.906322    ;  uncertainty theta = 0.004548, k = 0.137789
         3         4        11     1      121.228798      423.141028    ;  uncertainty theta = 0.002961, k = 0.156452
         4         3        32     1      118.704933      277.851890    ;  uncertainty theta = 0.005306, k = 0.050256
         4         6         5     1      120.727844      398.377566    ;  uncertainty theta = 0.005688, k = 0.083900
         4         6         7     1      118.059143      466.719084    ;  uncertainty theta = 0.004200, k = 0.232797
         4        11        13     1      119.939163      397.252815    ;  uncertainty theta = 0.003248, k = 0.114583
         4        11        15     1      119.830284      387.483818    ;  uncertainty theta = 0.002251, k = 0.190078
         5         1        31     1      120.837975      275.673543    ;  uncertainty theta = 0.003390, k = 0.103595
         5         6         7     1      119.722855      514.456752    ;  uncertainty theta = 0.004269, k = 0.061580
         5        10         9     1      114.458984      488.266148    ;  uncertainty theta = 0.001996, k = 0.147683
         6         4        11     1      119.335999      396.188588    ;  uncertainty theta = 0.004435, k = 0.267308
         6         5        10     1      119.243858      555.279545    ;  uncertainty theta = 0.007472, k = 0.086368
         6         7         8     1      116.502525      472.887605    ;  uncertainty theta = 0.004302, k = 0.130226
         7         8         9     1      121.240555      622.447314    ;  uncertainty theta = 0.002919, k = 0.205880
         7         8        33     1      116.813492      347.959523    ;  uncertainty theta = 0.001638, k = 0.087624
         8         9        10     1      120.931259      612.842998    ;  uncertainty theta = 0.002470, k = 0.239696
         8         9        34     1      121.868530      283.534439    ;  uncertainty theta = 0.002376, k = 0.096063
         9         8        33     1      121.994606      282.804174    ;  uncertainty theta = 0.002439, k = 0.090842
        10         9        34     1      116.754013      350.159800    ;  uncertainty theta = 0.001533, k = 0.075385
        11        13        14     1      122.513977      519.825227    ;  uncertainty theta = 0.002504, k = 0.082970
        11        13        36     1      118.705055      283.822243    ;  uncertainty theta = 0.003481, k = 0.052326
        11        15        16     1      118.386093      529.920716    ;  uncertainty theta = 0.003401, k = 0.180792
        11        15        38     1      120.176918      276.179305    ;  uncertainty theta = 0.003371, k = 0.099806
        12        22        23     1      120.038841      532.538813    ;  uncertainty theta = 0.002305, k = 0.296318
        12        22        27     1      119.596786      493.262355    ;  uncertainty theta = 0.006333, k = 0.370587
        13        11        15     1      122.892189      427.495488    ;  uncertainty theta = 0.004657, k = 0.054030
        13        14        17     1      119.126968      545.225329    ;  uncertainty theta = 0.002014, k = 0.075473
        13        14        37     1      120.552231      281.882188    ;  uncertainty theta = 0.001756, k = 0.032676
        14        13        36     1      119.644821      296.182906    ;  uncertainty theta = 0.002811, k = 0.056213
        14        17        16     1      116.316528      401.555212    ;  uncertainty theta = 0.003524, k = 0.104666
        14        17        18     1      133.137314      372.613048    ;  uncertainty theta = 0.003601, k = 0.161997
        15        16        17     1      122.096420      362.937197    ;  uncertainty theta = 0.001381, k = 0.132828
        15        16        20     1      127.554398      386.261612    ;  uncertainty theta = 0.001561, k = 0.197526
        16        15        38     1      122.049515      289.470477    ;  uncertainty theta = 0.001404, k = 0.108597
        16        17        18     1      106.331848      697.004628    ;  uncertainty theta = 0.002119, k = 0.268284
        16        20        19     1      107.260864      818.300726    ;  uncertainty theta = 0.002708, k = 0.112517
        16        20        21     1      120.714661      413.315913    ;  uncertainty theta = 0.003757, k = 0.146507
        17        14        37     1      121.660202      297.421073    ;  uncertainty theta = 0.001725, k = 0.098896
        17        16        20     1      108.699356      659.259248    ;  uncertainty theta = 0.001396, k = 0.199015
        17        18        19     1      106.600060      811.238758    ;  uncertainty theta = 0.002477, k = 0.071833
        17        18        39     1      125.357811      254.842571    ;  uncertainty theta = 0.003088, k = 0.059342
        18        19        20     1      111.357628      756.000331    ;  uncertainty theta = 0.002253, k = 0.100899
        18        19        40     1      128.154099      239.476972    ;  uncertainty theta = 0.003447, k = 0.106541
        19        18        39     1      123.663986      251.202927    ;  uncertainty theta = 0.003182, k = 0.069917
        19        20        21     1      121.539627      391.310362    ;  uncertainty theta = 0.002440, k = 0.111857
        20        19        40     1      117.041054      288.340843    ;  uncertainty theta = 0.001716, k = 0.115275
        20        21        41     1      109.087296      471.938965    ;  uncertainty theta = 0.000901, k = 0.078971
        20        21        42     1      109.087296      471.938965    ;  uncertainty theta = 0.000901, k = 0.078971
        20        21        43     1      109.087296      471.938965    ;  uncertainty theta = 0.000901, k = 0.078971
        22        12        35     1      116.379234      383.835299    ;  uncertainty theta = 0.008503, k = 0.172873
        22        23        24     1      123.502663      431.306295    ;  uncertainty theta = 0.002002, k = 0.339068
        22        23        28     1      118.345886      399.044914    ;  uncertainty theta = 0.004945, k = 0.257006
        22        27        26     1      120.921265      522.168448    ;  uncertainty theta = 0.004520, k = 0.210405
        22        27        47     1      118.735397      261.631484    ;  uncertainty theta = 0.002181, k = 0.098673
        23        22        27     1      122.438011      409.175581    ;  uncertainty theta = 0.004820, k = 0.252566
        23        24        25     1      123.787186      511.779250    ;  uncertainty theta = 0.004823, k = 0.230499
        23        24        44     1      117.080368      260.025838    ;  uncertainty theta = 0.004641, k = 0.077795
        23        28        29     1      124.898537      530.257391    ;  uncertainty theta = 0.003562, k = 0.167910
        23        28        30     1      115.582932      470.471539    ;  uncertainty theta = 0.003295, k = 0.243072
        24        23        28     1      117.603416      393.868287    ;  uncertainty theta = 0.003401, k = 0.121622
        24        25        26     1      118.046227      515.251626    ;  uncertainty theta = 0.002129, k = 0.075872
        24        25        45     1      120.505455      286.328901    ;  uncertainty theta = 0.001474, k = 0.085001
        25        24        44     1      120.260597      287.637998    ;  uncertainty theta = 0.001800, k = 0.078259
        25        26        27     1      118.711914      508.238434    ;  uncertainty theta = 0.002374, k = 0.100688
        25        26        46     1      120.730980      285.477877    ;  uncertainty theta = 0.001263, k = 0.017993
        26        25        45     1      121.069191      288.213796    ;  uncertainty theta = 0.001230, k = 0.035610
        26        27        47     1      121.185608      300.150255    ;  uncertainty theta = 0.001630, k = 0.075402
        27        26        46     1      119.753616      282.408668    ;  uncertainty theta = 0.002322, k = 0.061212
        28        30        48     1      116.909935      311.744007    ;  uncertainty theta = 0.001787, k = 0.092568
        28        30        49     1      116.909935      311.744007    ;  uncertainty theta = 0.001787, k = 0.092568
        29        28        30     1      126.573509      892.492669    ;  uncertainty theta = 0.004399, k = 0.044822
        41        21        42     1      107.317055      322.193856    ;  uncertainty theta = 0.001017, k = 0.038184
        41        21        43     1      107.317055      322.193856    ;  uncertainty theta = 0.001017, k = 0.038184
        42        21        43     1      107.317055      322.193856    ;  uncertainty theta = 0.001017, k = 0.038184
        48        30        49     1      109.834618      265.993478    ;  uncertainty theta = 0.001915, k = 0.057417

[ dihedrals ] ; propers for gromacs 4.5 or higher, use funct 9
;       ai        aj        ak        al funct           phase               k        pn
         1         2         3         4     9        0.000000       -0.078019         1    ;  uncertainty k = 0.348966
         1         2         3         4     9      180.000000        6.080121         2    ;  uncertainty k = 0.993865
         1         2         3         4     9        0.000000        0.319932         3    ;  uncertainty k = 0.208168
         1         2         3         4     9      180.000000        1.351336         4    ;  uncertainty k = 0.324167
         1         2         3        32     9        0.000000        0.279784         1    ;  uncertainty k = 0.392104
         1         2         3        32     9      180.000000        5.890657         2    ;  uncertainty k = 0.873684
         1         2         3        32     9        0.000000        1.148918         3    ;  uncertainty k = 0.157964
         1         2         3        32     9      180.000000        1.431758         4    ;  uncertainty k = 0.266041
         1         2        12        22     9        0.000000        2.458887         1    ;  uncertainty k = 1.335081
         1         2        12        22     9      180.000000        6.307976         2    ;  uncertainty k = 0.276449
         1         2        12        22     9        0.000000        0.217661         3    ;  uncertainty k = 0.306307
         1         2        12        22     9      180.000000        0.009958         4    ;  uncertainty k = 0.096083
         1         2        12        35     9        0.000000        3.887398         1    ;  uncertainty k = 1.045908
         1         2        12        35     9      180.000000        4.888870         2    ;  uncertainty k = 0.021377
         1         2        12        35     9        0.000000        0.535010         3    ;  uncertainty k = 0.274694
         1         2        12        35     9      180.000000       -0.052602         4    ;  uncertainty k = 0.072948
         1         5         6         4     9        0.000000       -0.713080         1    ;  uncertainty k = 0.521879
         1         5         6         4     9      180.000000        4.611688         2    ;  uncertainty k = 1.535208
         1         5         6         4     9        0.000000        0.274756         3    ;  uncertainty k = 0.299130
         1         5         6         4     9      180.000000        1.240053         4    ;  uncertainty k = 0.359772
         1         5         6         7     9        0.000000        0.076450         1    ;  uncertainty k = 0.284767
         1         5         6         7     9      180.000000        6.080416         2    ;  uncertainty k = 1.149880
         1         5         6         7     9        0.000000        0.106983         3    ;  uncertainty k = 0.156574
         1         5         6         7     9      180.000000        1.373586         4    ;  uncertainty k = 0.405208
         1         5        10         9     9        0.000000        0.427932         1    ;  uncertainty k = 1.029214
         1         5        10         9     9      180.000000       12.638436         2    ;  uncertainty k = 0.318597
         1         5        10         9     9        0.000000        2.227131         3    ;  uncertainty k = 0.470956
         1         5        10         9     9      180.000000        1.437848         4    ;  uncertainty k = 0.260470
         2         1         5         6     9        0.000000        0.096008         1    ;  uncertainty k = 0.404400
         2         1         5         6     9      180.000000        7.191110         2    ;  uncertainty k = 0.788008
         2         1         5         6     9        0.000000        0.054347         3    ;  uncertainty k = 0.305039
         2         1         5         6     9      180.000000        1.298492         4    ;  uncertainty k = 0.269139
         2         1         5        10     9        0.000000        0.127553         1    ;  uncertainty k = 0.442475
         2         1         5        10     9      180.000000        9.823442         2    ;  uncertainty k = 0.375802
         2         1         5        10     9        0.000000        0.572009         3    ;  uncertainty k = 0.284394
         2         1         5        10     9      180.000000        1.386361         4    ;  uncertainty k = 0.238578
         2         3         4         6     9        0.000000        0.006981         1    ;  uncertainty k = 0.551457
         2         3         4         6     9      180.000000       12.471965         2    ;  uncertainty k = 0.425355
         2         3         4         6     9        0.000000        0.358041         3    ;  uncertainty k = 0.232192
         2         3         4         6     9      180.000000        1.279602         4    ;  uncertainty k = 0.332572
         2         3         4        11     9        0.000000        0.179557         1    ;  uncertainty k = 0.200703
         2         3         4        11     9      180.000000       10.382174         2    ;  uncertainty k = 0.629278
         2         3         4        11     9        0.000000        1.348588         3    ;  uncertainty k = 0.270664
         2         3         4        11     9      180.000000        1.717172         4    ;  uncertainty k = 0.289727
         2        12        22        23     9        0.000000        2.821388         1    ;  uncertainty k = 0.668248
         2        12        22        23     9      180.000000        7.753540         2    ;  uncertainty k = 0.526586
         2        12        22        23     9        0.000000        0.160801         3    ;  uncertainty k = 0.281923
         2        12        22        23     9      180.000000        0.011598         4    ;  uncertainty k = 0.103910
         2        12        22        27     9        0.000000        2.257954         1    ;  uncertainty k = 1.410082
         2        12        22        27     9      180.000000        6.472730         2    ;  uncertainty k = 0.250088
         2        12        22        27     9        0.000000        0.240896         3    ;  uncertainty k = 0.188486
         2        12        22        27     9      180.000000        0.005605         4    ;  uncertainty k = 0.133471
         3         2         1         5     9        0.000000       -0.210326         1    ;  uncertainty k = 0.221416
         3         2         1         5     9      180.000000        9.569197         2    ;  uncertainty k = 0.280244
         3         2         1         5     9        0.000000        0.345413         3    ;  uncertainty k = 0.487384
         3         2         1         5     9      180.000000        1.381199         4    ;  uncertainty k = 0.295975
         3         2         1        31     9        0.000000        0.302307         1    ;  uncertainty k = 0.413095
         3         2         1        31     9      180.000000        6.971490         2    ;  uncertainty k = 0.620662
         3         2         1        31     9        0.000000        1.306449         3    ;  uncertainty k = 0.108481
         3         2         1        31     9      180.000000        1.631810         4    ;  uncertainty k = 0.154302
         3         2        12        22     9        0.000000        2.384682         1    ;  uncertainty k = 1.151287
         3         2        12        22     9      180.000000        6.324202         2    ;  uncertainty k = 0.334204
         3         2        12        22     9        0.000000        0.647534         3    ;  uncertainty k = 0.262412
         3         2        12        22     9      180.000000       -0.063244         4    ;  uncertainty k = 0.152283
         3         2        12        35     9        0.000000        3.417030         1    ;  uncertainty k = 0.945400
         3         2        12        35     9      180.000000        4.832571         2    ;  uncertainty k = 0.530837
         3         2        12        35     9        0.000000        0.599829         3    ;  uncertainty k = 0.305693
         3         2        12        35     9      180.000000       -0.049926         4    ;  uncertainty k = 0.141591
         3         4         6         5     9        0.000000       -0.064268         1    ;  uncertainty k = 0.482878
         3         4         6         5     9      180.000000        5.815078         2    ;  uncertainty k = 0.996902
         3         4         6         5     9        0.000000        0.060037         3    ;  uncertainty k = 0.264412
         3         4         6         5     9      180.000000        1.005082         4    ;  uncertainty k = 0.332027
         3         4         6         7     9        0.000000        0.261320         1    ;  uncertainty k = 0.518995
         3         4         6         7     9      180.000000        6.885065         2    ;  uncertainty k = 0.805626
         3         4         6         7     9        0.000000        0.373938         3    ;  uncertainty k = 0.290824
         3         4         6         7     9      180.000000        1.164313         4    ;  uncertainty k = 0.349614
         3         4        11        13     9        0.000000       -0.241234         1    ;  uncertainty k = 0.353962
         3         4        11        13     9      180.000000        5.771563         2    ;  uncertainty k = 0.169726
         3         4        11        13     9        0.000000        0.317160         3    ;  uncertainty k = 0.177141
         3         4        11        13     9      180.000000        0.588639         4    ;  uncertainty k = 0.117338
         3         4        11        15     9        0.000000       -0.358623         1    ;  uncertainty k = 0.397328
         3         4        11        15     9      180.000000        5.522278         2    ;  uncertainty k = 0.163710
         3         4        11        15     9        0.000000        0.471433         3    ;  uncertainty k = 0.101553
         3         4        11        15     9      180.000000        0.524759         4    ;  uncertainty k = 0.136869
         4         3         2        12     9        0.000000        0.257404         1    ;  uncertainty k = 0.703920
         4         3         2        12     9      180.000000        7.644251         2    ;  uncertainty k = 0.490893
         4         3         2        12     9        0.000000        0.823969         3    ;  uncertainty k = 0.153790
         4         3         2        12     9      180.000000        1.578621         4    ;  uncertainty k = 0.135825
         4         6         5        10     9        0.000000       -0.297577         1    ;  uncertainty k = 0.701970
         4         6         5        10     9      180.000000        5.014359         2    ;  uncertainty k = 1.176011
         4         6         5        10     9        0.000000        0.093992         3    ;  uncertainty k = 0.371276
         4         6         5        10     9      180.000000        1.323525         4    ;  uncertainty k = 0.229333
         4         6         7         8     9        0.000000       -0.230726         1    ;  uncertainty k = 0.542096
         4         6         7         8     9      180.000000       12.457806         2    ;  uncertainty k = 0.567635
         4         6         7         8     9        0.000000        2.051214         3    ;  uncertainty k = 0.352155
         4         6         7         8     9      180.000000        1.316225         4    ;  uncertainty k = 0.190864
         4        11        13        14     9        0.000000        0.106032         1    ;  uncertainty k = 0.347322
         4        11        13        14     9      180.000000        7.741873         2    ;  uncertainty k = 0.677794
         4        11        13        14     9        0.000000        1.125160         3    ;  uncertainty k = 0.437429
         4        11        13        14     9      180.000000        1.837354         4    ;  uncertainty k = 0.142429
         4        11        13        36     9        0.000000       -0.194197         1    ;  uncertainty k = 0.071949
         4        11        13        36     9      180.000000        7.286466         2    ;  uncertainty k = 0.459537
         4        11        13        36     9        0.000000        0.820345         3    ;  uncertainty k = 0.187087
         4        11        13        36     9      180.000000        1.127885         4    ;  uncertainty k = 0.183907
         4        11        15        16     9        0.000000        0.008340         1    ;  uncertainty k = 0.510404
         4        11        15        16     9      180.000000       10.601908         2    ;  uncertainty k = 0.755181
         4        11        15        16     9        0.000000        1.446684         3    ;  uncertainty k = 0.244023
         4        11        15        16     9      180.000000        1.685324         4    ;  uncertainty k = 0.268772
         4        11        15        38     9        0.000000       -0.217859         1    ;  uncertainty k = 0.216539
         4        11        15        38     9      180.000000        7.816293         2    ;  uncertainty k = 0.229989
         4        11        15        38     9        0.000000        0.863298         3    ;  uncertainty k = 0.206755
         4        11        15        38     9      180.000000        1.171828         4    ;  uncertainty k = 0.102501
         5         1         2        12     9        0.000000       -0.208553         1    ;  uncertainty k = 0.405757
         5         1         2        12     9      180.000000       11.185826         2    ;  uncertainty k = 0.468460
         5         1         2        12     9        0.000000        0.977780         3    ;  uncertainty k = 0.199162
         5         1         2        12     9      180.000000        1.579858         4    ;  uncertainty k = 0.175826
         5         6         4        11     9        0.000000        0.163367         1    ;  uncertainty k = 0.742863
         5         6         4        11     9      180.000000        4.925989         2    ;  uncertainty k = 0.482652
         5         6         4        11     9        0.000000        1.071668         3    ;  uncertainty k = 0.234643
         5         6         4        11     9      180.000000        1.265583         4    ;  uncertainty k = 0.346237
         5         6         7         8     9        0.000000       -0.112022         1    ;  uncertainty k = 0.910117
         5         6         7         8     9      180.000000       11.596635         2    ;  uncertainty k = 0.629166
         5         6         7         8     9        0.000000        1.457657         3    ;  uncertainty k = 0.287216
         5         6         7         8     9      180.000000        1.330866         4    ;  uncertainty k = 0.318778
         5        10         9         8     9        0.000000        0.013311         1    ;  uncertainty k = 0.131653
         5        10         9         8     9      180.000000       17.231919         2    ;  uncertainty k = 0.196674
         5        10         9         8     9        0.000000        0.888029         3    ;  uncertainty k = 0.629562
         5        10         9         8     9      180.000000        1.519865         4    ;  uncertainty k = 0.234840
         5        10         9        34     9        0.000000        0.424411         1    ;  uncertainty k = 0.517708
         5        10         9        34     9      180.000000       19.045700         2    ;  uncertainty k = 0.443936
         5        10         9        34     9        0.000000        2.354564         3    ;  uncertainty k = 0.582721
         5        10         9        34     9      180.000000        1.407429         4    ;  uncertainty k = 0.336465
         6         4         3        32     9        0.000000        0.123738         1    ;  uncertainty k = 0.256829
         6         4         3        32     9      180.000000        9.582771         2    ;  uncertainty k = 0.350597
         6         4         3        32     9        0.000000        1.473211         3    ;  uncertainty k = 0.141253
         6         4         3        32     9      180.000000        1.670290         4    ;  uncertainty k = 0.172671
         6         4        11        13     9        0.000000        0.294934         1    ;  uncertainty k = 0.682343
         6         4        11        13     9      180.000000        5.135221         2    ;  uncertainty k = 0.368550
         6         4        11        13     9        0.000000        0.449391         3    ;  uncertainty k = 0.368548
         6         4        11        13     9      180.000000        0.735448         4    ;  uncertainty k = 0.087901
         6         4        11        15     9        0.000000       -0.139301         1    ;  uncertainty k = 0.564768
         6         4        11        15     9      180.000000        5.053884         2    ;  uncertainty k = 0.350243
         6         4        11        15     9        0.000000        0.265394         3    ;  uncertainty k = 0.358781
         6         4        11        15     9      180.000000        0.716032         4    ;  uncertainty k = 0.142482
         6         5         1        31     9        0.000000       -0.216754         1    ;  uncertainty k = 0.343873
         6         5         1        31     9      180.000000        5.853912         2    ;  uncertainty k = 0.879793
         6         5         1        31     9        0.000000        1.199031         3    ;  uncertainty k = 0.162614
         6         5         1        31     9      180.000000        1.246407         4    ;  uncertainty k = 0.338414
         6         5        10         9     9        0.000000       -0.063178         1    ;  uncertainty k = 1.326752
         6         5        10         9     9      180.000000       10.095142         2    ;  uncertainty k = 0.612694
         6         5        10         9     9        0.000000        1.278116         3    ;  uncertainty k = 0.488029
         6         5        10         9     9      180.000000        1.281711         4    ;  uncertainty k = 0.220795
         6         7         8         9     9        0.000000        0.020377         1    ;  uncertainty k = 0.368422
         6         7         8         9     9      180.000000       16.581266         2    ;  uncertainty k = 0.335688
         6         7         8         9     9        0.000000        0.829256         3    ;  uncertainty k = 0.750676
         6         7         8         9     9      180.000000        1.566270         4    ;  uncertainty k = 0.253962
         6         7         8        33     9        0.000000        0.275900         1    ;  uncertainty k = 0.531876
         6         7         8        33     9      180.000000       18.156242         2    ;  uncertainty k = 0.522836
         6         7         8        33     9        0.000000        2.344022         3    ;  uncertainty k = 0.655907
         6         7         8        33     9      180.000000        1.633482         4    ;  uncertainty k = 0.415921
         7         6         4        11     9        0.000000        0.205608         1    ;  uncertainty k = 1.297119
         7         6         4        11     9      180.000000        7.137753         2    ;  uncertainty k = 0.766262
         7         6         4        11     9        0.000000        0.773424         3    ;  uncertainty k = 0.512634
         7         6         4        11     9      180.000000        1.176773         4    ;  uncertainty k = 0.263387
         7         6         5        10     9        0.000000       -0.400492         1    ;  uncertainty k = 0.890675
         7         6         5        10     9      180.000000        7.087146         2    ;  uncertainty k = 0.720455
         7         6         5        10     9        0.000000        0.077638         3    ;  uncertainty k = 0.327161
         7         6         5        10     9      180.000000        1.330895         4    ;  uncertainty k = 0.356325
         7         8         9        10     9        0.000000       -0.202866         1    ;  uncertainty k = 0.782206
         7         8         9        10     9      180.000000       12.112991         2    ;  uncertainty k = 0.805807
         7         8         9        10     9        0.000000       -1.599825         3    ;  uncertainty k = 0.569696
         7         8         9        10     9      180.000000        0.918172         4    ;  uncertainty k = 0.463986
         7         8         9        34     9        0.000000        0.036887         1    ;  uncertainty k = 0.700692
         7         8         9        34     9      180.000000        6.513920         2    ;  uncertainty k = 1.135261
         7         8         9        34     9        0.000000        0.521732         3    ;  uncertainty k = 0.385188
         7         8         9        34     9      180.000000        1.117821         4    ;  uncertainty k = 0.330142
        10         5         1        31     9        0.000000        0.139927         1    ;  uncertainty k = 0.233388
        10         5         1        31     9      180.000000        8.199302         2    ;  uncertainty k = 0.492393
        10         5         1        31     9        0.000000        1.032825         3    ;  uncertainty k = 0.329116
        10         5         1        31     9      180.000000        1.219854         4    ;  uncertainty k = 0.291231
        10         9         8        33     9        0.000000       -0.033262         1    ;  uncertainty k = 0.634830
        10         9         8        33     9      180.000000        6.504272         2    ;  uncertainty k = 1.136878
        10         9         8        33     9        0.000000        0.521238         3    ;  uncertainty k = 0.433609
        10         9         8        33     9      180.000000        1.070757         4    ;  uncertainty k = 0.343719
        11         4         3        32     9        0.000000        0.133920         1    ;  uncertainty k = 0.241849
        11         4         3        32     9      180.000000        8.368020         2    ;  uncertainty k = 0.247907
        11         4         3        32     9        0.000000        1.001196         3    ;  uncertainty k = 0.152989
        11         4         3        32     9      180.000000        1.398313         4    ;  uncertainty k = 0.293351
        11        13        14        17     9        0.000000       -0.088237         1    ;  uncertainty k = 0.303401
        11        13        14        17     9      180.000000       16.637935         2    ;  uncertainty k = 0.333977
        11        13        14        17     9        0.000000       -0.360479         3    ;  uncertainty k = 0.532645
        11        13        14        17     9      180.000000        0.692098         4    ;  uncertainty k = 0.430868
        11        13        14        37     9        0.000000       -0.068872         1    ;  uncertainty k = 0.208187
        11        13        14        37     9      180.000000        8.826761         2    ;  uncertainty k = 0.512391
        11        13        14        37     9        0.000000        1.364385         3    ;  uncertainty k = 0.219987
        11        13        14        37     9      180.000000        1.899722         4    ;  uncertainty k = 0.318557
        11        15        16        17     9        0.000000       -0.149024         1    ;  uncertainty k = 0.543451
        11        15        16        17     9      180.000000       12.121193         2    ;  uncertainty k = 0.115800
        11        15        16        17     9        0.000000       -0.939443         3    ;  uncertainty k = 0.507589
        11        15        16        17     9      180.000000        0.860046         4    ;  uncertainty k = 0.197235
        11        15        16        20     9        0.000000        0.212529         1    ;  uncertainty k = 0.147666
        11        15        16        20     9      180.000000       10.459763         2    ;  uncertainty k = 0.471484
        11        15        16        20     9        0.000000        1.021284         3    ;  uncertainty k = 0.274552
        11        15        16        20     9      180.000000        1.335798         4    ;  uncertainty k = 0.221198
        12         2         1        31     9        0.000000       -0.483867         1    ;  uncertainty k = 0.304741
        12         2         1        31     9      180.000000        8.143642         2    ;  uncertainty k = 0.614314
        12         2         1        31     9        0.000000        0.750420         3    ;  uncertainty k = 0.210774
        12         2         1        31     9      180.000000        1.096109         4    ;  uncertainty k = 0.297701
        12         2         3        32     9        0.000000       -0.277377         1    ;  uncertainty k = 0.348850
        12         2         3        32     9      180.000000        7.294892         2    ;  uncertainty k = 0.507410
        12         2         3        32     9        0.000000        0.830212         3    ;  uncertainty k = 0.181722
        12         2         3        32     9      180.000000        1.116421         4    ;  uncertainty k = 0.176194
        12        22        23        24     9        0.000000        0.018174         1    ;  uncertainty k = 0.472800
        12        22        23        24     9      180.000000        6.926168         2    ;  uncertainty k = 0.449686
        12        22        23        24     9        0.000000        1.080702         3    ;  uncertainty k = 0.374692
        12        22        23        24     9      180.000000        1.629552         4    ;  uncertainty k = 0.211439
        12        22        23        28     9        0.000000       -0.331743         1    ;  uncertainty k = 0.283244
        12        22        23        28     9      180.000000        7.932543         2    ;  uncertainty k = 1.100505
        12        22        23        28     9        0.000000        1.262347         3    ;  uncertainty k = 0.414374
        12        22        23        28     9      180.000000        1.581953         4    ;  uncertainty k = 0.330538
        12        22        27        26     9        0.000000        0.220566         1    ;  uncertainty k = 0.478949
        12        22        27        26     9      180.000000        9.716504         2    ;  uncertainty k = 0.649642
        12        22        27        26     9        0.000000        0.943478         3    ;  uncertainty k = 0.060014
        12        22        27        26     9      180.000000        1.609572         4    ;  uncertainty k = 0.257741
        12        22        27        47     9        0.000000       -0.360596         1    ;  uncertainty k = 0.328542
        12        22        27        47     9      180.000000        7.729436         2    ;  uncertainty k = 0.530341
        12        22        27        47     9        0.000000        0.740512         3    ;  uncertainty k = 0.177754
        12        22        27        47     9      180.000000        1.210103         4    ;  uncertainty k = 0.330144
        13        11        15        16     9        0.000000       -0.053115         1    ;  uncertainty k = 0.278158
        13        11        15        16     9      180.000000       13.312170         2    ;  uncertainty k = 0.270025
        13        11        15        16     9        0.000000       -0.017985         3    ;  uncertainty k = 0.385054
        13        11        15        16     9      180.000000        0.899869         4    ;  uncertainty k = 0.336493
        13        11        15        38     9        0.000000        0.324286         1    ;  uncertainty k = 0.275978
        13        11        15        38     9      180.000000        7.772420         2    ;  uncertainty k = 0.500280
        13        11        15        38     9        0.000000        1.473057         3    ;  uncertainty k = 0.166957
        13        11        15        38     9      180.000000        1.643833         4    ;  uncertainty k = 0.220962
        13        14        17        16     9        0.000000        0.015179         1    ;  uncertainty k = 0.183013
        13        14        17        16     9      180.000000       13.267788         2    ;  uncertainty k = 0.263041
        13        14        17        16     9        0.000000       -1.677048         3    ;  uncertainty k = 0.342200
        13        14        17        16     9      180.000000        0.680123         4    ;  uncertainty k = 0.245766
        13        14        17        18     9        0.000000        0.168081         1    ;  uncertainty k = 0.172640
        13        14        17        18     9      180.000000        8.937069         2    ;  uncertainty k = 0.347169
        13        14        17        18     9        0.000000        0.640838         3    ;  uncertainty k = 0.199488
        13        14        17        18     9      180.000000        1.231015         4    ;  uncertainty k = 0.108242
        14        13        11        15     9        0.000000       -0.234353         1    ;  uncertainty k = 0.151821
        14        13        11        15     9      180.000000       10.060344         2    ;  uncertainty k = 0.243332
        14        13        11        15     9        0.000000       -0.319786         3    ;  uncertainty k = 0.496922
        14        13        11        15     9      180.000000        0.990976         4    ;  uncertainty k = 0.258596
        14        17        16        15     9        0.000000       -0.563658         1    ;  uncertainty k = 1.052576
        14        17        16        15     9      180.000000        7.918710         2    ;  uncertainty k = 0.880080
        14        17        16        15     9        0.000000        0.146189         3    ;  uncertainty k = 0.303935
        14        17        16        15     9      180.000000        0.889831         4    ;  uncertainty k = 0.388926
        14        17        16        20     9        0.000000        0.176056         1    ;  uncertainty k = 0.453596
        14        17        16        20     9      180.000000        8.243113         2    ;  uncertainty k = 0.257976
        14        17        16        20     9        0.000000       -0.059609         3    ;  uncertainty k = 0.396357
        14        17        16        20     9      180.000000        1.309643         4    ;  uncertainty k = 0.308186
        14        17        18        19     9        0.000000        0.511305         1    ;  uncertainty k = 0.793984
        14        17        18        19     9      180.000000        6.744679         2    ;  uncertainty k = 0.997873
        14        17        18        19     9        0.000000        0.274717         3    ;  uncertainty k = 0.537264
        14        17        18        19     9      180.000000        1.010143         4    ;  uncertainty k = 0.225695
        14        17        18        39     9        0.000000        0.606453         1    ;  uncertainty k = 0.850020
        14        17        18        39     9      180.000000        4.093390         2    ;  uncertainty k = 0.848756
        14        17        18        39     9        0.000000        1.375301         3    ;  uncertainty k = 0.426874
        14        17        18        39     9      180.000000        0.101118         4    ;  uncertainty k = 0.145410
        15        11        13        36     9        0.000000        0.170680         1    ;  uncertainty k = 0.094348
        15        11        13        36     9      180.000000        6.588587         2    ;  uncertainty k = 0.576707
        15        11        13        36     9        0.000000        1.389950         3    ;  uncertainty k = 0.140404
        15        11        13        36     9      180.000000        1.590416         4    ;  uncertainty k = 0.228049
        15        16        17        18     9        0.000000        0.110683         1    ;  uncertainty k = 0.560069
        15        16        17        18     9      180.000000        7.680716         2    ;  uncertainty k = 0.276652
        15        16        17        18     9        0.000000        0.240823         3    ;  uncertainty k = 0.430528
        15        16        17        18     9      180.000000        1.182835         4    ;  uncertainty k = 0.239317
        15        16        20        19     9        0.000000        1.096033         1    ;  uncertainty k = 1.298951
        15        16        20        19     9      180.000000        6.112340         2    ;  uncertainty k = 0.742501
        15        16        20        19     9        0.000000        0.700126         3    ;  uncertainty k = 0.193201
        15        16        20        19     9      180.000000        0.290744         4    ;  uncertainty k = 0.152037
        15        16        20        21     9        0.000000        0.381171         1    ;  uncertainty k = 1.813554
        15        16        20        21     9      180.000000        2.830187         2    ;  uncertainty k = 0.478377
        15        16        20        21     9        0.000000        0.849606         3    ;  uncertainty k = 0.419853
        15        16        20        21     9      180.000000        0.083786         4    ;  uncertainty k = 0.135735
        16        17        14        37     9        0.000000        0.124387         1    ;  uncertainty k = 0.373034
        16        17        14        37     9      180.000000        7.210887         2    ;  uncertainty k = 0.881417
        16        17        14        37     9        0.000000        1.401519         3    ;  uncertainty k = 0.369643
        16        17        14        37     9      180.000000        1.163098         4    ;  uncertainty k = 0.413706
        16        17        18        19     9        0.000000        0.450027         1    ;  uncertainty k = 0.908073
        16        17        18        19     9      180.000000       13.173235         2    ;  uncertainty k = 0.776587
        16        17        18        19     9        0.000000      -10.991006         3    ;  uncertainty k = 2.573421
        16        17        18        19     9      180.000000        1.867148         4    ;  uncertainty k = 0.661434
        16        17        18        39     9        0.000000        0.023375         1    ;  uncertainty k = 0.592174
        16        17        18        39     9      180.000000        8.114226         2    ;  uncertainty k = 0.620357
        16        17        18        39     9        0.000000        1.336432         3    ;  uncertainty k = 0.600041
        16        17        18        39     9      180.000000        0.332208         4    ;  uncertainty k = 0.200948
        16        20        19        18     9        0.000000       -0.256602         1    ;  uncertainty k = 0.388703
        16        20        19        18     9      180.000000       15.681418         2    ;  uncertainty k = 0.602078
        16        20        19        18     9        0.000000       -6.396111         3    ;  uncertainty k = 1.656550
        16        20        19        18     9      180.000000        0.936026         4    ;  uncertainty k = 0.391999
        16        20        19        40     9        0.000000        1.176326         1    ;  uncertainty k = 0.849237
        16        20        19        40     9      180.000000        7.035330         2    ;  uncertainty k = 0.660686
        16        20        19        40     9        0.000000        1.598165         3    ;  uncertainty k = 0.299780
        16        20        19        40     9      180.000000        0.164807         4    ;  uncertainty k = 0.100188
        16        20        21        41     9        0.000000       -0.408568         1    ;  uncertainty k = 0.246905
        16        20        21        41     9      180.000000       -1.317196         2    ;  uncertainty k = 0.168942
        16        20        21        41     9        0.000000        1.090647         3    ;  uncertainty k = 0.080702
        16        20        21        41     9      180.000000        0.217211         4    ;  uncertainty k = 0.045154
        16        20        21        42     9        0.000000       -0.408568         1    ;  uncertainty k = 0.246905
        16        20        21        42     9      180.000000       -1.317196         2    ;  uncertainty k = 0.168942
        16        20        21        42     9        0.000000        1.090647         3    ;  uncertainty k = 0.080702
        16        20        21        42     9      180.000000        0.217211         4    ;  uncertainty k = 0.045154
        16        20        21        43     9        0.000000       -0.408568         1    ;  uncertainty k = 0.246905
        16        20        21        43     9      180.000000       -1.317196         2    ;  uncertainty k = 0.168942
        16        20        21        43     9        0.000000        1.090647         3    ;  uncertainty k = 0.080702
        16        20        21        43     9      180.000000        0.217211         4    ;  uncertainty k = 0.045154
        17        14        13        36     9        0.000000       -0.025946         1    ;  uncertainty k = 0.303009
        17        14        13        36     9      180.000000       11.299048         2    ;  uncertainty k = 0.337051
        17        14        13        36     9        0.000000        1.440131         3    ;  uncertainty k = 0.287190
        17        14        13        36     9      180.000000        1.704245         4    ;  uncertainty k = 0.284573
        17        16        15        38     9        0.000000        0.113361         1    ;  uncertainty k = 0.441544
        17        16        15        38     9      180.000000        6.764951         2    ;  uncertainty k = 0.865473
        17        16        15        38     9        0.000000        1.346687         3    ;  uncertainty k = 0.169660
        17        16        15        38     9      180.000000        1.338700         4    ;  uncertainty k = 0.261595
        17        16        20        19     9        0.000000        0.268811         1    ;  uncertainty k = 0.833799
        17        16        20        19     9      180.000000       14.131316         2    ;  uncertainty k = 0.606105
        17        16        20        19     9        0.000000       -6.512747         3    ;  uncertainty k = 1.135818
        17        16        20        19     9      180.000000        0.929198         4    ;  uncertainty k = 0.439288
        17        16        20        21     9        0.000000        2.277569         1    ;  uncertainty k = 0.770886
        17        16        20        21     9      180.000000        5.178088         2    ;  uncertainty k = 0.354898
        17        16        20        21     9        0.000000        1.568715         3    ;  uncertainty k = 0.279168
        17        16        20        21     9      180.000000        0.176309         4    ;  uncertainty k = 0.114600
        17        18        19        20     9        0.000000       -0.277607         1    ;  uncertainty k = 0.238564
        17        18        19        20     9      180.000000       22.092014         2    ;  uncertainty k = 0.248817
        17        18        19        20     9        0.000000       -6.461113         3    ;  uncertainty k = 0.282795
        17        18        19        20     9      180.000000        1.349535         4    ;  uncertainty k = 0.401228
        17        18        19        40     9        0.000000       -0.004714         1    ;  uncertainty k = 0.396226
        17        18        19        40     9      180.000000       12.360945         2    ;  uncertainty k = 0.135928
        17        18        19        40     9        0.000000        1.866097         3    ;  uncertainty k = 0.177332
        17        18        19        40     9      180.000000        0.972890         4    ;  uncertainty k = 0.182999
        18        17        14        37     9        0.000000        0.105499         1    ;  uncertainty k = 0.553991
        18        17        14        37     9      180.000000        5.639369         2    ;  uncertainty k = 0.488478
        18        17        14        37     9        0.000000        1.044664         3    ;  uncertainty k = 0.341162
        18        17        14        37     9      180.000000        0.711452         4    ;  uncertainty k = 0.362067
        18        17        16        20     9        0.000000       -0.248706         1    ;  uncertainty k = 0.120972
        18        17        16        20     9      180.000000       12.895532         2    ;  uncertainty k = 0.840948
        18        17        16        20     9        0.000000       -3.668924         3    ;  uncertainty k = 1.019109
        18        17        16        20     9      180.000000        1.520072         4    ;  uncertainty k = 0.794284
        18        19        20        21     9        0.000000        1.377314         1    ;  uncertainty k = 0.855302
        18        19        20        21     9      180.000000        8.854296         2    ;  uncertainty k = 0.336077
        18        19        20        21     9        0.000000        1.850755         3    ;  uncertainty k = 0.421572
        18        19        20        21     9      180.000000        0.005711         4    ;  uncertainty k = 0.191906
        19        20        21        41     9        0.000000        0.012373         1    ;  uncertainty k = 0.156207
        19        20        21        41     9      180.000000       -1.304491         2    ;  uncertainty k = 0.215975
        19        20        21        41     9        0.000000        0.598725         3    ;  uncertainty k = 0.126338
        19        20        21        41     9      180.000000        0.181531         4    ;  uncertainty k = 0.051525
        19        20        21        42     9        0.000000        0.012373         1    ;  uncertainty k = 0.156207
        19        20        21        42     9      180.000000       -1.304491         2    ;  uncertainty k = 0.215975
        19        20        21        42     9        0.000000        0.598725         3    ;  uncertainty k = 0.126338
        19        20        21        42     9      180.000000        0.181531         4    ;  uncertainty k = 0.051525
        19        20        21        43     9        0.000000        0.012373         1    ;  uncertainty k = 0.156207
        19        20        21        43     9      180.000000       -1.304491         2    ;  uncertainty k = 0.215975
        19        20        21        43     9        0.000000        0.598725         3    ;  uncertainty k = 0.126338
        19        20        21        43     9      180.000000        0.181531         4    ;  uncertainty k = 0.051525
        20        16        15        38     9        0.000000        0.243928         1    ;  uncertainty k = 0.292556
        20        16        15        38     9      180.000000        5.709933         2    ;  uncertainty k = 0.412052
        20        16        15        38     9        0.000000        1.177664         3    ;  uncertainty k = 0.438420
        20        16        15        38     9      180.000000        0.924567         4    ;  uncertainty k = 0.367001
        20        19        18        39     9        0.000000        0.281182         1    ;  uncertainty k = 0.777506
        20        19        18        39     9      180.000000       14.368325         2    ;  uncertainty k = 0.563599
        20        19        18        39     9        0.000000        1.716577         3    ;  uncertainty k = 0.616570
        20        19        18        39     9      180.000000        0.925073         4    ;  uncertainty k = 0.423264
        21        20        19        40     9        0.000000       -0.357950         1    ;  uncertainty k = 0.336354
        21        20        19        40     9      180.000000        2.701717         2    ;  uncertainty k = 0.518907
        21        20        19        40     9        0.000000        1.060504         3    ;  uncertainty k = 0.337396
        21        20        19        40     9      180.000000        0.096607         4    ;  uncertainty k = 0.212503
        22        23        24        25     9        0.000000       -0.097756         1    ;  uncertainty k = 0.520200
        22        23        24        25     9      180.000000       10.529178         2    ;  uncertainty k = 0.241347
        22        23        24        25     9        0.000000       -0.190315         3    ;  uncertainty k = 0.507514
        22        23        24        25     9      180.000000        1.007663         4    ;  uncertainty k = 0.268928
        22        23        24        44     9        0.000000        0.299967         1    ;  uncertainty k = 0.265383
        22        23        24        44     9      180.000000        7.994061         2    ;  uncertainty k = 0.697696
        22        23        24        44     9        0.000000        1.163083         3    ;  uncertainty k = 0.266857
        22        23        24        44     9      180.000000        1.545724         4    ;  uncertainty k = 0.245067
        22        23        28        29     9        0.000000       -2.148981         1    ;  uncertainty k = 1.071143
        22        23        28        29     9      180.000000        1.378768         2    ;  uncertainty k = 1.898906
        22        23        28        29     9        0.000000        1.056626         3    ;  uncertainty k = 0.496252
        22        23        28        29     9      180.000000        0.261671         4    ;  uncertainty k = 0.064421
        22        23        28        30     9        0.000000        1.014946         1    ;  uncertainty k = 0.469419
        22        23        28        30     9      180.000000        3.972845         2    ;  uncertainty k = 0.705847
        22        23        28        30     9        0.000000        0.407898         3    ;  uncertainty k = 0.409694
        22        23        28        30     9      180.000000        0.001747         4    ;  uncertainty k = 0.292771
        22        27        26        25     9        0.000000       -0.195605         1    ;  uncertainty k = 0.311908
        22        27        26        25     9      180.000000       14.233034         2    ;  uncertainty k = 0.202035
        22        27        26        25     9        0.000000       -1.012518         3    ;  uncertainty k = 0.420848
        22        27        26        25     9      180.000000        0.674168         4    ;  uncertainty k = 0.294987
        22        27        26        46     9        0.000000        0.095563         1    ;  uncertainty k = 0.249666
        22        27        26        46     9      180.000000        8.201251         2    ;  uncertainty k = 0.533803
        22        27        26        46     9        0.000000        1.297010         3    ;  uncertainty k = 0.192511
        22        27        26        46     9      180.000000        1.605652         4    ;  uncertainty k = 0.084916
        23        22        12        35     9        0.000000        5.309895         1    ;  uncertainty k = 0.583945
        23        22        12        35     9      180.000000        2.428484         2    ;  uncertainty k = 0.587172
        23        22        12        35     9        0.000000        0.470338         3    ;  uncertainty k = 0.172854
        23        22        12        35     9      180.000000       -0.168226         4    ;  uncertainty k = 0.044718
        23        22        27        26     9        0.000000        0.338301         1    ;  uncertainty k = 0.440953
        23        22        27        26     9      180.000000        6.253514         2    ;  uncertainty k = 0.661248
        23        22        27        26     9        0.000000        0.654664         3    ;  uncertainty k = 0.352396
        23        22        27        26     9      180.000000        1.400083         4    ;  uncertainty k = 0.248137
        23        22        27        47     9        0.000000        0.323026         1    ;  uncertainty k = 0.558192
        23        22        27        47     9      180.000000        5.291600         2    ;  uncertainty k = 0.549652
        23        22        27        47     9        0.000000        1.200791         3    ;  uncertainty k = 0.216241
        23        22        27        47     9      180.000000        1.345171         4    ;  uncertainty k = 0.111434
        23        24        25        26     9        0.000000       -0.092830         1    ;  uncertainty k = 0.119387
        23        24        25        26     9      180.000000       13.025062         2    ;  uncertainty k = 0.178781
        23        24        25        26     9        0.000000       -0.881845         3    ;  uncertainty k = 0.390070
        23        24        25        26     9      180.000000        0.800398         4    ;  uncertainty k = 0.233449
        23        24        25        45     9        0.000000       -0.151539         1    ;  uncertainty k = 0.460100
        23        24        25        45     9      180.000000        7.899463         2    ;  uncertainty k = 0.343627
        23        24        25        45     9        0.000000        1.286609         3    ;  uncertainty k = 0.356235
        23        24        25        45     9      180.000000        1.710743         4    ;  uncertainty k = 0.112391
        23        28        30        48     9        0.000000        3.472692         1    ;  uncertainty k = 1.108501
        23        28        30        48     9      180.000000        7.373101         2    ;  uncertainty k = 0.621415
        23        28        30        48     9        0.000000        2.734877         3    ;  uncertainty k = 0.434689
        23        28        30        48     9      180.000000       -0.298310         4    ;  uncertainty k = 0.314365
        23        28        30        49     9        0.000000        3.472692         1    ;  uncertainty k = 1.108501
        23        28        30        49     9      180.000000        7.373101         2    ;  uncertainty k = 0.621415
        23        28        30        49     9        0.000000        2.734877         3    ;  uncertainty k = 0.434689
        23        28        30        49     9      180.000000       -0.298310         4    ;  uncertainty k = 0.314365
        24        23        22        27     9        0.000000       -0.186751         1    ;  uncertainty k = 0.717845
        24        23        22        27     9      180.000000        4.972438         2    ;  uncertainty k = 0.649773
        24        23        22        27     9        0.000000        0.326431         3    ;  uncertainty k = 0.165761
        24        23        22        27     9      180.000000        1.442102         4    ;  uncertainty k = 0.228730
        24        23        28        29     9        0.000000       -3.528814         1    ;  uncertainty k = 0.990395
        24        23        28        29     9      180.000000        3.267381         2    ;  uncertainty k = 0.459822
        24        23        28        29     9        0.000000        0.590762         3    ;  uncertainty k = 0.246451
        24        23        28        29     9      180.000000        0.239937         4    ;  uncertainty k = 0.198667
        24        23        28        30     9        0.000000        0.458298         1    ;  uncertainty k = 0.124978
        24        23        28        30     9      180.000000        3.680366         2    ;  uncertainty k = 0.224631
        24        23        28        30     9        0.000000        0.491036         3    ;  uncertainty k = 0.280515
        24        23        28        30     9      180.000000        0.003257         4    ;  uncertainty k = 0.174398
        24        25        26        27     9        0.000000       -0.088423         1    ;  uncertainty k = 0.192432
        24        25        26        27     9      180.000000       14.839734         2    ;  uncertainty k = 0.441652
        24        25        26        27     9        0.000000       -1.051538         3    ;  uncertainty k = 0.409178
        24        25        26        27     9      180.000000        0.523528         4    ;  uncertainty k = 0.219582
        24        25        26        46     9        0.000000        0.068974         1    ;  uncertainty k = 0.197803
        24        25        26        46     9      180.000000        7.318882         2    ;  uncertainty k = 0.429873
        24        25        26        46     9        0.000000        1.350347         3    ;  uncertainty k = 0.216815
        24        25        26        46     9      180.000000        1.655309         4    ;  uncertainty k = 0.084322
        25        24        23        28     9        0.000000        0.326636         1    ;  uncertainty k = 0.596655
        25        24        23        28     9      180.000000        8.983565         2    ;  uncertainty k = 0.902690
        25        24        23        28     9        0.000000        1.420209         3    ;  uncertainty k = 0.570449
        25        24        23        28     9      180.000000        1.789579         4    ;  uncertainty k = 0.459646
        25        26        27        47     9        0.000000       -0.022518         1    ;  uncertainty k = 0.086677
        25        26        27        47     9      180.000000        8.695580         2    ;  uncertainty k = 0.492121
        25        26        27        47     9        0.000000        1.339009         3    ;  uncertainty k = 0.272371
        25        26        27        47     9      180.000000        1.819326         4    ;  uncertainty k = 0.165764
        26        25        24        44     9        0.000000        0.049101         1    ;  uncertainty k = 0.134627
        26        25        24        44     9      180.000000        8.049807         2    ;  uncertainty k = 0.285010
        26        25        24        44     9        0.000000        1.310866         3    ;  uncertainty k = 0.253458
        26        25        24        44     9      180.000000        1.743521         4    ;  uncertainty k = 0.237776
        27        22        12        35     9        0.000000        0.827822         1    ;  uncertainty k = 1.246924
        27        22        12        35     9      180.000000        4.077163         2    ;  uncertainty k = 0.260754
        27        22        12        35     9        0.000000        0.519161         3    ;  uncertainty k = 0.230225
        27        22        12        35     9      180.000000       -0.131360         4    ;  uncertainty k = 0.045615
        27        22        23        28     9        0.000000        0.688818         1    ;  uncertainty k = 1.339868
        27        22        23        28     9      180.000000        5.002758         2    ;  uncertainty k = 0.638033
        27        22        23        28     9        0.000000        1.287212         3    ;  uncertainty k = 0.275659
        27        22        23        28     9      180.000000        1.679321         4    ;  uncertainty k = 0.159253
        27        26        25        45     9        0.000000        0.120115         1    ;  uncertainty k = 0.239198
        27        26        25        45     9      180.000000        7.475421         2    ;  uncertainty k = 0.396708
        27        26        25        45     9        0.000000        1.386523         3    ;  uncertainty k = 0.270854
        27        26        25        45     9      180.000000        1.750434         4    ;  uncertainty k = 0.112234
        28        23        24        44     9        0.000000       -0.186321         1    ;  uncertainty k = 0.315397
        28        23        24        44     9      180.000000        8.442422         2    ;  uncertainty k = 0.579696
        28        23        24        44     9        0.000000        1.157395         3    ;  uncertainty k = 0.166364
        28        23        24        44     9      180.000000        1.316828         4    ;  uncertainty k = 0.287375
        29        28        30        48     9        0.000000        4.258109         1    ;  uncertainty k = 0.803154
        29        28        30        48     9      180.000000       11.528746         2    ;  uncertainty k = 0.379683
        29        28        30        48     9        0.000000        2.086570         3    ;  uncertainty k = 0.137130
        29        28        30        48     9      180.000000        0.340022         4    ;  uncertainty k = 0.318315
        29        28        30        49     9        0.000000        4.258109         1    ;  uncertainty k = 0.803154
        29        28        30        49     9      180.000000       11.528746         2    ;  uncertainty k = 0.379683
        29        28        30        49     9        0.000000        2.086570         3    ;  uncertainty k = 0.137130
        29        28        30        49     9      180.000000        0.340022         4    ;  uncertainty k = 0.318315
        33         8         9        34     9        0.000000       -0.152652         1    ;  uncertainty k = 0.805688
        33         8         9        34     9      180.000000        5.398109         2    ;  uncertainty k = 0.723628
        33         8         9        34     9        0.000000        0.147471         3    ;  uncertainty k = 0.248173
        33         8         9        34     9      180.000000        0.216442         4    ;  uncertainty k = 0.153410
        36        13        14        37     9        0.000000       -0.116208         1    ;  uncertainty k = 0.085773
        36        13        14        37     9      180.000000        7.987768         2    ;  uncertainty k = 0.371552
        36        13        14        37     9        0.000000       -0.214199         3    ;  uncertainty k = 0.235185
        36        13        14        37     9      180.000000        0.260529         4    ;  uncertainty k = 0.235509
        39        18        19        40     9        0.000000       -0.013046         1    ;  uncertainty k = 0.452147
        39        18        19        40     9      180.000000        5.800982         2    ;  uncertainty k = 0.791053
        39        18        19        40     9        0.000000        1.154438         3    ;  uncertainty k = 0.426921
        39        18        19        40     9      180.000000        0.344798         4    ;  uncertainty k = 0.119750
        44        24        25        45     9        0.000000       -0.091510         1    ;  uncertainty k = 0.308174
        44        24        25        45     9      180.000000        7.587366         2    ;  uncertainty k = 0.557137
        44        24        25        45     9        0.000000       -0.351832         3    ;  uncertainty k = 0.199498
        44        24        25        45     9      180.000000        0.259716         4    ;  uncertainty k = 0.213990
        45        25        26        46     9        0.000000       -0.118362         1    ;  uncertainty k = 0.186460
        45        25        26        46     9      180.000000        7.586335         2    ;  uncertainty k = 0.501881
        45        25        26        46     9        0.000000       -0.360945         3    ;  uncertainty k = 0.280574
        45        25        26        46     9      180.000000        0.024259         4    ;  uncertainty k = 0.169961
        46        26        27        47     9        0.000000       -0.182448         1    ;  uncertainty k = 0.297886
        46        26        27        47     9      180.000000        8.383628         2    ;  uncertainty k = 0.505116
        46        26        27        47     9        0.000000       -0.440238         3    ;  uncertainty k = 0.332979
        46        26        27        47     9      180.000000        0.199060         4    ;  uncertainty k = 0.221878

[ dihedrals ] ; impropers
;       ai        aj        ak        al funct           phase               k        pn
         1         2         5        31     4      180.000000        2.533571         2    ;  uncertainty k = 0.374085
         1         5        31         2     4      180.000000        2.533571         2    ;  uncertainty k = 0.374085
         1        31         2         5     4      180.000000        2.533571         2    ;  uncertainty k = 0.374085
         2         1         3        12     4      180.000000       20.627911         2    ;  uncertainty k = 0.070534
         2         3        12         1     4      180.000000       20.627911         2    ;  uncertainty k = 0.070534
         2        12         1         3     4      180.000000       20.627911         2    ;  uncertainty k = 0.070534
         3         2         4        32     4      180.000000        3.044476         2    ;  uncertainty k = 0.376027
         3         4        32         2     4      180.000000        3.044476         2    ;  uncertainty k = 0.376027
         3        32         2         4     4      180.000000        3.044476         2    ;  uncertainty k = 0.376027
         4         3         6        11     4      180.000000       17.976629         2    ;  uncertainty k = 0.099558
         4         6        11         3     4      180.000000       17.976629         2    ;  uncertainty k = 0.099558
         4        11         3         6     4      180.000000       17.976629         2    ;  uncertainty k = 0.099558
         5         1         6        10     4      180.000000       18.442492         2    ;  uncertainty k = 0.055238
         5         6        10         1     4      180.000000       18.442492         2    ;  uncertainty k = 0.055238
         5        10         1         6     4      180.000000       18.442492         2    ;  uncertainty k = 0.055238
         6         4         5         7     4      180.000000       16.619254         2    ;  uncertainty k = 0.086962
         6         5         7         4     4      180.000000       16.619254         2    ;  uncertainty k = 0.086962
         6         7         4         5     4      180.000000       16.619254         2    ;  uncertainty k = 0.086962
         8         7         9        33     4      180.000000       12.058352         2    ;  uncertainty k = 0.155869
         8         9        33         7     4      180.000000       12.058352         2    ;  uncertainty k = 0.155869
         8        33         7         9     4      180.000000       12.058352         2    ;  uncertainty k = 0.155869
         9         8        10        34     4      180.000000       11.948848         2    ;  uncertainty k = 0.101429
         9        10        34         8     4      180.000000       11.948848         2    ;  uncertainty k = 0.101429
         9        34         8        10     4      180.000000       11.948848         2    ;  uncertainty k = 0.101429
        11         4        13        15     4      180.000000       12.719695         2    ;  uncertainty k = 0.169587
        11        13        15         4     4      180.000000       12.719695         2    ;  uncertainty k = 0.169587
        11        15         4        13     4      180.000000       12.719695         2    ;  uncertainty k = 0.169587
        12         2        22        35     4      180.000000        1.227731         2    ;  uncertainty k = 1.134183
        12        22        35         2     4      180.000000        1.227731         2    ;  uncertainty k = 1.134183
        12        35         2        22     4      180.000000        1.227731         2    ;  uncertainty k = 1.134183
        13        11        14        36     4      180.000000        3.145470         2    ;  uncertainty k = 0.234153
        13        14        36        11     4      180.000000        3.145470         2    ;  uncertainty k = 0.234153
        13        36        11        14     4      180.000000        3.145470         2    ;  uncertainty k = 0.234153
        14        13        17        37     4      180.000000        3.905812         2    ;  uncertainty k = 0.125325
        14        17        37        13     4      180.000000        3.905812         2    ;  uncertainty k = 0.125325
        14        37        13        17     4      180.000000        3.905812         2    ;  uncertainty k = 0.125325
        15        11        16        38     4      180.000000        2.774841         2    ;  uncertainty k = 0.245478
        15        16        38        11     4      180.000000        2.774841         2    ;  uncertainty k = 0.245478
        15        38        11        16     4      180.000000        2.774841         2    ;  uncertainty k = 0.245478
        16        15        17        20     4      180.000000        0.447276         2    ;  uncertainty k = 0.540174
        16        17        20        15     4      180.000000        0.447276         2    ;  uncertainty k = 0.540174
        16        20        15        17     4      180.000000        0.447276         2    ;  uncertainty k = 0.540174
        19        18        20        40     4      180.000000        0.796715         2    ;  uncertainty k = 0.335582
        19        20        40        18     4      180.000000        0.796715         2    ;  uncertainty k = 0.335582
        19        40        18        20     4      180.000000        0.796715         2    ;  uncertainty k = 0.335582
        22        12        23        27     4      180.000000       23.423416         2    ;  uncertainty k = 0.092330
        22        23        27        12     4      180.000000       23.423416         2    ;  uncertainty k = 0.092330
        22        27        12        23     4      180.000000       23.423416         2    ;  uncertainty k = 0.092330
        23        22        24        28     4      180.000000        6.702676         2    ;  uncertainty k = 0.326629
        23        24        28        22     4      180.000000        6.702676         2    ;  uncertainty k = 0.326629
        23        28        22        24     4      180.000000        6.702676         2    ;  uncertainty k = 0.326629
        24        23        25        44     4      180.000000        4.286307         2    ;  uncertainty k = 0.287353
        24        25        44        23     4      180.000000        4.286307         2    ;  uncertainty k = 0.287353
        24        44        23        25     4      180.000000        4.286307         2    ;  uncertainty k = 0.287353
        25        24        26        45     4      180.000000        2.576023         2    ;  uncertainty k = 0.292441
        25        26        45        24     4      180.000000        2.576023         2    ;  uncertainty k = 0.292441
        25        45        24        26     4      180.000000        2.576023         2    ;  uncertainty k = 0.292441
        26        25        27        46     4      180.000000        4.869281         2    ;  uncertainty k = 0.076932
        26        27        46        25     4      180.000000        4.869281         2    ;  uncertainty k = 0.076932
        26        46        25        27     4      180.000000        4.869281         2    ;  uncertainty k = 0.076932
        27        22        26        47     4      180.000000        2.262449         2    ;  uncertainty k = 0.507810
        27        26        47        22     4      180.000000        2.262449         2    ;  uncertainty k = 0.507810
        27        47        22        26     4      180.000000        2.262449         2    ;  uncertainty k = 0.507810
        28        23        29        30     4      180.000000       54.546579         2    ;  uncertainty k = 0.038153
        28        29        30        23     4      180.000000       54.546579         2    ;  uncertainty k = 0.038153
        28        30        23        29     4      180.000000       54.546579         2    ;  uncertainty k = 0.038153

[ pairs ]
;       ai        aj funct
         1         4     1
         1         7     1
         1         9     1
         1        22     1
         1        32     1
         1        35     1
         2         6     1
         2        10     1
         2        11     1
         2        23     1
         2        27     1
         3         5     1
         3         7     1
         3        13     1
         3        15     1
         3        22     1
         3        31     1
         3        35     1
         4         8     1
         4        10     1
         4        12     1
         4        14     1
         4        16     1
         4        36     1
         4        38     1
         5         8     1
         5        11     1
         5        12     1
         5        34     1
         6         9     1
         6        13     1
         6        15     1
         6        31     1
         6        32     1
         6        33     1
         7        10     1
         7        11     1
         7        34     1
        10        31     1
        10        33     1
        11        17     1
        11        20     1
        11        32     1
        11        37     1
        12        24     1
        12        26     1
        12        28     1
        12        31     1
        12        32     1
        12        47     1
        13        16     1
        13        18     1
        13        38     1
        14        15     1
        14        19     1
        14        20     1
        14        39     1
        15        18     1
        15        19     1
        15        21     1
        15        36     1
        16        37     1
        16        39     1
        16        40     1
        16        41     1
        16        42     1
        16        43     1
        17        21     1
        17        36     1
        17        38     1
        17        40     1
        18        21     1
        18        37     1
        19        41     1
        19        42     1
        19        43     1
        20        38     1
        20        39     1
        21        40     1
        22        25     1
        22        29     1
        22        30     1
        22        44     1
        22        46     1
        23        26     1
        23        35     1
        23        45     1
        23        47     1
        23        48     1
        23        49     1
        24        27     1
        24        29     1
        24        30     1
        24        46     1
        25        28     1
        25        47     1
        26        44     1
        27        28     1
        27        35     1
        27        45     1
        28        44     1
        29        48     1
        29        49     1
        33        34     1
        36        37     1
        39        40     1
        44        45     1
        45        46     1
        46        47     1
