; ITP file created by ByteFF-joint-25, 2026-02-17 09:31:25.252661

[ atomtypes ]
;name           bonded.type        at.num        mass        charge   ptype           sigma         epsilon
 n0bf                                   7      0.0000       0.00000       A     3.27940e-01     6.47859e-01    ;  uncertainty sigma = 0.000044, epsilon = 0.003421
 c1bf                                   6      0.0000       0.00000       A     3.31545e-01     4.13538e-01    ;  uncertainty sigma = 0.000014, epsilon = 0.001469
 c2bf                                   6      0.0000       0.00000       A     3.31496e-01     4.13470e-01    ;  uncertainty sigma = 0.000006, epsilon = 0.000742
 c3bf                                   6      0.0000       0.00000       A     3.31488e-01     4.12665e-01    ;  uncertainty sigma = 0.000011, epsilon = 0.000854
 c4bf                                   6      0.0000       0.00000       A     3.31519e-01     4.13020e-01    ;  uncertainty sigma = 0.000010, epsilon = 0.001115
 c5bf                                   6      0.0000       0.00000       A     3.31516e-01     4.13470e-01    ;  uncertainty sigma = 0.000011, epsilon = 0.000986
 c6bf                                   6      0.0000       0.00000       A     3.31509e-01     4.13539e-01    ;  uncertainty sigma = 0.000009, epsilon = 0.000465
 c7bf                                   6      0.0000       0.00000       A     3.31492e-01     4.13019e-01    ;  uncertainty sigma = 0.000020, epsilon = 0.000990
 c8bf                                   6      0.0000       0.00000       A     3.31520e-01     4.13276e-01    ;  uncertainty sigma = 0.000004, epsilon = 0.000572
 c9bf                                   6      0.0000       0.00000       A     3.31527e-01     4.13211e-01    ;  uncertainty sigma = 0.000005, epsilon = 0.000881
 c10bf                                  6      0.0000       0.00000       A     3.31520e-01     4.13329e-01    ;  uncertainty sigma = 0.000004, epsilon = 0.000805
 c11bf                                  6      0.0000       0.00000       A     3.31522e-01     4.13356e-01    ;  uncertainty sigma = 0.000007, epsilon = 0.000813
 c12bf                                  6      0.0000       0.00000       A     3.31521e-01     4.13081e-01    ;  uncertainty sigma = 0.000007, epsilon = 0.000493
 c13bf                                  6      0.0000       0.00000       A     3.31516e-01     4.13261e-01    ;  uncertainty sigma = 0.000006, epsilon = 0.000450
 c14bf                                  6      0.0000       0.00000       A     3.31521e-01     4.12984e-01    ;  uncertainty sigma = 0.000005, epsilon = 0.000844
 n15bf                                  7      0.0000       0.00000       A     3.20630e-01     8.53726e-01    ;  uncertainty sigma = 0.000021, epsilon = 0.000808
 n16bf                                  7      0.0000       0.00000       A     3.38414e-01     3.93827e-01    ;  uncertainty sigma = 0.000003, epsilon = 0.000862
 c17bf                                  6      0.0000       0.00000       A     3.31530e-01     4.13238e-01    ;  uncertainty sigma = 0.000010, epsilon = 0.000599
 c18bf                                  6      0.0000       0.00000       A     3.31531e-01     4.13178e-01    ;  uncertainty sigma = 0.000013, epsilon = 0.000482
 n19bf                                  7      0.0000       0.00000       A     3.38415e-01     3.93854e-01    ;  uncertainty sigma = 0.000010, epsilon = 0.001066
 c20bf                                  6      0.0000       0.00000       A     3.39777e-01     4.51126e-01    ;  uncertainty sigma = 0.000006, epsilon = 0.000488
 c21bf                                  6      0.0000       0.00000       A     3.31536e-01     4.13696e-01    ;  uncertainty sigma = 0.000020, epsilon = 0.001640
 c22bf                                  6      0.0000       0.00000       A     3.31542e-01     4.12842e-01    ;  uncertainty sigma = 0.000013, epsilon = 0.001488
 n23bf                                  7      0.0000       0.00000       A     3.38411e-01     3.93432e-01    ;  uncertainty sigma = 0.000007, epsilon = 0.000526
 c24bf                                  6      0.0000       0.00000       A     3.31533e-01     4.13283e-01    ;  uncertainty sigma = 0.000013, epsilon = 0.000598
 c25bf                                  6      0.0000       0.00000       A     3.31520e-01     4.13132e-01    ;  uncertainty sigma = 0.000006, epsilon = 0.000741
 c26bf                                  6      0.0000       0.00000       A     3.31525e-01     4.13230e-01    ;  uncertainty sigma = 0.000004, epsilon = 0.000806
 o27bf                                  8      0.0000       0.00000       A     3.15604e-01     3.05000e-01    ;  uncertainty sigma = 0.000052, epsilon = 0.001559
 c28bf                                  6      0.0000       0.00000       A     3.39777e-01     4.50612e-01    ;  uncertainty sigma = 0.000004, epsilon = 0.000733
 h29bf                                  1      0.0000       0.00000       A     1.10692e-01     4.09813e-02    ;  uncertainty sigma = 0.000078, epsilon = 0.001524
 h30bf                                  1      0.0000       0.00000       A     2.62566e-01     6.71159e-02    ;  uncertainty sigma = 0.000015, epsilon = 0.000400
 h31bf                                  1      0.0000       0.00000       A     2.62540e-01     6.71220e-02    ;  uncertainty sigma = 0.000022, epsilon = 0.000645
 h32bf                                  1      0.0000       0.00000       A     2.62563e-01     6.70733e-02    ;  uncertainty sigma = 0.000010, epsilon = 0.000583
 h33bf                                  1      0.0000       0.00000       A     2.62569e-01     6.69121e-02    ;  uncertainty sigma = 0.000009, epsilon = 0.000334
 h34bf                                  1      0.0000       0.00000       A     2.62578e-01     6.73015e-02    ;  uncertainty sigma = 0.000018, epsilon = 0.000492
 h35bf                                  1      0.0000       0.00000       A     2.62543e-01     6.72782e-02    ;  uncertainty sigma = 0.000012, epsilon = 0.000446
 h36bf                                  1      0.0000       0.00000       A     2.53669e-01     6.69808e-02    ;  uncertainty sigma = 0.000019, epsilon = 0.000693
 h37bf                                  1      0.0000       0.00000       A     2.53628e-01     6.69333e-02    ;  uncertainty sigma = 0.000020, epsilon = 0.000763
 h38bf                                  1      0.0000       0.00000       A     2.53628e-01     6.69333e-02    ;  uncertainty sigma = 0.000020, epsilon = 0.000763
 h39bf                                  1      0.0000       0.00000       A     2.42192e-01     8.67346e-02    ;  uncertainty sigma = 0.000017, epsilon = 0.000545
 h40bf                                  1      0.0000       0.00000       A     2.42192e-01     8.67346e-02    ;  uncertainty sigma = 0.000017, epsilon = 0.000545
 h41bf                                  1      0.0000       0.00000       A     2.42192e-01     8.67346e-02    ;  uncertainty sigma = 0.000017, epsilon = 0.000545
 h42bf                                  1      0.0000       0.00000       A     2.53636e-01     6.70245e-02    ;  uncertainty sigma = 0.000013, epsilon = 0.000470
 h43bf                                  1      0.0000       0.00000       A     2.62567e-01     6.71100e-02    ;  uncertainty sigma = 0.000011, epsilon = 0.000575
 h44bf                                  1      0.0000       0.00000       A     2.62549e-01     6.71348e-02    ;  uncertainty sigma = 0.000014, epsilon = 0.000447
 h45bf                                  1      0.0000       0.00000       A     2.42204e-01     8.66227e-02    ;  uncertainty sigma = 0.000019, epsilon = 0.000473
 h46bf                                  1      0.0000       0.00000       A     2.42204e-01     8.66227e-02    ;  uncertainty sigma = 0.000019, epsilon = 0.000473
 h47bf                                  1      0.0000       0.00000       A     2.42204e-01     8.66227e-02    ;  uncertainty sigma = 0.000019, epsilon = 0.000473

[ moleculetype ]
;name             nrexcl
 MOL                   3

[ atoms ]
;       nr            type      resi   res      atom      cgnr      charge          mass ; qtot
         1            n0bf         1   UNL        n0         1    -0.64065       14.0070 ; qtot   -0.641
         2            c1bf         1   UNL        c1         2     0.18731       12.0110 ; qtot   -0.453
         3            c2bf         1   UNL        c2         3    -0.16287       12.0110 ; qtot   -0.616
         4            c3bf         1   UNL        c3         4    -0.02411       12.0110 ; qtot   -0.640
         5            c4bf         1   UNL        c4         5     0.27545       12.0110 ; qtot   -0.365
         6            c5bf         1   UNL        c5         6     0.32361       12.0110 ; qtot   -0.041
         7            c6bf         1   UNL        c6         7    -0.22746       12.0110 ; qtot   -0.269
         8            c7bf         1   UNL        c7         8    -0.02479       12.0110 ; qtot   -0.294
         9            c8bf         1   UNL        c8         9    -0.13841       12.0110 ; qtot   -0.432
        10            c9bf         1   UNL        c9        10    -0.08699       12.0110 ; qtot   -0.519
        11           c10bf         1   UNL       c10        11    -0.09144       12.0110 ; qtot   -0.610
        12           c11bf         1   UNL       c11        12    -0.05127       12.0110 ; qtot   -0.662
        13           c12bf         1   UNL       c12        13    -0.12505       12.0110 ; qtot   -0.787
        14           c13bf         1   UNL       c13        14    -0.19068       12.0110 ; qtot   -0.977
        15           c14bf         1   UNL       c14        15    -0.10251       12.0110 ; qtot   -1.080
        16           n15bf         1   UNL       n15        16    -0.07889       14.0070 ; qtot   -1.159
        17           n16bf         1   UNL       n16        17    -0.62862       14.0070 ; qtot   -1.787
        18           c17bf         1   UNL       c17        18     0.29621       12.0110 ; qtot   -1.491
        19           c18bf         1   UNL       c18        19     0.29560       12.0110 ; qtot   -1.196
        20           n19bf         1   UNL       n19        20    -0.61815       14.0070 ; qtot   -1.814
        21           c20bf         1   UNL       c20        21     0.03587       12.0110 ; qtot   -1.778
        22           c21bf         1   UNL       c21        22     0.04077       12.0110 ; qtot   -1.737
        23           c22bf         1   UNL       c22        23     0.59683       12.0110 ; qtot   -1.140
        24           n23bf         1   UNL       n23        24    -0.72874       14.0070 ; qtot   -1.869
        25           c24bf         1   UNL       c24        25     0.40212       12.0110 ; qtot   -1.467
        26           c25bf         1   UNL       c25        26    -0.24039       12.0110 ; qtot   -1.707
        27           c26bf         1   UNL       c26        27    -0.13037       12.0110 ; qtot   -1.838
        28           o27bf         1   UNL       o27        28    -0.46440       15.9990 ; qtot   -2.302
        29           c28bf         1   UNL       c28        29     0.13024       12.0110 ; qtot   -2.172
        30           h29bf         1   UNL       h29        30     0.44789        1.0080 ; qtot   -1.724
        31           h30bf         1   UNL       h30        31     0.14719        1.0080 ; qtot   -1.577
        32           h31bf         1   UNL       h31        32     0.15776        1.0080 ; qtot   -1.419
        33           h32bf         1   UNL       h32        33     0.13697        1.0080 ; qtot   -1.282
        34           h33bf         1   UNL       h33        34     0.13662        1.0080 ; qtot   -1.145
        35           h34bf         1   UNL       h34        35     0.13971        1.0080 ; qtot   -1.006
        36           h35bf         1   UNL       h35        36     0.15551        1.0080 ; qtot   -0.850
        37           h36bf         1   UNL       h36        37     0.16110        1.0080 ; qtot   -0.689
        38           h37bf         1   UNL       h37        38     0.03331        1.0080 ; qtot   -0.656
        39           h38bf         1   UNL       h38        39     0.03380        1.0080 ; qtot   -0.622
        40           h39bf         1   UNL       h39        40     0.04975        1.0080 ; qtot   -0.572
        41           h40bf         1   UNL       h40        41     0.04975        1.0080 ; qtot   -0.522
        42           h41bf         1   UNL       h41        42     0.04975        1.0080 ; qtot   -0.473
        43           h42bf         1   UNL       h42        43     0.02550        1.0080 ; qtot   -0.447
        44           h43bf         1   UNL       h43        44     0.14651        1.0080 ; qtot   -0.301
        45           h44bf         1   UNL       h44        45     0.14907        1.0080 ; qtot   -0.152
        46           h45bf         1   UNL       h45        46     0.05052        1.0080 ; qtot   -0.101
        47           h46bf         1   UNL       h46        47     0.05052        1.0080 ; qtot   -0.051
        48           h47bf         1   UNL       h47        48     0.05055        1.0080 ; qtot   -0.000

[ bonds ]
;       ai        aj funct               r               k
         1         2     1        0.140407   357284.717529    ;  uncertainty r = 0.000062, k = 17.646838
         1        22     1        0.139302   331373.183057    ;  uncertainty r = 0.000149, k = 10.514540
         1        30     1        0.101422   413481.501660    ;  uncertainty r = 0.000088, k = 0.656039
         2         3     1        0.142096   351460.852051    ;  uncertainty r = 0.000200, k = 13.154355
         2         7     1        0.138875   382805.636377    ;  uncertainty r = 0.000135, k = 9.671744
         3         4     1        0.138000   347495.960449    ;  uncertainty r = 0.000143, k = 17.234338
         3        31     1        0.108883   338510.243311    ;  uncertainty r = 0.000020, k = 3.739144
         4         5     1        0.143085   310245.234375    ;  uncertainty r = 0.000128, k = 17.466669
         4         8     1        0.148137   283751.862402    ;  uncertainty r = 0.000105, k = 15.453592
         5         6     1        0.142995   298655.574805    ;  uncertainty r = 0.000072, k = 15.498988
         5        20     1        0.135767   353109.859814    ;  uncertainty r = 0.000088, k = 12.675275
         6         7     1        0.141431   396079.417236    ;  uncertainty r = 0.000094, k = 15.205661
         6        17     1        0.136382   355171.598340    ;  uncertainty r = 0.000057, k = 8.738517
         7        32     1        0.108811   340366.765625    ;  uncertainty r = 0.000031, k = 1.855827
         8         9     1        0.141773   332885.005469    ;  uncertainty r = 0.000129, k = 5.382954
         8        13     1        0.139578   348941.182080    ;  uncertainty r = 0.000096, k = 3.247014
         9        10     1        0.138795   364168.909326    ;  uncertainty r = 0.000031, k = 1.854519
         9        33     1        0.108772   335281.433350    ;  uncertainty r = 0.000023, k = 2.010175
        10        11     1        0.140496   366588.397217    ;  uncertainty r = 0.000029, k = 1.524532
        10        34     1        0.108842   335262.612500    ;  uncertainty r = 0.000021, k = 1.243220
        11        12     1        0.142478   370413.039014    ;  uncertainty r = 0.000021, k = 8.656161
        11        14     1        0.143851   263887.949561    ;  uncertainty r = 0.000049, k = 9.849674
        12        13     1        0.139638   360882.589795    ;  uncertainty r = 0.000073, k = 8.112548
        12        16     1        0.138409   299089.858887    ;  uncertainty r = 0.000058, k = 4.369580
        13        35     1        0.108815   335784.335645    ;  uncertainty r = 0.000035, k = 1.319592
        14        15     1        0.137643   438880.659570    ;  uncertainty r = 0.000039, k = 2.390663
        14        36     1        0.108258   339903.752295    ;  uncertainty r = 0.000020, k = 1.257357
        15        16     1        0.138800   299198.085156    ;  uncertainty r = 0.000053, k = 11.566371
        15        37     1        0.108278   339863.020605    ;  uncertainty r = 0.000024, k = 2.230051
        16        21     1        0.145040   254644.665137    ;  uncertainty r = 0.000030, k = 4.755567
        17        18     1        0.131606   448634.967090    ;  uncertainty r = 0.000067, k = 6.059813
        18        19     1        0.141378   325245.400439    ;  uncertainty r = 0.000067, k = 16.241070
        18        38     1        0.109175   341608.201123    ;  uncertainty r = 0.000026, k = 2.358960
        19        20     1        0.131584   437138.007227    ;  uncertainty r = 0.000061, k = 11.800992
        19        39     1        0.109180   341408.015723    ;  uncertainty r = 0.000031, k = 1.111543
        21        40     1        0.109426   310040.631055    ;  uncertainty r = 0.000012, k = 1.344889
        21        41     1        0.109426   310040.631055    ;  uncertainty r = 0.000012, k = 1.344889
        21        42     1        0.109426   310040.631055    ;  uncertainty r = 0.000012, k = 1.344889
        22        23     1        0.141134   363895.789941    ;  uncertainty r = 0.000229, k = 23.739910
        22        27     1        0.139639   353481.245996    ;  uncertainty r = 0.000088, k = 3.888355
        23        24     1        0.131785   353870.125098    ;  uncertainty r = 0.000083, k = 9.132688
        23        28     1        0.135767   319623.227051    ;  uncertainty r = 0.000105, k = 13.350679
        24        25     1        0.134397   389459.968652    ;  uncertainty r = 0.000126, k = 6.012895
        25        26     1        0.139016   373434.181201    ;  uncertainty r = 0.000041, k = 4.678765
        25        43     1        0.108935   336113.994189    ;  uncertainty r = 0.000019, k = 1.974711
        26        27     1        0.139444   381458.834766    ;  uncertainty r = 0.000078, k = 2.747326
        26        44     1        0.108811   337231.012891    ;  uncertainty r = 0.000014, k = 1.572370
        27        45     1        0.108756   335643.421875    ;  uncertainty r = 0.000031, k = 2.568316
        28        29     1        0.143045   250509.645312    ;  uncertainty r = 0.000094, k = 1.803080
        29        46     1        0.109344   308915.951221    ;  uncertainty r = 0.000025, k = 1.397891
        29        47     1        0.109344   308915.951221    ;  uncertainty r = 0.000025, k = 1.397891
        29        48     1        0.109344   308915.951221    ;  uncertainty r = 0.000025, k = 1.397891

[ angles ]
;       ai        aj        ak funct           theta             cth
         1         2         3     1      120.206093      504.845414    ;  uncertainty theta = 0.002842, k = 0.267375
         1         2         7     1      121.944420      503.458302    ;  uncertainty theta = 0.003985, k = 0.158627
         1        22        23     1      117.659081      469.467898    ;  uncertainty theta = 0.008154, k = 0.235077
         1        22        27     1      123.274155      486.759458    ;  uncertainty theta = 0.005098, k = 0.261902
         2         1        22     1      116.325180      377.139214    ;  uncertainty theta = 0.011769, k = 0.211678
         2         1        30     1      113.898972      379.438032    ;  uncertainty theta = 0.007472, k = 0.070831
         2         3         4     1      122.397621      515.560721    ;  uncertainty theta = 0.004321, k = 0.259897
         2         3        31     1      119.404053      285.525376    ;  uncertainty theta = 0.004796, k = 0.134447
         2         7         6     1      118.257118      518.764415    ;  uncertainty theta = 0.002168, k = 0.071190
         2         7        32     1      121.444069      270.558204    ;  uncertainty theta = 0.001505, k = 0.144246
         3         2         7     1      119.328506      388.246005    ;  uncertainty theta = 0.003694, k = 0.068467
         3         4         5     1      121.234207      456.906322    ;  uncertainty theta = 0.004548, k = 0.137789
         3         4         8     1      121.228798      423.141028    ;  uncertainty theta = 0.002961, k = 0.156452
         4         3        31     1      118.704933      277.851890    ;  uncertainty theta = 0.005306, k = 0.050256
         4         5         6     1      120.727844      398.377566    ;  uncertainty theta = 0.005688, k = 0.083900
         4         5        20     1      118.059143      466.719084    ;  uncertainty theta = 0.004200, k = 0.232797
         4         8         9     1      119.939163      397.252847    ;  uncertainty theta = 0.003248, k = 0.114583
         4         8        13     1      119.830284      387.483818    ;  uncertainty theta = 0.002251, k = 0.190078
         5         4         8     1      119.335999      396.188588    ;  uncertainty theta = 0.004435, k = 0.267308
         5         6         7     1      119.517235      392.036765    ;  uncertainty theta = 0.005326, k = 0.191058
         5         6        17     1      119.243858      555.279545    ;  uncertainty theta = 0.007472, k = 0.086369
         5        20        19     1      116.502525      472.887509    ;  uncertainty theta = 0.004302, k = 0.130227
         6         5        20     1      119.722855      514.456720    ;  uncertainty theta = 0.004269, k = 0.061580
         6         7        32     1      120.837967      275.673543    ;  uncertainty theta = 0.003390, k = 0.103595
         6        17        18     1      114.458984      488.266148    ;  uncertainty theta = 0.001996, k = 0.147683
         7         6        17     1      122.312637      528.712460    ;  uncertainty theta = 0.003351, k = 0.210335
         8         9        10     1      122.513977      519.825227    ;  uncertainty theta = 0.002504, k = 0.082970
         8         9        33     1      118.705055      283.822243    ;  uncertainty theta = 0.003481, k = 0.052326
         8        13        12     1      118.386093      529.920652    ;  uncertainty theta = 0.003401, k = 0.180792
         8        13        35     1      120.176918      276.179305    ;  uncertainty theta = 0.003371, k = 0.099806
         9         8        13     1      122.892189      427.495488    ;  uncertainty theta = 0.004657, k = 0.054030
         9        10        11     1      119.126968      545.225329    ;  uncertainty theta = 0.002014, k = 0.075473
         9        10        34     1      120.552231      281.882188    ;  uncertainty theta = 0.001756, k = 0.032676
        10         9        33     1      119.644821      296.182906    ;  uncertainty theta = 0.002811, k = 0.056213
        10        11        12     1      116.316528      401.555212    ;  uncertainty theta = 0.003524, k = 0.104666
        10        11        14     1      133.137314      372.613048    ;  uncertainty theta = 0.003601, k = 0.161997
        11        10        34     1      121.660202      297.421073    ;  uncertainty theta = 0.001725, k = 0.098896
        11        12        13     1      122.096420      362.937197    ;  uncertainty theta = 0.001381, k = 0.132828
        11        12        16     1      108.699356      659.259248    ;  uncertainty theta = 0.001396, k = 0.199015
        11        14        15     1      106.600060      811.238758    ;  uncertainty theta = 0.002477, k = 0.071833
        11        14        36     1      125.357811      254.842571    ;  uncertainty theta = 0.003088, k = 0.059341
        12        11        14     1      106.331848      697.004628    ;  uncertainty theta = 0.002119, k = 0.268284
        12        13        35     1      122.049515      289.470445    ;  uncertainty theta = 0.001404, k = 0.108597
        12        16        15     1      107.260864      818.300726    ;  uncertainty theta = 0.002708, k = 0.112517
        12        16        21     1      120.714661      413.315913    ;  uncertainty theta = 0.003757, k = 0.146507
        13        12        16     1      127.554398      386.261612    ;  uncertainty theta = 0.001561, k = 0.197526
        14        15        16     1      111.357628      756.000331    ;  uncertainty theta = 0.002253, k = 0.100899
        14        15        37     1      128.154099      239.476972    ;  uncertainty theta = 0.003447, k = 0.106541
        15        14        36     1      123.663986      251.202927    ;  uncertainty theta = 0.003182, k = 0.069918
        15        16        21     1      121.539627      391.310362    ;  uncertainty theta = 0.002440, k = 0.111857
        16        15        37     1      117.041054      288.340843    ;  uncertainty theta = 0.001716, k = 0.115275
        16        21        40     1      109.087296      471.938965    ;  uncertainty theta = 0.000901, k = 0.078971
        16        21        41     1      109.087296      471.938965    ;  uncertainty theta = 0.000901, k = 0.078971
        16        21        42     1      109.087296      471.938965    ;  uncertainty theta = 0.000901, k = 0.078971
        17        18        19     1      120.931259      612.842998    ;  uncertainty theta = 0.002470, k = 0.239696
        17        18        38     1      116.754013      350.159832    ;  uncertainty theta = 0.001533, k = 0.075385
        18        19        20     1      121.240555      622.447314    ;  uncertainty theta = 0.002919, k = 0.205880
        18        19        39     1      121.994606      282.804174    ;  uncertainty theta = 0.002439, k = 0.090842
        19        18        38     1      121.868530      283.534439    ;  uncertainty theta = 0.002376, k = 0.096063
        20        19        39     1      116.813492      347.959523    ;  uncertainty theta = 0.001638, k = 0.087624
        22         1        30     1      115.191040      373.579915    ;  uncertainty theta = 0.009562, k = 0.091012
        22        23        24     1      125.562332      490.769678    ;  uncertainty theta = 0.004781, k = 0.332601
        22        23        28     1      117.749413      395.788518    ;  uncertainty theta = 0.005198, k = 0.240490
        22        27        26     1      118.906029      532.196073    ;  uncertainty theta = 0.003000, k = 0.153995
        22        27        45     1      118.607704      262.681698    ;  uncertainty theta = 0.002276, k = 0.157628
        23        22        27     1      117.646423      354.100942    ;  uncertainty theta = 0.007949, k = 0.173937
        23        24        25     1      119.483139      387.689264    ;  uncertainty theta = 0.003899, k = 0.165735
        23        28        29     1      110.437119      492.184434    ;  uncertainty theta = 0.002539, k = 0.086787
        24        23        28     1      117.744308      597.062405    ;  uncertainty theta = 0.004482, k = 0.131541
        24        25        26     1      122.248634      686.625581    ;  uncertainty theta = 0.001823, k = 0.070165
        24        25        43     1      116.442467      326.665660    ;  uncertainty theta = 0.003074, k = 0.064194
        25        26        27     1      116.399536      485.355172    ;  uncertainty theta = 0.002130, k = 0.054959
        25        26        44     1      121.587303      284.305724    ;  uncertainty theta = 0.000612, k = 0.080860
        26        25        43     1      121.420128      279.016063    ;  uncertainty theta = 0.001212, k = 0.065369
        26        27        45     1      121.307716      294.686431    ;  uncertainty theta = 0.002067, k = 0.089765
        27        26        44     1      121.797096      281.799927    ;  uncertainty theta = 0.002676, k = 0.070229
        28        29        46     1      108.491798      431.267958    ;  uncertainty theta = 0.000809, k = 0.037794
        28        29        47     1      108.491798      431.267958    ;  uncertainty theta = 0.000809, k = 0.037794
        28        29        48     1      108.491798      431.267958    ;  uncertainty theta = 0.000809, k = 0.037794
        40        21        41     1      107.317055      322.193856    ;  uncertainty theta = 0.001017, k = 0.038184
        40        21        42     1      107.317055      322.193856    ;  uncertainty theta = 0.001017, k = 0.038184
        41        21        42     1      107.317055      322.193856    ;  uncertainty theta = 0.001017, k = 0.038184
        46        29        47     1      109.207253      330.089962    ;  uncertainty theta = 0.001981, k = 0.020548
        46        29        48     1      109.207253      330.089962    ;  uncertainty theta = 0.001981, k = 0.020548
        47        29        48     1      109.207253      330.089962    ;  uncertainty theta = 0.001981, k = 0.020548

[ dihedrals ] ; propers for gromacs 4.5 or higher, use funct 9
;       ai        aj        ak        al funct           phase               k        pn
         1         2         3         4     9        0.000000        0.369232         1    ;  uncertainty k = 0.798485
         1         2         3         4     9      180.000000        7.475786         2    ;  uncertainty k = 0.436774
         1         2         3         4     9        0.000000        0.806441         3    ;  uncertainty k = 0.244303
         1         2         3         4     9      180.000000        1.606247         4    ;  uncertainty k = 0.077747
         1         2         3        31     9        0.000000       -0.295726         1    ;  uncertainty k = 0.250550
         1         2         3        31     9      180.000000        7.283766         2    ;  uncertainty k = 0.447317
         1         2         3        31     9        0.000000        0.839930         3    ;  uncertainty k = 0.214130
         1         2         3        31     9      180.000000        1.119206         4    ;  uncertainty k = 0.205327
         1         2         7         6     9        0.000000       -0.067258         1    ;  uncertainty k = 0.511421
         1         2         7         6     9      180.000000       10.995737         2    ;  uncertainty k = 0.451426
         1         2         7         6     9        0.000000        0.942917         3    ;  uncertainty k = 0.158319
         1         2         7         6     9      180.000000        1.591833         4    ;  uncertainty k = 0.189981
         1         2         7        32     9        0.000000       -0.443251         1    ;  uncertainty k = 0.270451
         1         2         7        32     9      180.000000        8.283561         2    ;  uncertainty k = 0.574778
         1         2         7        32     9        0.000000        0.797211         3    ;  uncertainty k = 0.198498
         1         2         7        32     9      180.000000        1.107701         4    ;  uncertainty k = 0.249205
         1        22        23        24     9        0.000000        0.030529         1    ;  uncertainty k = 0.558211
         1        22        23        24     9      180.000000        5.704923         2    ;  uncertainty k = 1.499902
         1        22        23        24     9        0.000000        0.482528         3    ;  uncertainty k = 0.484704
         1        22        23        24     9      180.000000        1.257283         4    ;  uncertainty k = 0.270465
         1        22        23        28     9        0.000000        0.425494         1    ;  uncertainty k = 0.381928
         1        22        23        28     9      180.000000        7.708112         2    ;  uncertainty k = 1.117917
         1        22        23        28     9        0.000000        0.566587         3    ;  uncertainty k = 0.368486
         1        22        23        28     9      180.000000        1.288918         4    ;  uncertainty k = 0.415015
         1        22        27        26     9        0.000000        0.125498         1    ;  uncertainty k = 0.515193
         1        22        27        26     9      180.000000       10.308383         2    ;  uncertainty k = 0.779258
         1        22        27        26     9        0.000000        1.048085         3    ;  uncertainty k = 0.339679
         1        22        27        26     9      180.000000        1.696364         4    ;  uncertainty k = 0.248300
         1        22        27        45     9        0.000000       -0.559017         1    ;  uncertainty k = 0.632439
         1        22        27        45     9      180.000000        8.099636         2    ;  uncertainty k = 0.612628
         1        22        27        45     9        0.000000        0.818218         3    ;  uncertainty k = 0.239629
         1        22        27        45     9      180.000000        1.159541         4    ;  uncertainty k = 0.450284
         2         1        22        23     9        0.000000        4.471433         1    ;  uncertainty k = 1.362583
         2         1        22        23     9      180.000000        4.056176         2    ;  uncertainty k = 0.911670
         2         1        22        23     9        0.000000        0.998382         3    ;  uncertainty k = 0.162223
         2         1        22        23     9      180.000000        0.132242         4    ;  uncertainty k = 0.140044
         2         1        22        27     9        0.000000        3.055157         1    ;  uncertainty k = 0.877788
         2         1        22        27     9      180.000000        4.898503         2    ;  uncertainty k = 0.399156
         2         1        22        27     9        0.000000       -0.193188         3    ;  uncertainty k = 0.193109
         2         1        22        27     9      180.000000        0.123817         4    ;  uncertainty k = 0.080767
         2         3         4         5     9        0.000000        0.008678         1    ;  uncertainty k = 0.524955
         2         3         4         5     9      180.000000       12.477063         2    ;  uncertainty k = 0.416344
         2         3         4         5     9        0.000000        0.357205         3    ;  uncertainty k = 0.217172
         2         3         4         5     9      180.000000        1.280119         4    ;  uncertainty k = 0.323578
         2         3         4         8     9        0.000000        0.192969         1    ;  uncertainty k = 0.211002
         2         3         4         8     9      180.000000       10.412193         2    ;  uncertainty k = 0.628311
         2         3         4         8     9        0.000000        1.344254         3    ;  uncertainty k = 0.266444
         2         3         4         8     9      180.000000        1.709662         4    ;  uncertainty k = 0.279926
         2         7         6         5     9        0.000000        0.120057         1    ;  uncertainty k = 0.428105
         2         7         6         5     9      180.000000        7.234844         2    ;  uncertainty k = 0.793510
         2         7         6         5     9        0.000000        0.041503         3    ;  uncertainty k = 0.302035
         2         7         6         5     9      180.000000        1.291516         4    ;  uncertainty k = 0.268904
         2         7         6        17     9        0.000000        0.160800         1    ;  uncertainty k = 0.464893
         2         7         6        17     9      180.000000        9.789944         2    ;  uncertainty k = 0.405979
         2         7         6        17     9        0.000000        0.565543         3    ;  uncertainty k = 0.276098
         2         7         6        17     9      180.000000        1.388253         4    ;  uncertainty k = 0.232586
         3         2         1        22     9        0.000000        2.299382         1    ;  uncertainty k = 0.483884
         3         2         1        22     9      180.000000        6.034165         2    ;  uncertainty k = 0.299735
         3         2         1        22     9        0.000000        0.602123         3    ;  uncertainty k = 0.198820
         3         2         1        22     9      180.000000        0.103333         4    ;  uncertainty k = 0.132997
         3         2         1        30     9        0.000000        3.163796         1    ;  uncertainty k = 0.708793
         3         2         1        30     9      180.000000        5.443593         2    ;  uncertainty k = 0.527758
         3         2         1        30     9        0.000000        0.646917         3    ;  uncertainty k = 0.194974
         3         2         1        30     9      180.000000       -0.097626         4    ;  uncertainty k = 0.145978
         3         2         7         6     9        0.000000       -0.200669         1    ;  uncertainty k = 0.195327
         3         2         7         6     9      180.000000        9.632588         2    ;  uncertainty k = 0.287954
         3         2         7         6     9        0.000000        0.356011         3    ;  uncertainty k = 0.479045
         3         2         7         6     9      180.000000        1.376043         4    ;  uncertainty k = 0.293881
         3         2         7        32     9        0.000000        0.284019         1    ;  uncertainty k = 0.384463
         3         2         7        32     9      180.000000        6.989373         2    ;  uncertainty k = 0.653748
         3         2         7        32     9        0.000000        1.291404         3    ;  uncertainty k = 0.100941
         3         2         7        32     9      180.000000        1.621890         4    ;  uncertainty k = 0.150518
         3         4         5         6     9        0.000000       -0.064268         1    ;  uncertainty k = 0.482878
         3         4         5         6     9      180.000000        5.815077         2    ;  uncertainty k = 0.996902
         3         4         5         6     9        0.000000        0.060037         3    ;  uncertainty k = 0.264412
         3         4         5         6     9      180.000000        1.005081         4    ;  uncertainty k = 0.332026
         3         4         5        20     9        0.000000        0.261322         1    ;  uncertainty k = 0.518993
         3         4         5        20     9      180.000000        6.885067         2    ;  uncertainty k = 0.805625
         3         4         5        20     9        0.000000        0.373938         3    ;  uncertainty k = 0.290823
         3         4         5        20     9      180.000000        1.164313         4    ;  uncertainty k = 0.349614
         3         4         8         9     9        0.000000       -0.241233         1    ;  uncertainty k = 0.353964
         3         4         8         9     9      180.000000        5.771565         2    ;  uncertainty k = 0.169727
         3         4         8         9     9        0.000000        0.317160         3    ;  uncertainty k = 0.177140
         3         4         8         9     9      180.000000        0.588640         4    ;  uncertainty k = 0.117338
         3         4         8        13     9        0.000000       -0.358622         1    ;  uncertainty k = 0.397329
         3         4         8        13     9      180.000000        5.522277         2    ;  uncertainty k = 0.163710
         3         4         8        13     9        0.000000        0.471433         3    ;  uncertainty k = 0.101553
         3         4         8        13     9      180.000000        0.524758         4    ;  uncertainty k = 0.136869
         4         3         2         7     9        0.000000       -0.055134         1    ;  uncertainty k = 0.350423
         4         3         2         7     9      180.000000        6.129862         2    ;  uncertainty k = 0.933574
         4         3         2         7     9        0.000000        0.319520         3    ;  uncertainty k = 0.199492
         4         3         2         7     9      180.000000        1.352067         4    ;  uncertainty k = 0.325103
         4         5         6         7     9        0.000000       -0.713080         1    ;  uncertainty k = 0.521880
         4         5         6         7     9      180.000000        4.611685         2    ;  uncertainty k = 1.535209
         4         5         6         7     9        0.000000        0.274758         3    ;  uncertainty k = 0.299131
         4         5         6         7     9      180.000000        1.240052         4    ;  uncertainty k = 0.359772
         4         5         6        17     9        0.000000       -0.297578         1    ;  uncertainty k = 0.701970
         4         5         6        17     9      180.000000        5.014358         2    ;  uncertainty k = 1.176010
         4         5         6        17     9        0.000000        0.093991         3    ;  uncertainty k = 0.371275
         4         5         6        17     9      180.000000        1.323525         4    ;  uncertainty k = 0.229333
         4         5        20        19     9        0.000000       -0.230725         1    ;  uncertainty k = 0.542096
         4         5        20        19     9      180.000000       12.457803         2    ;  uncertainty k = 0.567634
         4         5        20        19     9        0.000000        2.051215         3    ;  uncertainty k = 0.352156
         4         5        20        19     9      180.000000        1.316225         4    ;  uncertainty k = 0.190863
         4         8         9        10     9        0.000000        0.106033         1    ;  uncertainty k = 0.347322
         4         8         9        10     9      180.000000        7.741873         2    ;  uncertainty k = 0.677794
         4         8         9        10     9        0.000000        1.125160         3    ;  uncertainty k = 0.437429
         4         8         9        10     9      180.000000        1.837355         4    ;  uncertainty k = 0.142429
         4         8         9        33     9        0.000000       -0.194197         1    ;  uncertainty k = 0.071949
         4         8         9        33     9      180.000000        7.286465         2    ;  uncertainty k = 0.459538
         4         8         9        33     9        0.000000        0.820345         3    ;  uncertainty k = 0.187086
         4         8         9        33     9      180.000000        1.127885         4    ;  uncertainty k = 0.183907
         4         8        13        12     9        0.000000        0.008340         1    ;  uncertainty k = 0.510405
         4         8        13        12     9      180.000000       10.601909         2    ;  uncertainty k = 0.755180
         4         8        13        12     9        0.000000        1.446684         3    ;  uncertainty k = 0.244022
         4         8        13        12     9      180.000000        1.685325         4    ;  uncertainty k = 0.268772
         4         8        13        35     9        0.000000       -0.217860         1    ;  uncertainty k = 0.216539
         4         8        13        35     9      180.000000        7.816293         2    ;  uncertainty k = 0.229990
         4         8        13        35     9        0.000000        0.863298         3    ;  uncertainty k = 0.206755
         4         8        13        35     9      180.000000        1.171828         4    ;  uncertainty k = 0.102501
         5         4         3        31     9        0.000000        0.123739         1    ;  uncertainty k = 0.256829
         5         4         3        31     9      180.000000        9.582774         2    ;  uncertainty k = 0.350596
         5         4         3        31     9        0.000000        1.473211         3    ;  uncertainty k = 0.141254
         5         4         3        31     9      180.000000        1.670290         4    ;  uncertainty k = 0.172670
         5         4         8         9     9        0.000000        0.294935         1    ;  uncertainty k = 0.682343
         5         4         8         9     9      180.000000        5.135221         2    ;  uncertainty k = 0.368550
         5         4         8         9     9        0.000000        0.449391         3    ;  uncertainty k = 0.368548
         5         4         8         9     9      180.000000        0.735448         4    ;  uncertainty k = 0.087901
         5         4         8        13     9        0.000000       -0.139300         1    ;  uncertainty k = 0.564767
         5         4         8        13     9      180.000000        5.053882         2    ;  uncertainty k = 0.350242
         5         4         8        13     9        0.000000        0.265394         3    ;  uncertainty k = 0.358781
         5         4         8        13     9      180.000000        0.716032         4    ;  uncertainty k = 0.142482
         5         6         7        32     9        0.000000       -0.216754         1    ;  uncertainty k = 0.343873
         5         6         7        32     9      180.000000        5.853912         2    ;  uncertainty k = 0.879792
         5         6         7        32     9        0.000000        1.199030         3    ;  uncertainty k = 0.162613
         5         6         7        32     9      180.000000        1.246406         4    ;  uncertainty k = 0.338414
         5         6        17        18     9        0.000000       -0.063177         1    ;  uncertainty k = 1.326752
         5         6        17        18     9      180.000000       10.095140         2    ;  uncertainty k = 0.612695
         5         6        17        18     9        0.000000        1.278116         3    ;  uncertainty k = 0.488030
         5         6        17        18     9      180.000000        1.281712         4    ;  uncertainty k = 0.220795
         5        20        19        18     9        0.000000        0.020377         1    ;  uncertainty k = 0.368422
         5        20        19        18     9      180.000000       16.581264         2    ;  uncertainty k = 0.335689
         5        20        19        18     9        0.000000        0.829256         3    ;  uncertainty k = 0.750676
         5        20        19        18     9      180.000000        1.566270         4    ;  uncertainty k = 0.253962
         5        20        19        39     9        0.000000        0.275901         1    ;  uncertainty k = 0.531876
         5        20        19        39     9      180.000000       18.156242         2    ;  uncertainty k = 0.522836
         5        20        19        39     9        0.000000        2.344021         3    ;  uncertainty k = 0.655908
         5        20        19        39     9      180.000000        1.633482         4    ;  uncertainty k = 0.415921
         6         5         4         8     9        0.000000        0.163366         1    ;  uncertainty k = 0.742862
         6         5         4         8     9      180.000000        4.925989         2    ;  uncertainty k = 0.482652
         6         5         4         8     9        0.000000        1.071668         3    ;  uncertainty k = 0.234643
         6         5         4         8     9      180.000000        1.265583         4    ;  uncertainty k = 0.346238
         6         5        20        19     9        0.000000       -0.112020         1    ;  uncertainty k = 0.910115
         6         5        20        19     9      180.000000       11.596636         2    ;  uncertainty k = 0.629167
         6         5        20        19     9        0.000000        1.457657         3    ;  uncertainty k = 0.287216
         6         5        20        19     9      180.000000        1.330866         4    ;  uncertainty k = 0.318778
         6        17        18        19     9        0.000000        0.013312         1    ;  uncertainty k = 0.131652
         6        17        18        19     9      180.000000       17.231917         2    ;  uncertainty k = 0.196674
         6        17        18        19     9        0.000000        0.888030         3    ;  uncertainty k = 0.629562
         6        17        18        19     9      180.000000        1.519865         4    ;  uncertainty k = 0.234840
         6        17        18        38     9        0.000000        0.424411         1    ;  uncertainty k = 0.517709
         6        17        18        38     9      180.000000       19.045704         2    ;  uncertainty k = 0.443936
         6        17        18        38     9        0.000000        2.354563         3    ;  uncertainty k = 0.582721
         6        17        18        38     9      180.000000        1.407429         4    ;  uncertainty k = 0.336466
         7         2         1        22     9        0.000000        2.430009         1    ;  uncertainty k = 0.491294
         7         2         1        22     9      180.000000        6.089296         2    ;  uncertainty k = 0.213146
         7         2         1        22     9        0.000000        0.080864         3    ;  uncertainty k = 0.297526
         7         2         1        22     9      180.000000        0.126860         4    ;  uncertainty k = 0.116904
         7         2         1        30     9        0.000000        3.575821         1    ;  uncertainty k = 0.766728
         7         2         1        30     9      180.000000        5.558291         2    ;  uncertainty k = 0.223854
         7         2         1        30     9        0.000000        0.599879         3    ;  uncertainty k = 0.176395
         7         2         1        30     9      180.000000       -0.142144         4    ;  uncertainty k = 0.059973
         7         2         3        31     9        0.000000        0.262127         1    ;  uncertainty k = 0.388853
         7         2         3        31     9      180.000000        5.873920         2    ;  uncertainty k = 0.850115
         7         2         3        31     9        0.000000        1.127080         3    ;  uncertainty k = 0.163496
         7         2         3        31     9      180.000000        1.432252         4    ;  uncertainty k = 0.270927
         7         6         5        20     9        0.000000        0.076452         1    ;  uncertainty k = 0.284767
         7         6         5        20     9      180.000000        6.080417         2    ;  uncertainty k = 1.149880
         7         6         5        20     9        0.000000        0.106983         3    ;  uncertainty k = 0.156573
         7         6         5        20     9      180.000000        1.373586         4    ;  uncertainty k = 0.405208
         7         6        17        18     9        0.000000        0.427932         1    ;  uncertainty k = 1.029215
         7         6        17        18     9      180.000000       12.638434         2    ;  uncertainty k = 0.318598
         7         6        17        18     9        0.000000        2.227131         3    ;  uncertainty k = 0.470956
         7         6        17        18     9      180.000000        1.437848         4    ;  uncertainty k = 0.260470
         8         4         3        31     9        0.000000        0.133919         1    ;  uncertainty k = 0.241848
         8         4         3        31     9      180.000000        8.368021         2    ;  uncertainty k = 0.247906
         8         4         3        31     9        0.000000        1.001197         3    ;  uncertainty k = 0.152989
         8         4         3        31     9      180.000000        1.398313         4    ;  uncertainty k = 0.293350
         8         4         5        20     9        0.000000        0.205608         1    ;  uncertainty k = 1.297116
         8         4         5        20     9      180.000000        7.137751         2    ;  uncertainty k = 0.766263
         8         4         5        20     9        0.000000        0.773424         3    ;  uncertainty k = 0.512634
         8         4         5        20     9      180.000000        1.176773         4    ;  uncertainty k = 0.263388
         8         9        10        11     9        0.000000       -0.088237         1    ;  uncertainty k = 0.303401
         8         9        10        11     9      180.000000       16.637935         2    ;  uncertainty k = 0.333977
         8         9        10        11     9        0.000000       -0.360480         3    ;  uncertainty k = 0.532647
         8         9        10        11     9      180.000000        0.692099         4    ;  uncertainty k = 0.430867
         8         9        10        34     9        0.000000       -0.068874         1    ;  uncertainty k = 0.208186
         8         9        10        34     9      180.000000        8.826761         2    ;  uncertainty k = 0.512392
         8         9        10        34     9        0.000000        1.364386         3    ;  uncertainty k = 0.219987
         8         9        10        34     9      180.000000        1.899722         4    ;  uncertainty k = 0.318556
         8        13        12        11     9        0.000000       -0.149024         1    ;  uncertainty k = 0.543450
         8        13        12        11     9      180.000000       12.121194         2    ;  uncertainty k = 0.115800
         8        13        12        11     9        0.000000       -0.939443         3    ;  uncertainty k = 0.507589
         8        13        12        11     9      180.000000        0.860046         4    ;  uncertainty k = 0.197235
         8        13        12        16     9        0.000000        0.212530         1    ;  uncertainty k = 0.147665
         8        13        12        16     9      180.000000       10.459764         2    ;  uncertainty k = 0.471484
         8        13        12        16     9        0.000000        1.021284         3    ;  uncertainty k = 0.274552
         8        13        12        16     9      180.000000        1.335798         4    ;  uncertainty k = 0.221198
         9         8        13        12     9        0.000000       -0.053115         1    ;  uncertainty k = 0.278159
         9         8        13        12     9      180.000000       13.312168         2    ;  uncertainty k = 0.270024
         9         8        13        12     9        0.000000       -0.017985         3    ;  uncertainty k = 0.385054
         9         8        13        12     9      180.000000        0.899868         4    ;  uncertainty k = 0.336492
         9         8        13        35     9        0.000000        0.324286         1    ;  uncertainty k = 0.275978
         9         8        13        35     9      180.000000        7.772420         2    ;  uncertainty k = 0.500279
         9         8        13        35     9        0.000000        1.473057         3    ;  uncertainty k = 0.166957
         9         8        13        35     9      180.000000        1.643833         4    ;  uncertainty k = 0.220963
         9        10        11        12     9        0.000000        0.015179         1    ;  uncertainty k = 0.183013
         9        10        11        12     9      180.000000       13.267788         2    ;  uncertainty k = 0.263041
         9        10        11        12     9        0.000000       -1.677048         3    ;  uncertainty k = 0.342200
         9        10        11        12     9      180.000000        0.680123         4    ;  uncertainty k = 0.245766
         9        10        11        14     9        0.000000        0.168081         1    ;  uncertainty k = 0.172640
         9        10        11        14     9      180.000000        8.937069         2    ;  uncertainty k = 0.347169
         9        10        11        14     9        0.000000        0.640838         3    ;  uncertainty k = 0.199488
         9        10        11        14     9      180.000000        1.231015         4    ;  uncertainty k = 0.108242
        10         9         8        13     9        0.000000       -0.234351         1    ;  uncertainty k = 0.151821
        10         9         8        13     9      180.000000       10.060343         2    ;  uncertainty k = 0.243333
        10         9         8        13     9        0.000000       -0.319786         3    ;  uncertainty k = 0.496923
        10         9         8        13     9      180.000000        0.990976         4    ;  uncertainty k = 0.258596
        10        11        12        13     9        0.000000       -0.563658         1    ;  uncertainty k = 1.052576
        10        11        12        13     9      180.000000        7.918710         2    ;  uncertainty k = 0.880080
        10        11        12        13     9        0.000000        0.146189         3    ;  uncertainty k = 0.303935
        10        11        12        13     9      180.000000        0.889831         4    ;  uncertainty k = 0.388926
        10        11        12        16     9        0.000000        0.176056         1    ;  uncertainty k = 0.453596
        10        11        12        16     9      180.000000        8.243113         2    ;  uncertainty k = 0.257976
        10        11        12        16     9        0.000000       -0.059609         3    ;  uncertainty k = 0.396357
        10        11        12        16     9      180.000000        1.309643         4    ;  uncertainty k = 0.308186
        10        11        14        15     9        0.000000        0.511305         1    ;  uncertainty k = 0.793984
        10        11        14        15     9      180.000000        6.744679         2    ;  uncertainty k = 0.997873
        10        11        14        15     9        0.000000        0.274717         3    ;  uncertainty k = 0.537264
        10        11        14        15     9      180.000000        1.010143         4    ;  uncertainty k = 0.225695
        10        11        14        36     9        0.000000        0.606453         1    ;  uncertainty k = 0.850022
        10        11        14        36     9      180.000000        4.093390         2    ;  uncertainty k = 0.848756
        10        11        14        36     9        0.000000        1.375301         3    ;  uncertainty k = 0.426874
        10        11        14        36     9      180.000000        0.101118         4    ;  uncertainty k = 0.145411
        11        10         9        33     9        0.000000       -0.025946         1    ;  uncertainty k = 0.303009
        11        10         9        33     9      180.000000       11.299048         2    ;  uncertainty k = 0.337051
        11        10         9        33     9        0.000000        1.440131         3    ;  uncertainty k = 0.287190
        11        10         9        33     9      180.000000        1.704245         4    ;  uncertainty k = 0.284573
        11        12        13        35     9        0.000000        0.113361         1    ;  uncertainty k = 0.441545
        11        12        13        35     9      180.000000        6.764952         2    ;  uncertainty k = 0.865473
        11        12        13        35     9        0.000000        1.346687         3    ;  uncertainty k = 0.169660
        11        12        13        35     9      180.000000        1.338700         4    ;  uncertainty k = 0.261595
        11        12        16        15     9        0.000000        0.268811         1    ;  uncertainty k = 0.833799
        11        12        16        15     9      180.000000       14.131316         2    ;  uncertainty k = 0.606105
        11        12        16        15     9        0.000000       -6.512747         3    ;  uncertainty k = 1.135818
        11        12        16        15     9      180.000000        0.929198         4    ;  uncertainty k = 0.439288
        11        12        16        21     9        0.000000        2.277569         1    ;  uncertainty k = 0.770886
        11        12        16        21     9      180.000000        5.178088         2    ;  uncertainty k = 0.354898
        11        12        16        21     9        0.000000        1.568715         3    ;  uncertainty k = 0.279168
        11        12        16        21     9      180.000000        0.176309         4    ;  uncertainty k = 0.114600
        11        14        15        16     9        0.000000       -0.277607         1    ;  uncertainty k = 0.238564
        11        14        15        16     9      180.000000       22.092014         2    ;  uncertainty k = 0.248817
        11        14        15        16     9        0.000000       -6.461113         3    ;  uncertainty k = 0.282795
        11        14        15        16     9      180.000000        1.349535         4    ;  uncertainty k = 0.401228
        11        14        15        37     9        0.000000       -0.004714         1    ;  uncertainty k = 0.396226
        11        14        15        37     9      180.000000       12.360945         2    ;  uncertainty k = 0.135928
        11        14        15        37     9        0.000000        1.866097         3    ;  uncertainty k = 0.177332
        11        14        15        37     9      180.000000        0.972890         4    ;  uncertainty k = 0.182999
        12        11        10        34     9        0.000000        0.124387         1    ;  uncertainty k = 0.373034
        12        11        10        34     9      180.000000        7.210887         2    ;  uncertainty k = 0.881417
        12        11        10        34     9        0.000000        1.401519         3    ;  uncertainty k = 0.369643
        12        11        10        34     9      180.000000        1.163098         4    ;  uncertainty k = 0.413706
        12        11        14        15     9        0.000000        0.450027         1    ;  uncertainty k = 0.908073
        12        11        14        15     9      180.000000       13.173235         2    ;  uncertainty k = 0.776587
        12        11        14        15     9        0.000000      -10.991006         3    ;  uncertainty k = 2.573421
        12        11        14        15     9      180.000000        1.867148         4    ;  uncertainty k = 0.661434
        12        11        14        36     9        0.000000        0.023374         1    ;  uncertainty k = 0.592172
        12        11        14        36     9      180.000000        8.114225         2    ;  uncertainty k = 0.620356
        12        11        14        36     9        0.000000        1.336432         3    ;  uncertainty k = 0.600040
        12        11        14        36     9      180.000000        0.332209         4    ;  uncertainty k = 0.200949
        12        16        15        14     9        0.000000       -0.256602         1    ;  uncertainty k = 0.388703
        12        16        15        14     9      180.000000       15.681418         2    ;  uncertainty k = 0.602078
        12        16        15        14     9        0.000000       -6.396111         3    ;  uncertainty k = 1.656550
        12        16        15        14     9      180.000000        0.936026         4    ;  uncertainty k = 0.391999
        12        16        15        37     9        0.000000        1.176326         1    ;  uncertainty k = 0.849237
        12        16        15        37     9      180.000000        7.035330         2    ;  uncertainty k = 0.660686
        12        16        15        37     9        0.000000        1.598165         3    ;  uncertainty k = 0.299780
        12        16        15        37     9      180.000000        0.164807         4    ;  uncertainty k = 0.100188
        12        16        21        40     9        0.000000       -0.408568         1    ;  uncertainty k = 0.246905
        12        16        21        40     9      180.000000       -1.317196         2    ;  uncertainty k = 0.168942
        12        16        21        40     9        0.000000        1.090647         3    ;  uncertainty k = 0.080702
        12        16        21        40     9      180.000000        0.217211         4    ;  uncertainty k = 0.045154
        12        16        21        41     9        0.000000       -0.408568         1    ;  uncertainty k = 0.246905
        12        16        21        41     9      180.000000       -1.317196         2    ;  uncertainty k = 0.168942
        12        16        21        41     9        0.000000        1.090647         3    ;  uncertainty k = 0.080702
        12        16        21        41     9      180.000000        0.217211         4    ;  uncertainty k = 0.045154
        12        16        21        42     9        0.000000       -0.408568         1    ;  uncertainty k = 0.246905
        12        16        21        42     9      180.000000       -1.317196         2    ;  uncertainty k = 0.168942
        12        16        21        42     9        0.000000        1.090647         3    ;  uncertainty k = 0.080702
        12        16        21        42     9      180.000000        0.217211         4    ;  uncertainty k = 0.045154
        13         8         9        33     9        0.000000        0.170680         1    ;  uncertainty k = 0.094349
        13         8         9        33     9      180.000000        6.588589         2    ;  uncertainty k = 0.576707
        13         8         9        33     9        0.000000        1.389950         3    ;  uncertainty k = 0.140405
        13         8         9        33     9      180.000000        1.590416         4    ;  uncertainty k = 0.228049
        13        12        11        14     9        0.000000        0.110683         1    ;  uncertainty k = 0.560069
        13        12        11        14     9      180.000000        7.680716         2    ;  uncertainty k = 0.276652
        13        12        11        14     9        0.000000        0.240823         3    ;  uncertainty k = 0.430528
        13        12        11        14     9      180.000000        1.182835         4    ;  uncertainty k = 0.239317
        13        12        16        15     9        0.000000        1.096033         1    ;  uncertainty k = 1.298951
        13        12        16        15     9      180.000000        6.112340         2    ;  uncertainty k = 0.742501
        13        12        16        15     9        0.000000        0.700126         3    ;  uncertainty k = 0.193201
        13        12        16        15     9      180.000000        0.290744         4    ;  uncertainty k = 0.152037
        13        12        16        21     9        0.000000        0.381171         1    ;  uncertainty k = 1.813554
        13        12        16        21     9      180.000000        2.830187         2    ;  uncertainty k = 0.478377
        13        12        16        21     9        0.000000        0.849606         3    ;  uncertainty k = 0.419853
        13        12        16        21     9      180.000000        0.083786         4    ;  uncertainty k = 0.135735
        14        11        10        34     9        0.000000        0.105499         1    ;  uncertainty k = 0.553991
        14        11        10        34     9      180.000000        5.639369         2    ;  uncertainty k = 0.488478
        14        11        10        34     9        0.000000        1.044664         3    ;  uncertainty k = 0.341162
        14        11        10        34     9      180.000000        0.711452         4    ;  uncertainty k = 0.362067
        14        11        12        16     9        0.000000       -0.248706         1    ;  uncertainty k = 0.120972
        14        11        12        16     9      180.000000       12.895532         2    ;  uncertainty k = 0.840948
        14        11        12        16     9        0.000000       -3.668924         3    ;  uncertainty k = 1.019109
        14        11        12        16     9      180.000000        1.520072         4    ;  uncertainty k = 0.794284
        14        15        16        21     9        0.000000        1.377314         1    ;  uncertainty k = 0.855302
        14        15        16        21     9      180.000000        8.854296         2    ;  uncertainty k = 0.336077
        14        15        16        21     9        0.000000        1.850755         3    ;  uncertainty k = 0.421572
        14        15        16        21     9      180.000000        0.005711         4    ;  uncertainty k = 0.191906
        15        16        21        40     9        0.000000        0.012373         1    ;  uncertainty k = 0.156207
        15        16        21        40     9      180.000000       -1.304491         2    ;  uncertainty k = 0.215975
        15        16        21        40     9        0.000000        0.598725         3    ;  uncertainty k = 0.126338
        15        16        21        40     9      180.000000        0.181531         4    ;  uncertainty k = 0.051525
        15        16        21        41     9        0.000000        0.012373         1    ;  uncertainty k = 0.156207
        15        16        21        41     9      180.000000       -1.304491         2    ;  uncertainty k = 0.215975
        15        16        21        41     9        0.000000        0.598725         3    ;  uncertainty k = 0.126338
        15        16        21        41     9      180.000000        0.181531         4    ;  uncertainty k = 0.051525
        15        16        21        42     9        0.000000        0.012373         1    ;  uncertainty k = 0.156207
        15        16        21        42     9      180.000000       -1.304491         2    ;  uncertainty k = 0.215975
        15        16        21        42     9        0.000000        0.598725         3    ;  uncertainty k = 0.126338
        15        16        21        42     9      180.000000        0.181531         4    ;  uncertainty k = 0.051525
        16        12        13        35     9        0.000000        0.243928         1    ;  uncertainty k = 0.292557
        16        12        13        35     9      180.000000        5.709932         2    ;  uncertainty k = 0.412053
        16        12        13        35     9        0.000000        1.177664         3    ;  uncertainty k = 0.438420
        16        12        13        35     9      180.000000        0.924568         4    ;  uncertainty k = 0.367001
        16        15        14        36     9        0.000000        0.281181         1    ;  uncertainty k = 0.777507
        16        15        14        36     9      180.000000       14.368324         2    ;  uncertainty k = 0.563599
        16        15        14        36     9        0.000000        1.716576         3    ;  uncertainty k = 0.616570
        16        15        14        36     9      180.000000        0.925073         4    ;  uncertainty k = 0.423264
        17         6         5        20     9        0.000000       -0.400491         1    ;  uncertainty k = 0.890674
        17         6         5        20     9      180.000000        7.087146         2    ;  uncertainty k = 0.720456
        17         6         5        20     9        0.000000        0.077638         3    ;  uncertainty k = 0.327162
        17         6         5        20     9      180.000000        1.330895         4    ;  uncertainty k = 0.356326
        17         6         7        32     9        0.000000        0.139927         1    ;  uncertainty k = 0.233387
        17         6         7        32     9      180.000000        8.199302         2    ;  uncertainty k = 0.492393
        17         6         7        32     9        0.000000        1.032825         3    ;  uncertainty k = 0.329116
        17         6         7        32     9      180.000000        1.219854         4    ;  uncertainty k = 0.291231
        17        18        19        20     9        0.000000       -0.202867         1    ;  uncertainty k = 0.782206
        17        18        19        20     9      180.000000       12.112995         2    ;  uncertainty k = 0.805807
        17        18        19        20     9        0.000000       -1.599825         3    ;  uncertainty k = 0.569696
        17        18        19        20     9      180.000000        0.918171         4    ;  uncertainty k = 0.463987
        17        18        19        39     9        0.000000       -0.033263         1    ;  uncertainty k = 0.634832
        17        18        19        39     9      180.000000        6.504271         2    ;  uncertainty k = 1.136879
        17        18        19        39     9        0.000000        0.521237         3    ;  uncertainty k = 0.433608
        17        18        19        39     9      180.000000        1.070757         4    ;  uncertainty k = 0.343719
        20        19        18        38     9        0.000000        0.036888         1    ;  uncertainty k = 0.700692
        20        19        18        38     9      180.000000        6.513920         2    ;  uncertainty k = 1.135262
        20        19        18        38     9        0.000000        0.521731         3    ;  uncertainty k = 0.385188
        20        19        18        38     9      180.000000        1.117821         4    ;  uncertainty k = 0.330142
        21        16        15        37     9        0.000000       -0.357950         1    ;  uncertainty k = 0.336354
        21        16        15        37     9      180.000000        2.701717         2    ;  uncertainty k = 0.518907
        21        16        15        37     9        0.000000        1.060504         3    ;  uncertainty k = 0.337396
        21        16        15        37     9      180.000000        0.096607         4    ;  uncertainty k = 0.212503
        22        23        24        25     9        0.000000        0.758372         1    ;  uncertainty k = 0.605923
        22        23        24        25     9      180.000000       10.804944         2    ;  uncertainty k = 0.360420
        22        23        24        25     9        0.000000        1.740773         3    ;  uncertainty k = 0.471585
        22        23        24        25     9      180.000000        1.223952         4    ;  uncertainty k = 0.194301
        22        23        28        29     9        0.000000        4.417127         1    ;  uncertainty k = 0.819774
        22        23        28        29     9      180.000000        5.610829         2    ;  uncertainty k = 0.450176
        22        23        28        29     9        0.000000        0.733757         3    ;  uncertainty k = 0.296319
        22        23        28        29     9      180.000000        0.150145         4    ;  uncertainty k = 0.102478
        22        27        26        25     9        0.000000       -0.295912         1    ;  uncertainty k = 0.243943
        22        27        26        25     9      180.000000       13.416808         2    ;  uncertainty k = 0.253796
        22        27        26        25     9        0.000000       -1.187819         3    ;  uncertainty k = 0.635626
        22        27        26        25     9      180.000000        0.750581         4    ;  uncertainty k = 0.392249
        22        27        26        44     9        0.000000        0.217663         1    ;  uncertainty k = 0.180428
        22        27        26        44     9      180.000000        7.575900         2    ;  uncertainty k = 0.594700
        22        27        26        44     9        0.000000        1.402701         3    ;  uncertainty k = 0.357547
        22        27        26        44     9      180.000000        1.638909         4    ;  uncertainty k = 0.205713
        23        22         1        30     9        0.000000        5.617953         1    ;  uncertainty k = 0.811061
        23        22         1        30     9      180.000000        1.935334         2    ;  uncertainty k = 0.532283
        23        22         1        30     9        0.000000        0.152820         3    ;  uncertainty k = 0.419602
        23        22         1        30     9      180.000000       -0.167940         4    ;  uncertainty k = 0.233712
        23        22        27        26     9        0.000000        0.030686         1    ;  uncertainty k = 0.403354
        23        22        27        26     9      180.000000        8.460903         2    ;  uncertainty k = 0.802166
        23        22        27        26     9        0.000000        0.082696         3    ;  uncertainty k = 0.407168
        23        22        27        26     9      180.000000        1.427285         4    ;  uncertainty k = 0.220903
        23        22        27        45     9        0.000000        0.143902         1    ;  uncertainty k = 0.423229
        23        22        27        45     9      180.000000        6.499080         2    ;  uncertainty k = 0.351660
        23        22        27        45     9        0.000000        1.333823         3    ;  uncertainty k = 0.255831
        23        22        27        45     9      180.000000        1.424901         4    ;  uncertainty k = 0.076514
        23        24        25        26     9        0.000000       -0.194560         1    ;  uncertainty k = 0.470683
        23        24        25        26     9      180.000000       15.234807         2    ;  uncertainty k = 0.195145
        23        24        25        26     9        0.000000        0.658417         3    ;  uncertainty k = 0.309266
        23        24        25        26     9      180.000000        1.240091         4    ;  uncertainty k = 0.358822
        23        24        25        43     9        0.000000        0.374947         1    ;  uncertainty k = 0.166587
        23        24        25        43     9      180.000000       15.116427         2    ;  uncertainty k = 0.405869
        23        24        25        43     9        0.000000        2.107183         3    ;  uncertainty k = 0.711749
        23        24        25        43     9      180.000000        1.350330         4    ;  uncertainty k = 0.581415
        23        28        29        46     9        0.000000        1.949551         1    ;  uncertainty k = 0.349065
        23        28        29        46     9      180.000000       -0.822346         2    ;  uncertainty k = 0.168522
        23        28        29        46     9        0.000000        0.488281         3    ;  uncertainty k = 0.107952
        23        28        29        46     9      180.000000        0.436609         4    ;  uncertainty k = 0.129003
        23        28        29        47     9        0.000000        1.949551         1    ;  uncertainty k = 0.349065
        23        28        29        47     9      180.000000       -0.822346         2    ;  uncertainty k = 0.168522
        23        28        29        47     9        0.000000        0.488281         3    ;  uncertainty k = 0.107952
        23        28        29        47     9      180.000000        0.436609         4    ;  uncertainty k = 0.129003
        23        28        29        48     9        0.000000        1.949551         1    ;  uncertainty k = 0.349065
        23        28        29        48     9      180.000000       -0.822346         2    ;  uncertainty k = 0.168522
        23        28        29        48     9        0.000000        0.488281         3    ;  uncertainty k = 0.107952
        23        28        29        48     9      180.000000        0.436609         4    ;  uncertainty k = 0.129003
        24        23        22        27     9        0.000000       -0.127713         1    ;  uncertainty k = 0.379185
        24        23        22        27     9      180.000000        4.597162         2    ;  uncertainty k = 1.743800
        24        23        22        27     9        0.000000       -0.154214         3    ;  uncertainty k = 0.343226
        24        23        22        27     9      180.000000        1.182568         4    ;  uncertainty k = 0.401588
        24        23        28        29     9        0.000000       -0.134309         1    ;  uncertainty k = 1.362234
        24        23        28        29     9      180.000000        8.359648         2    ;  uncertainty k = 0.209059
        24        23        28        29     9        0.000000        0.100244         3    ;  uncertainty k = 0.323460
        24        23        28        29     9      180.000000        0.421970         4    ;  uncertainty k = 0.217632
        24        25        26        27     9        0.000000        0.057901         1    ;  uncertainty k = 0.479592
        24        25        26        27     9      180.000000       16.222714         2    ;  uncertainty k = 0.234535
        24        25        26        27     9        0.000000       -1.526251         3    ;  uncertainty k = 0.661922
        24        25        26        27     9      180.000000        0.754110         4    ;  uncertainty k = 0.239745
        24        25        26        44     9        0.000000        0.127063         1    ;  uncertainty k = 0.168800
        24        25        26        44     9      180.000000       10.046778         2    ;  uncertainty k = 0.525995
        24        25        26        44     9        0.000000        0.904033         3    ;  uncertainty k = 0.276872
        24        25        26        44     9      180.000000        1.600039         4    ;  uncertainty k = 0.105772
        25        24        23        28     9        0.000000        0.591058         1    ;  uncertainty k = 1.068137
        25        24        23        28     9      180.000000       16.031412         2    ;  uncertainty k = 0.403323
        25        24        23        28     9        0.000000        2.805613         3    ;  uncertainty k = 0.330614
        25        24        23        28     9      180.000000        1.701097         4    ;  uncertainty k = 0.184654
        25        26        27        45     9        0.000000       -0.066881         1    ;  uncertainty k = 0.359159
        25        26        27        45     9      180.000000        7.653925         2    ;  uncertainty k = 0.263967
        25        26        27        45     9        0.000000        1.330600         3    ;  uncertainty k = 0.242944
        25        26        27        45     9      180.000000        1.575581         4    ;  uncertainty k = 0.129630
        27        22         1        30     9        0.000000        2.175010         1    ;  uncertainty k = 0.944184
        27        22         1        30     9      180.000000        3.922392         2    ;  uncertainty k = 0.662757
        27        22         1        30     9        0.000000        0.214266         3    ;  uncertainty k = 0.254393
        27        22         1        30     9      180.000000       -0.175703         4    ;  uncertainty k = 0.038729
        27        22        23        28     9        0.000000        0.704140         1    ;  uncertainty k = 0.506643
        27        22        23        28     9      180.000000        5.050886         2    ;  uncertainty k = 0.668821
        27        22        23        28     9        0.000000        0.630389         3    ;  uncertainty k = 0.291870
        27        22        23        28     9      180.000000        1.454398         4    ;  uncertainty k = 0.589146
        27        26        25        43     9        0.000000       -0.148493         1    ;  uncertainty k = 0.243612
        27        26        25        43     9      180.000000        6.565506         2    ;  uncertainty k = 0.357652
        27        26        25        43     9        0.000000        1.277415         3    ;  uncertainty k = 0.218834
        27        26        25        43     9      180.000000        1.541460         4    ;  uncertainty k = 0.201960
        33         9        10        34     9        0.000000       -0.116208         1    ;  uncertainty k = 0.085773
        33         9        10        34     9      180.000000        7.987768         2    ;  uncertainty k = 0.371552
        33         9        10        34     9        0.000000       -0.214199         3    ;  uncertainty k = 0.235185
        33         9        10        34     9      180.000000        0.260529         4    ;  uncertainty k = 0.235509
        36        14        15        37     9        0.000000       -0.013045         1    ;  uncertainty k = 0.452147
        36        14        15        37     9      180.000000        5.800985         2    ;  uncertainty k = 0.791053
        36        14        15        37     9        0.000000        1.154438         3    ;  uncertainty k = 0.426920
        36        14        15        37     9      180.000000        0.344798         4    ;  uncertainty k = 0.119750
        38        18        19        39     9        0.000000       -0.152652         1    ;  uncertainty k = 0.805688
        38        18        19        39     9      180.000000        5.398108         2    ;  uncertainty k = 0.723626
        38        18        19        39     9        0.000000        0.147470         3    ;  uncertainty k = 0.248173
        38        18        19        39     9      180.000000        0.216442         4    ;  uncertainty k = 0.153410
        43        25        26        44     9        0.000000       -0.147179         1    ;  uncertainty k = 0.226141
        43        25        26        44     9      180.000000        6.574808         2    ;  uncertainty k = 0.241899
        43        25        26        44     9        0.000000       -0.011829         3    ;  uncertainty k = 0.146981
        43        25        26        44     9      180.000000        0.206334         4    ;  uncertainty k = 0.091368
        44        26        27        45     9        0.000000        0.092851         1    ;  uncertainty k = 0.238062
        44        26        27        45     9      180.000000        7.694617         2    ;  uncertainty k = 0.455171
        44        26        27        45     9        0.000000       -0.414424         3    ;  uncertainty k = 0.317763
        44        26        27        45     9      180.000000        0.111715         4    ;  uncertainty k = 0.167002

[ dihedrals ] ; impropers
;       ai        aj        ak        al funct           phase               k        pn
         1         2        22        30     4      180.000000        1.180352         2    ;  uncertainty k = 1.011082
         1        22        30         2     4      180.000000        1.180352         2    ;  uncertainty k = 1.011082
         1        30         2        22     4      180.000000        1.180352         2    ;  uncertainty k = 1.011082
         2         1         3         7     4      180.000000       20.560359         2    ;  uncertainty k = 0.051396
         2         3         7         1     4      180.000000       20.560359         2    ;  uncertainty k = 0.051396
         2         7         1         3     4      180.000000       20.560359         2    ;  uncertainty k = 0.051396
         3         2         4        31     4      180.000000        3.031669         2    ;  uncertainty k = 0.375448
         3         4        31         2     4      180.000000        3.031669         2    ;  uncertainty k = 0.375448
         3        31         2         4     4      180.000000        3.031669         2    ;  uncertainty k = 0.375448
         4         3         5         8     4      180.000000       17.976629         2    ;  uncertainty k = 0.099558
         4         5         8         3     4      180.000000       17.976629         2    ;  uncertainty k = 0.099558
         4         8         3         5     4      180.000000       17.976629         2    ;  uncertainty k = 0.099558
         5         4         6        20     4      180.000000       16.619254         2    ;  uncertainty k = 0.086962
         5         6        20         4     4      180.000000       16.619254         2    ;  uncertainty k = 0.086962
         5        20         4         6     4      180.000000       16.619254         2    ;  uncertainty k = 0.086962
         6         5         7        17     4      180.000000       18.442489         2    ;  uncertainty k = 0.055239
         6         7        17         5     4      180.000000       18.442489         2    ;  uncertainty k = 0.055239
         6        17         5         7     4      180.000000       18.442489         2    ;  uncertainty k = 0.055239
         7         2         6        32     4      180.000000        2.506062         2    ;  uncertainty k = 0.378862
         7         6        32         2     4      180.000000        2.506062         2    ;  uncertainty k = 0.378862
         7        32         2         6     4      180.000000        2.506062         2    ;  uncertainty k = 0.378862
         8         4         9        13     4      180.000000       12.719694         2    ;  uncertainty k = 0.169587
         8         9        13         4     4      180.000000       12.719694         2    ;  uncertainty k = 0.169587
         8        13         4         9     4      180.000000       12.719694         2    ;  uncertainty k = 0.169587
         9         8        10        33     4      180.000000        3.145466         2    ;  uncertainty k = 0.234155
         9        10        33         8     4      180.000000        3.145466         2    ;  uncertainty k = 0.234155
         9        33         8        10     4      180.000000        3.145466         2    ;  uncertainty k = 0.234155
        10         9        11        34     4      180.000000        3.905812         2    ;  uncertainty k = 0.125325
        10        11        34         9     4      180.000000        3.905812         2    ;  uncertainty k = 0.125325
        10        34         9        11     4      180.000000        3.905812         2    ;  uncertainty k = 0.125325
        12        11        13        16     4      180.000000        0.447276         2    ;  uncertainty k = 0.540174
        12        13        16        11     4      180.000000        0.447276         2    ;  uncertainty k = 0.540174
        12        16        11        13     4      180.000000        0.447276         2    ;  uncertainty k = 0.540174
        13         8        12        35     4      180.000000        2.774840         2    ;  uncertainty k = 0.245478
        13        12        35         8     4      180.000000        2.774840         2    ;  uncertainty k = 0.245478
        13        35         8        12     4      180.000000        2.774840         2    ;  uncertainty k = 0.245478
        15        14        16        37     4      180.000000        0.796715         2    ;  uncertainty k = 0.335582
        15        16        37        14     4      180.000000        0.796715         2    ;  uncertainty k = 0.335582
        15        37        14        16     4      180.000000        0.796715         2    ;  uncertainty k = 0.335582
        18        17        19        38     4      180.000000       11.948848         2    ;  uncertainty k = 0.101429
        18        19        38        17     4      180.000000       11.948848         2    ;  uncertainty k = 0.101429
        18        38        17        19     4      180.000000       11.948848         2    ;  uncertainty k = 0.101429
        19        18        20        39     4      180.000000       12.058349         2    ;  uncertainty k = 0.155869
        19        20        39        18     4      180.000000       12.058349         2    ;  uncertainty k = 0.155869
        19        39        18        20     4      180.000000       12.058349         2    ;  uncertainty k = 0.155869
        22         1        23        27     4      180.000000       15.548054         2    ;  uncertainty k = 0.163099
        22        23        27         1     4      180.000000       15.548054         2    ;  uncertainty k = 0.163099
        22        27         1        23     4      180.000000       15.548054         2    ;  uncertainty k = 0.163099
        23        22        24        28     4      180.000000       24.807642         2    ;  uncertainty k = 0.106685
        23        24        28        22     4      180.000000       24.807642         2    ;  uncertainty k = 0.106685
        23        28        22        24     4      180.000000       24.807642         2    ;  uncertainty k = 0.106685
        25        24        26        43     4      180.000000       11.562158         2    ;  uncertainty k = 0.105300
        25        26        43        24     4      180.000000       11.562158         2    ;  uncertainty k = 0.105300
        25        43        24        26     4      180.000000       11.562158         2    ;  uncertainty k = 0.105300
        26        25        27        44     4      180.000000        2.104874         2    ;  uncertainty k = 0.309229
        26        27        44        25     4      180.000000        2.104874         2    ;  uncertainty k = 0.309229
        26        44        25        27     4      180.000000        2.104874         2    ;  uncertainty k = 0.309229
        27        22        26        45     4      180.000000        3.715746         2    ;  uncertainty k = 0.216596
        27        26        45        22     4      180.000000        3.715746         2    ;  uncertainty k = 0.216596
        27        45        22        26     4      180.000000        3.715746         2    ;  uncertainty k = 0.216596

[ pairs ]
;       ai        aj funct
         1         4     1
         1         6     1
         1        24     1
         1        26     1
         1        28     1
         1        31     1
         1        32     1
         1        45     1
         2         5     1
         2         8     1
         2        17     1
         2        23     1
         2        27     1
         3         6     1
         3         9     1
         3        13     1
         3        20     1
         3        22     1
         3        30     1
         3        32     1
         4         7     1
         4        10     1
         4        12     1
         4        17     1
         4        19     1
         4        33     1
         4        35     1
         5         9     1
         5        13     1
         5        18     1
         5        31     1
         5        32     1
         5        39     1
         6         8     1
         6        19     1
         6        38     1
         7        18     1
         7        20     1
         7        22     1
         7        30     1
         7        31     1
         8        11     1
         8        16     1
         8        20     1
         8        31     1
         8        34     1
         9        12     1
         9        14     1
         9        35     1
        10        13     1
        10        15     1
        10        16     1
        10        36     1
        11        21     1
        11        33     1
        11        35     1
        11        37     1
        12        34     1
        12        36     1
        12        37     1
        12        40     1
        12        41     1
        12        42     1
        13        14     1
        13        15     1
        13        21     1
        13        33     1
        14        21     1
        14        34     1
        15        40     1
        15        41     1
        15        42     1
        16        35     1
        16        36     1
        17        20     1
        17        32     1
        17        39     1
        20        38     1
        21        37     1
        22        25     1
        22        29     1
        22        44     1
        23        26     1
        23        30     1
        23        43     1
        23        45     1
        23        46     1
        23        47     1
        23        48     1
        24        27     1
        24        29     1
        24        44     1
        25        28     1
        25        45     1
        27        28     1
        27        30     1
        27        43     1
        33        34     1
        36        37     1
        38        39     1
        43        44     1
        44        45     1
