; ITP file created by ByteFF-joint-25, 2026-02-17 09:23:54.960000

[ atomtypes ]
;name           bonded.type        at.num        mass        charge   ptype           sigma         epsilon
 n0bf                                   7      0.0000       0.00000       A     3.27926e-01     6.48481e-01    ;  uncertainty sigma = 0.000048, epsilon = 0.003440
 c1bf                                   6      0.0000       0.00000       A     3.31543e-01     4.13599e-01    ;  uncertainty sigma = 0.000013, epsilon = 0.001511
 c2bf                                   6      0.0000       0.00000       A     3.31496e-01     4.13470e-01    ;  uncertainty sigma = 0.000006, epsilon = 0.000742
 c3bf                                   6      0.0000       0.00000       A     3.31488e-01     4.12665e-01    ;  uncertainty sigma = 0.000011, epsilon = 0.000854
 c4bf                                   6      0.0000       0.00000       A     3.31509e-01     4.13539e-01    ;  uncertainty sigma = 0.000009, epsilon = 0.000465
 c5bf                                   6      0.0000       0.00000       A     3.31516e-01     4.13470e-01    ;  uncertainty sigma = 0.000011, epsilon = 0.000986
 c6bf                                   6      0.0000       0.00000       A     3.31519e-01     4.13020e-01    ;  uncertainty sigma = 0.000010, epsilon = 0.001115
 n7bf                                   7      0.0000       0.00000       A     3.38415e-01     3.93854e-01    ;  uncertainty sigma = 0.000010, epsilon = 0.001066
 c8bf                                   6      0.0000       0.00000       A     3.31531e-01     4.13178e-01    ;  uncertainty sigma = 0.000013, epsilon = 0.000482
 c9bf                                   6      0.0000       0.00000       A     3.31530e-01     4.13238e-01    ;  uncertainty sigma = 0.000010, epsilon = 0.000599
 n10bf                                  7      0.0000       0.00000       A     3.38414e-01     3.93827e-01    ;  uncertainty sigma = 0.000003, epsilon = 0.000862
 c11bf                                  6      0.0000       0.00000       A     3.31492e-01     4.13019e-01    ;  uncertainty sigma = 0.000020, epsilon = 0.000990
 c12bf                                  6      0.0000       0.00000       A     3.31520e-01     4.13276e-01    ;  uncertainty sigma = 0.000004, epsilon = 0.000572
 c13bf                                  6      0.0000       0.00000       A     3.31527e-01     4.13211e-01    ;  uncertainty sigma = 0.000005, epsilon = 0.000881
 c14bf                                  6      0.0000       0.00000       A     3.31521e-01     4.13081e-01    ;  uncertainty sigma = 0.000007, epsilon = 0.000493
 n15bf                                  7      0.0000       0.00000       A     3.20630e-01     8.53726e-01    ;  uncertainty sigma = 0.000021, epsilon = 0.000808
 c16bf                                  6      0.0000       0.00000       A     3.31522e-01     4.13356e-01    ;  uncertainty sigma = 0.000007, epsilon = 0.000813
 c17bf                                  6      0.0000       0.00000       A     3.31520e-01     4.13329e-01    ;  uncertainty sigma = 0.000004, epsilon = 0.000805
 c18bf                                  6      0.0000       0.00000       A     3.31516e-01     4.13261e-01    ;  uncertainty sigma = 0.000006, epsilon = 0.000450
 c19bf                                  6      0.0000       0.00000       A     3.31521e-01     4.12985e-01    ;  uncertainty sigma = 0.000005, epsilon = 0.000844
 c20bf                                  6      0.0000       0.00000       A     3.39777e-01     4.51127e-01    ;  uncertainty sigma = 0.000006, epsilon = 0.000488
 c21bf                                  6      0.0000       0.00000       A     3.31498e-01     4.13475e-01    ;  uncertainty sigma = 0.000017, epsilon = 0.000433
 c22bf                                  6      0.0000       0.00000       A     3.31566e-01     4.13052e-01    ;  uncertainty sigma = 0.000019, epsilon = 0.001528
 c23bf                                  6      0.0000       0.00000       A     3.31544e-01     4.13409e-01    ;  uncertainty sigma = 0.000009, epsilon = 0.000933
 c24bf                                  6      0.0000       0.00000       A     3.31530e-01     4.13208e-01    ;  uncertainty sigma = 0.000007, epsilon = 0.000579
 c25bf                                  6      0.0000       0.00000       A     3.31520e-01     4.13222e-01    ;  uncertainty sigma = 0.000009, epsilon = 0.000597
 n26bf                                  7      0.0000       0.00000       A     3.38413e-01     3.93796e-01    ;  uncertainty sigma = 0.000012, epsilon = 0.000928
 o27bf                                  8      0.0000       0.00000       A     3.15606e-01     3.04384e-01    ;  uncertainty sigma = 0.000018, epsilon = 0.001059
 c28bf                                  6      0.0000       0.00000       A     3.39777e-01     4.50831e-01    ;  uncertainty sigma = 0.000007, epsilon = 0.000540
 h29bf                                  1      0.0000       0.00000       A     1.10688e-01     4.10060e-02    ;  uncertainty sigma = 0.000099, epsilon = 0.001237
 h30bf                                  1      0.0000       0.00000       A     2.62566e-01     6.71159e-02    ;  uncertainty sigma = 0.000015, epsilon = 0.000400
 h31bf                                  1      0.0000       0.00000       A     2.62540e-01     6.71220e-02    ;  uncertainty sigma = 0.000022, epsilon = 0.000645
 h32bf                                  1      0.0000       0.00000       A     2.53628e-01     6.69333e-02    ;  uncertainty sigma = 0.000020, epsilon = 0.000763
 h33bf                                  1      0.0000       0.00000       A     2.53628e-01     6.69333e-02    ;  uncertainty sigma = 0.000020, epsilon = 0.000763
 h34bf                                  1      0.0000       0.00000       A     2.62563e-01     6.70733e-02    ;  uncertainty sigma = 0.000010, epsilon = 0.000583
 h35bf                                  1      0.0000       0.00000       A     2.62569e-01     6.69119e-02    ;  uncertainty sigma = 0.000009, epsilon = 0.000334
 h36bf                                  1      0.0000       0.00000       A     2.62578e-01     6.73014e-02    ;  uncertainty sigma = 0.000018, epsilon = 0.000492
 h37bf                                  1      0.0000       0.00000       A     2.62543e-01     6.72781e-02    ;  uncertainty sigma = 0.000012, epsilon = 0.000446
 h38bf                                  1      0.0000       0.00000       A     2.53669e-01     6.69807e-02    ;  uncertainty sigma = 0.000019, epsilon = 0.000693
 h39bf                                  1      0.0000       0.00000       A     2.42192e-01     8.67346e-02    ;  uncertainty sigma = 0.000017, epsilon = 0.000545
 h40bf                                  1      0.0000       0.00000       A     2.42192e-01     8.67346e-02    ;  uncertainty sigma = 0.000017, epsilon = 0.000545
 h41bf                                  1      0.0000       0.00000       A     2.42192e-01     8.67346e-02    ;  uncertainty sigma = 0.000017, epsilon = 0.000545
 h42bf                                  1      0.0000       0.00000       A     2.53637e-01     6.70880e-02    ;  uncertainty sigma = 0.000037, epsilon = 0.000652
 h43bf                                  1      0.0000       0.00000       A     2.62562e-01     6.71577e-02    ;  uncertainty sigma = 0.000016, epsilon = 0.000431
 h44bf                                  1      0.0000       0.00000       A     2.53646e-01     6.70966e-02    ;  uncertainty sigma = 0.000010, epsilon = 0.000462
 h45bf                                  1      0.0000       0.00000       A     2.42205e-01     8.67537e-02    ;  uncertainty sigma = 0.000015, epsilon = 0.000624
 h46bf                                  1      0.0000       0.00000       A     2.42205e-01     8.67537e-02    ;  uncertainty sigma = 0.000015, epsilon = 0.000624
 h47bf                                  1      0.0000       0.00000       A     2.42205e-01     8.67537e-02    ;  uncertainty sigma = 0.000015, epsilon = 0.000624

[ moleculetype ]
;name             nrexcl
 MOL                   3

[ atoms ]
;       nr            type      resi   res      atom      cgnr      charge          mass ; qtot
         1            n0bf         1   UNL        n0         1    -0.64243       14.0070 ; qtot   -0.642
         2            c1bf         1   UNL        c1         2     0.18590       12.0110 ; qtot   -0.457
         3            c2bf         1   UNL        c2         3    -0.16286       12.0110 ; qtot   -0.619
         4            c3bf         1   UNL        c3         4    -0.02411       12.0110 ; qtot   -0.643
         5            c4bf         1   UNL        c4         5    -0.22645       12.0110 ; qtot   -0.870
         6            c5bf         1   UNL        c5         6     0.32361       12.0110 ; qtot   -0.546
         7            c6bf         1   UNL        c6         7     0.27545       12.0110 ; qtot   -0.271
         8            n7bf         1   UNL        n7         8    -0.61815       14.0070 ; qtot   -0.889
         9            c8bf         1   UNL        c8         9     0.29560       12.0110 ; qtot   -0.593
        10            c9bf         1   UNL        c9        10     0.29621       12.0110 ; qtot   -0.297
        11           n10bf         1   UNL       n10        11    -0.62862       14.0070 ; qtot   -0.926
        12           c11bf         1   UNL       c11        12    -0.02479       12.0110 ; qtot   -0.951
        13           c12bf         1   UNL       c12        13    -0.13841       12.0110 ; qtot   -1.089
        14           c13bf         1   UNL       c13        14    -0.08699       12.0110 ; qtot   -1.176
        15           c14bf         1   UNL       c14        15    -0.12505       12.0110 ; qtot   -1.301
        16           n15bf         1   UNL       n15        16    -0.07889       14.0070 ; qtot   -1.380
        17           c16bf         1   UNL       c16        17    -0.05127       12.0110 ; qtot   -1.431
        18           c17bf         1   UNL       c17        18    -0.09144       12.0110 ; qtot   -1.523
        19           c18bf         1   UNL       c18        19    -0.19068       12.0110 ; qtot   -1.713
        20           c19bf         1   UNL       c19        20    -0.10251       12.0110 ; qtot   -1.816
        21           c20bf         1   UNL       c20        21     0.03587       12.0110 ; qtot   -1.780
        22           c21bf         1   UNL       c21        22     0.36891       12.0110 ; qtot   -1.411
        23           c22bf         1   UNL       c22        23     0.02295       12.0110 ; qtot   -1.388
        24           c23bf         1   UNL       c23        24     0.11810       12.0110 ; qtot   -1.270
        25           c24bf         1   UNL       c24        25    -0.29409       12.0110 ; qtot   -1.564
        26           c25bf         1   UNL       c25        26     0.39710       12.0110 ; qtot   -1.167
        27           n26bf         1   UNL       n26        27    -0.65195       14.0070 ; qtot   -1.819
        28           o27bf         1   UNL       o27        28    -0.33636       15.9990 ; qtot   -2.155
        29           c28bf         1   UNL       c28        29     0.12545       12.0110 ; qtot   -2.030
        30           h29bf         1   UNL       h29        30     0.44645        1.0080 ; qtot   -1.583
        31           h30bf         1   UNL       h30        31     0.14719        1.0080 ; qtot   -1.436
        32           h31bf         1   UNL       h31        32     0.15776        1.0080 ; qtot   -1.278
        33           h32bf         1   UNL       h32        33     0.03380        1.0080 ; qtot   -1.245
        34           h33bf         1   UNL       h33        34     0.03331        1.0080 ; qtot   -1.211
        35           h34bf         1   UNL       h34        35     0.13697        1.0080 ; qtot   -1.074
        36           h35bf         1   UNL       h35        36     0.13662        1.0080 ; qtot   -0.938
        37           h36bf         1   UNL       h36        37     0.13971        1.0080 ; qtot   -0.798
        38           h37bf         1   UNL       h37        38     0.15551        1.0080 ; qtot   -0.643
        39           h38bf         1   UNL       h38        39     0.16110        1.0080 ; qtot   -0.481
        40           h39bf         1   UNL       h39        40     0.04975        1.0080 ; qtot   -0.432
        41           h40bf         1   UNL       h40        41     0.04975        1.0080 ; qtot   -0.382
        42           h41bf         1   UNL       h41        42     0.04975        1.0080 ; qtot   -0.332
        43           h42bf         1   UNL       h42        43     0.03038        1.0080 ; qtot   -0.302
        44           h43bf         1   UNL       h43        44     0.14890        1.0080 ; qtot   -0.153
        45           h44bf         1   UNL       h44        45     0.02454        1.0080 ; qtot   -0.128
        46           h45bf         1   UNL       h45        46     0.04280        1.0080 ; qtot   -0.086
        47           h46bf         1   UNL       h46        47     0.04280        1.0080 ; qtot   -0.043
        48           h47bf         1   UNL       h47        48     0.04281        1.0080 ; qtot    0.000

[ bonds ]
;       ai        aj funct               r               k
         1         2     1        0.140423   356040.881543    ;  uncertainty r = 0.000057, k = 16.940628
         1        23     1        0.139442   331509.117090    ;  uncertainty r = 0.000267, k = 9.005107
         1        30     1        0.101413   412667.353076    ;  uncertainty r = 0.000065, k = 1.436223
         2         3     1        0.142079   351884.563770    ;  uncertainty r = 0.000189, k = 12.401583
         2         5     1        0.138863   382686.735596    ;  uncertainty r = 0.000127, k = 9.246960
         3         4     1        0.138000   347495.960449    ;  uncertainty r = 0.000143, k = 17.234297
         3        31     1        0.108883   338510.243311    ;  uncertainty r = 0.000020, k = 3.739144
         4         7     1        0.143085   310245.259912    ;  uncertainty r = 0.000128, k = 17.466675
         4        12     1        0.148137   283751.862402    ;  uncertainty r = 0.000105, k = 15.453597
         5         6     1        0.141431   396079.417236    ;  uncertainty r = 0.000094, k = 15.205661
         5        32     1        0.108811   340366.765625    ;  uncertainty r = 0.000031, k = 1.855827
         6         7     1        0.142995   298655.574805    ;  uncertainty r = 0.000072, k = 15.498988
         6        11     1        0.136382   355171.598340    ;  uncertainty r = 0.000057, k = 8.738517
         7         8     1        0.135767   353109.859814    ;  uncertainty r = 0.000088, k = 12.675275
         8         9     1        0.131584   437137.956152    ;  uncertainty r = 0.000061, k = 11.801030
         9        10     1        0.141378   325245.374902    ;  uncertainty r = 0.000067, k = 16.241067
         9        33     1        0.109180   341408.015723    ;  uncertainty r = 0.000031, k = 1.111543
        10        11     1        0.131606   448635.018164    ;  uncertainty r = 0.000067, k = 6.059784
        10        34     1        0.109175   341608.175586    ;  uncertainty r = 0.000026, k = 2.358932
        12        13     1        0.141773   332885.005469    ;  uncertainty r = 0.000129, k = 5.382951
        12        15     1        0.139578   348941.182080    ;  uncertainty r = 0.000096, k = 3.246996
        13        14     1        0.138795   364168.909326    ;  uncertainty r = 0.000031, k = 1.854529
        13        35     1        0.108772   335281.433350    ;  uncertainty r = 0.000023, k = 2.010191
        14        18     1        0.140496   366588.422754    ;  uncertainty r = 0.000029, k = 1.524521
        14        36     1        0.108842   335262.663574    ;  uncertainty r = 0.000021, k = 1.243203
        15        17     1        0.139638   360882.589795    ;  uncertainty r = 0.000073, k = 8.112561
        15        37     1        0.108815   335784.310107    ;  uncertainty r = 0.000035, k = 1.319567
        16        17     1        0.138409   299089.858887    ;  uncertainty r = 0.000058, k = 4.369581
        16        20     1        0.138800   299198.085156    ;  uncertainty r = 0.000053, k = 11.566384
        16        21     1        0.145040   254644.665137    ;  uncertainty r = 0.000030, k = 4.755584
        17        18     1        0.142478   370413.039014    ;  uncertainty r = 0.000021, k = 8.656157
        18        19     1        0.143851   263887.924023    ;  uncertainty r = 0.000049, k = 9.849650
        19        20     1        0.137643   438880.659570    ;  uncertainty r = 0.000039, k = 2.390653
        19        38     1        0.108258   339903.752295    ;  uncertainty r = 0.000020, k = 1.257333
        20        39     1        0.108278   339863.020605    ;  uncertainty r = 0.000024, k = 2.230056
        21        40     1        0.109426   310040.631055    ;  uncertainty r = 0.000012, k = 1.344891
        21        41     1        0.109426   310040.631055    ;  uncertainty r = 0.000012, k = 1.344891
        21        42     1        0.109426   310040.631055    ;  uncertainty r = 0.000012, k = 1.344891
        22        23     1        0.139963   340048.343408    ;  uncertainty r = 0.000147, k = 5.959384
        22        27     1        0.133439   382074.253564    ;  uncertainty r = 0.000090, k = 4.165538
        22        43     1        0.108947   334302.851318    ;  uncertainty r = 0.000046, k = 3.625466
        23        24     1        0.140832   345681.140234    ;  uncertainty r = 0.000050, k = 9.885997
        24        25     1        0.139373   364528.957031    ;  uncertainty r = 0.000053, k = 3.949254
        24        28     1        0.136337   322345.380762    ;  uncertainty r = 0.000109, k = 7.533097
        25        26     1        0.139802   369337.441504    ;  uncertainty r = 0.000074, k = 8.723632
        25        44     1        0.108818   342392.726660    ;  uncertainty r = 0.000042, k = 3.117617
        26        27     1        0.133638   390068.773340    ;  uncertainty r = 0.000065, k = 5.470534
        26        45     1        0.108972   336925.257080    ;  uncertainty r = 0.000011, k = 1.608897
        28        29     1        0.142852   248747.993359    ;  uncertainty r = 0.000047, k = 6.728109
        29        46     1        0.109568   311298.895508    ;  uncertainty r = 0.000017, k = 1.574026
        29        47     1        0.109568   311298.895508    ;  uncertainty r = 0.000017, k = 1.574026
        29        48     1        0.109568   311298.895508    ;  uncertainty r = 0.000017, k = 1.574026

[ angles ]
;       ai        aj        ak funct           theta             cth
         1         2         3     1      120.327072      510.256152    ;  uncertainty theta = 0.003215, k = 0.257863
         1         2         5     1      122.058960      509.844398    ;  uncertainty theta = 0.003864, k = 0.155602
         1        23        22     1      120.219604      437.334490    ;  uncertainty theta = 0.004946, k = 0.279537
         1        23        24     1      119.956055      566.355500    ;  uncertainty theta = 0.007167, k = 0.498593
         2         1        23     1      116.380295      380.785434    ;  uncertainty theta = 0.008392, k = 0.248841
         2         1        30     1      113.861267      378.999241    ;  uncertainty theta = 0.007390, k = 0.085992
         2         3         4     1      122.386208      515.623670    ;  uncertainty theta = 0.004335, k = 0.258069
         2         3        31     1      119.391846      285.255130    ;  uncertainty theta = 0.004842, k = 0.134457
         2         5         6     1      118.258545      519.174988    ;  uncertainty theta = 0.002116, k = 0.072656
         2         5        32     1      121.438454      270.581347    ;  uncertainty theta = 0.001509, k = 0.140783
         3         2         5     1      119.317955      387.715886    ;  uncertainty theta = 0.003376, k = 0.065772
         3         4         7     1      121.234207      456.906386    ;  uncertainty theta = 0.004548, k = 0.137789
         3         4        12     1      121.228798      423.141028    ;  uncertainty theta = 0.002961, k = 0.156452
         4         3        31     1      118.704933      277.851922    ;  uncertainty theta = 0.005306, k = 0.050256
         4         7         6     1      120.727844      398.377566    ;  uncertainty theta = 0.005688, k = 0.083900
         4         7         8     1      118.059143      466.719084    ;  uncertainty theta = 0.004200, k = 0.232796
         4        12        13     1      119.939163      397.252847    ;  uncertainty theta = 0.003248, k = 0.114582
         4        12        15     1      119.830284      387.483818    ;  uncertainty theta = 0.002251, k = 0.190078
         5         6         7     1      119.517235      392.036765    ;  uncertainty theta = 0.005326, k = 0.191058
         5         6        11     1      122.312637      528.712460    ;  uncertainty theta = 0.003351, k = 0.210335
         6         5        32     1      120.837967      275.673543    ;  uncertainty theta = 0.003390, k = 0.103595
         6         7         8     1      119.722855      514.456720    ;  uncertainty theta = 0.004269, k = 0.061580
         6        11        10     1      114.458984      488.266148    ;  uncertainty theta = 0.001996, k = 0.147683
         7         4        12     1      119.335999      396.188588    ;  uncertainty theta = 0.004435, k = 0.267308
         7         6        11     1      119.243858      555.279545    ;  uncertainty theta = 0.007472, k = 0.086369
         7         8         9     1      116.502525      472.887509    ;  uncertainty theta = 0.004302, k = 0.130227
         8         9        10     1      121.240555      622.447314    ;  uncertainty theta = 0.002919, k = 0.205880
         8         9        33     1      116.813492      347.959523    ;  uncertainty theta = 0.001638, k = 0.087624
         9        10        11     1      120.931259      612.842998    ;  uncertainty theta = 0.002470, k = 0.239696
         9        10        34     1      121.868530      283.534439    ;  uncertainty theta = 0.002376, k = 0.096063
        10         9        33     1      121.994606      282.804174    ;  uncertainty theta = 0.002439, k = 0.090842
        11        10        34     1      116.754013      350.159832    ;  uncertainty theta = 0.001533, k = 0.075385
        12        13        14     1      122.513977      519.825227    ;  uncertainty theta = 0.002504, k = 0.082970
        12        13        35     1      118.705055      283.822243    ;  uncertainty theta = 0.003481, k = 0.052326
        12        15        17     1      118.386093      529.920652    ;  uncertainty theta = 0.003401, k = 0.180793
        12        15        37     1      120.176918      276.179305    ;  uncertainty theta = 0.003371, k = 0.099807
        13        12        15     1      122.892189      427.495520    ;  uncertainty theta = 0.004657, k = 0.054030
        13        14        18     1      119.126968      545.225329    ;  uncertainty theta = 0.002014, k = 0.075473
        13        14        36     1      120.552231      281.882188    ;  uncertainty theta = 0.001756, k = 0.032676
        14        13        35     1      119.644821      296.182938    ;  uncertainty theta = 0.002811, k = 0.056212
        14        18        17     1      116.316528      401.555148    ;  uncertainty theta = 0.003524, k = 0.104666
        14        18        19     1      133.137314      372.613048    ;  uncertainty theta = 0.003601, k = 0.161998
        15        17        16     1      127.554398      386.261484    ;  uncertainty theta = 0.001561, k = 0.197527
        15        17        18     1      122.096413      362.937165    ;  uncertainty theta = 0.001381, k = 0.132828
        16        17        18     1      108.699356      659.259184    ;  uncertainty theta = 0.001396, k = 0.199016
        16        20        19     1      111.357628      756.000331    ;  uncertainty theta = 0.002253, k = 0.100899
        16        20        39     1      117.041054      288.340843    ;  uncertainty theta = 0.001716, k = 0.115276
        16        21        40     1      109.087296      471.938965    ;  uncertainty theta = 0.000901, k = 0.078971
        16        21        41     1      109.087296      471.938965    ;  uncertainty theta = 0.000901, k = 0.078971
        16        21        42     1      109.087296      471.938965    ;  uncertainty theta = 0.000901, k = 0.078971
        17        15        37     1      122.049515      289.470445    ;  uncertainty theta = 0.001404, k = 0.108596
        17        16        20     1      107.260849      818.300599    ;  uncertainty theta = 0.002708, k = 0.112517
        17        16        21     1      120.714645      413.315977    ;  uncertainty theta = 0.003757, k = 0.146508
        17        18        19     1      106.331848      697.004564    ;  uncertainty theta = 0.002119, k = 0.268284
        18        14        36     1      121.660202      297.421105    ;  uncertainty theta = 0.001725, k = 0.098897
        18        19        20     1      106.600060      811.238758    ;  uncertainty theta = 0.002477, k = 0.071832
        18        19        38     1      125.357811      254.842571    ;  uncertainty theta = 0.003088, k = 0.059342
        19        20        39     1      128.154099      239.477052    ;  uncertainty theta = 0.003447, k = 0.106541
        20        16        21     1      121.539627      391.310298    ;  uncertainty theta = 0.002440, k = 0.111857
        20        19        38     1      123.663986      251.202895    ;  uncertainty theta = 0.003182, k = 0.069918
        22        23        24     1      119.903671      364.779795    ;  uncertainty theta = 0.007841, k = 0.346660
        22        27        26     1      116.810532      408.704294    ;  uncertainty theta = 0.001266, k = 0.147193
        23         1        30     1      114.712929      368.832535    ;  uncertainty theta = 0.006627, k = 0.115550
        23        22        27     1      125.134888      693.968010    ;  uncertainty theta = 0.004293, k = 0.125989
        23        22        43     1      118.607788      259.689515    ;  uncertainty theta = 0.004675, k = 0.145411
        23        24        25     1      120.669678      396.637499    ;  uncertainty theta = 0.003840, k = 0.222865
        23        24        28     1      117.406784      421.907745    ;  uncertainty theta = 0.006600, k = 0.212344
        24        25        26     1      118.813965      488.704364    ;  uncertainty theta = 0.004942, k = 0.109955
        24        25        44     1      119.370224      269.440860    ;  uncertainty theta = 0.004509, k = 0.105269
        24        28        29     1      110.909523      507.038987    ;  uncertainty theta = 0.002234, k = 0.078588
        25        24        28     1      121.206589      433.426993    ;  uncertainty theta = 0.002424, k = 0.127363
        25        26        27     1      122.953552      715.419948    ;  uncertainty theta = 0.002502, k = 0.089820
        25        26        45     1      120.294655      276.829927    ;  uncertainty theta = 0.001530, k = 0.038742
        26        25        44     1      121.896545      285.829843    ;  uncertainty theta = 0.004308, k = 0.119636
        27        22        43     1      116.614334      346.392055    ;  uncertainty theta = 0.003831, k = 0.124832
        27        26        45     1      116.728683      336.779344    ;  uncertainty theta = 0.002234, k = 0.034480
        28        29        46     1      108.858070      445.461164    ;  uncertainty theta = 0.001187, k = 0.035031
        28        29        47     1      108.858070      445.461164    ;  uncertainty theta = 0.001187, k = 0.035031
        28        29        48     1      108.858070      445.461164    ;  uncertainty theta = 0.001187, k = 0.035031
        40        21        41     1      107.317055      322.193824    ;  uncertainty theta = 0.001017, k = 0.038184
        40        21        42     1      107.317055      322.193824    ;  uncertainty theta = 0.001017, k = 0.038184
        41        21        42     1      107.317055      322.193824    ;  uncertainty theta = 0.001017, k = 0.038184
        46        29        47     1      109.121056      330.609292    ;  uncertainty theta = 0.001718, k = 0.019705
        46        29        48     1      109.121056      330.609292    ;  uncertainty theta = 0.001718, k = 0.019705
        47        29        48     1      109.121056      330.609292    ;  uncertainty theta = 0.001718, k = 0.019705

[ dihedrals ] ; propers for gromacs 4.5 or higher, use funct 9
;       ai        aj        ak        al funct           phase               k        pn
         1         2         3         4     9        0.000000        0.388023         1    ;  uncertainty k = 0.807521
         1         2         3         4     9      180.000000        7.448733         2    ;  uncertainty k = 0.430474
         1         2         3         4     9        0.000000        0.815734         3    ;  uncertainty k = 0.236045
         1         2         3         4     9      180.000000        1.611382         4    ;  uncertainty k = 0.079713
         1         2         3        31     9        0.000000       -0.300043         1    ;  uncertainty k = 0.225446
         1         2         3        31     9      180.000000        7.291970         2    ;  uncertainty k = 0.446685
         1         2         3        31     9        0.000000        0.832789         3    ;  uncertainty k = 0.227159
         1         2         3        31     9      180.000000        1.129582         4    ;  uncertainty k = 0.220916
         1         2         5         6     9        0.000000       -0.071403         1    ;  uncertainty k = 0.541719
         1         2         5         6     9      180.000000       10.984368         2    ;  uncertainty k = 0.469215
         1         2         5         6     9        0.000000        0.950086         3    ;  uncertainty k = 0.154298
         1         2         5         6     9      180.000000        1.597750         4    ;  uncertainty k = 0.180797
         1         2         5        32     9        0.000000       -0.466293         1    ;  uncertainty k = 0.299125
         1         2         5        32     9      180.000000        8.321036         2    ;  uncertainty k = 0.597663
         1         2         5        32     9        0.000000        0.787556         3    ;  uncertainty k = 0.224433
         1         2         5        32     9      180.000000        1.107899         4    ;  uncertainty k = 0.278711
         1        23        22        27     9        0.000000        0.125758         1    ;  uncertainty k = 0.770686
         1        23        22        27     9      180.000000        9.913583         2    ;  uncertainty k = 0.545179
         1        23        22        27     9        0.000000        0.917230         3    ;  uncertainty k = 0.235328
         1        23        22        27     9      180.000000        1.536308         4    ;  uncertainty k = 0.244505
         1        23        22        43     9        0.000000       -0.085198         1    ;  uncertainty k = 0.251949
         1        23        22        43     9      180.000000        6.677699         2    ;  uncertainty k = 0.646738
         1        23        22        43     9        0.000000        0.837097         3    ;  uncertainty k = 0.121734
         1        23        22        43     9      180.000000        1.215830         4    ;  uncertainty k = 0.269385
         1        23        24        25     9        0.000000        0.148095         1    ;  uncertainty k = 0.645216
         1        23        24        25     9      180.000000        7.296115         2    ;  uncertainty k = 1.007502
         1        23        24        25     9        0.000000        0.851778         3    ;  uncertainty k = 0.218498
         1        23        24        25     9      180.000000        1.579744         4    ;  uncertainty k = 0.202327
         1        23        24        28     9        0.000000        0.083893         1    ;  uncertainty k = 0.775059
         1        23        24        28     9      180.000000       11.920603         2    ;  uncertainty k = 0.947829
         1        23        24        28     9        0.000000        0.713652         3    ;  uncertainty k = 0.239246
         1        23        24        28     9      180.000000        1.308927         4    ;  uncertainty k = 0.645814
         2         1        23        22     9        0.000000        3.684013         1    ;  uncertainty k = 0.571216
         2         1        23        22     9      180.000000        3.669330         2    ;  uncertainty k = 0.451357
         2         1        23        22     9        0.000000        0.005261         3    ;  uncertainty k = 0.237499
         2         1        23        22     9      180.000000        0.071897         4    ;  uncertainty k = 0.062326
         2         1        23        24     9        0.000000        2.569167         1    ;  uncertainty k = 1.393488
         2         1        23        24     9      180.000000        4.633384         2    ;  uncertainty k = 0.577758
         2         1        23        24     9        0.000000        0.806109         3    ;  uncertainty k = 0.227563
         2         1        23        24     9      180.000000        0.166921         4    ;  uncertainty k = 0.170447
         2         3         4         7     9        0.000000        0.009006         1    ;  uncertainty k = 0.529076
         2         3         4         7     9      180.000000       12.472182         2    ;  uncertainty k = 0.420959
         2         3         4         7     9        0.000000        0.355439         3    ;  uncertainty k = 0.221269
         2         3         4         7     9      180.000000        1.276762         4    ;  uncertainty k = 0.325189
         2         3         4        12     9        0.000000        0.189494         1    ;  uncertainty k = 0.211015
         2         3         4        12     9      180.000000       10.403999         2    ;  uncertainty k = 0.632392
         2         3         4        12     9        0.000000        1.345030         3    ;  uncertainty k = 0.268833
         2         3         4        12     9      180.000000        1.708951         4    ;  uncertainty k = 0.278339
         2         5         6         7     9        0.000000        0.129267         1    ;  uncertainty k = 0.442021
         2         5         6         7     9      180.000000        7.223925         2    ;  uncertainty k = 0.793703
         2         5         6         7     9        0.000000        0.047140         3    ;  uncertainty k = 0.294484
         2         5         6         7     9      180.000000        1.290240         4    ;  uncertainty k = 0.268272
         2         5         6        11     9        0.000000        0.160615         1    ;  uncertainty k = 0.456702
         2         5         6        11     9      180.000000        9.766288         2    ;  uncertainty k = 0.395672
         2         5         6        11     9        0.000000        0.572468         3    ;  uncertainty k = 0.273074
         2         5         6        11     9      180.000000        1.392127         4    ;  uncertainty k = 0.231084
         3         2         1        23     9        0.000000        2.181447         1    ;  uncertainty k = 0.541162
         3         2         1        23     9      180.000000        5.901307         2    ;  uncertainty k = 0.240348
         3         2         1        23     9        0.000000        0.598368         3    ;  uncertainty k = 0.234311
         3         2         1        23     9      180.000000        0.089000         4    ;  uncertainty k = 0.105456
         3         2         1        30     9        0.000000        3.313799         1    ;  uncertainty k = 0.637693
         3         2         1        30     9      180.000000        5.412211         2    ;  uncertainty k = 0.540306
         3         2         1        30     9        0.000000        0.644015         3    ;  uncertainty k = 0.188228
         3         2         1        30     9      180.000000       -0.121017         4    ;  uncertainty k = 0.148081
         3         2         5         6     9        0.000000       -0.211910         1    ;  uncertainty k = 0.208704
         3         2         5         6     9      180.000000        9.659297         2    ;  uncertainty k = 0.295585
         3         2         5         6     9        0.000000        0.354402         3    ;  uncertainty k = 0.473418
         3         2         5         6     9      180.000000        1.370281         4    ;  uncertainty k = 0.293113
         3         2         5        32     9        0.000000        0.281336         1    ;  uncertainty k = 0.392382
         3         2         5        32     9      180.000000        6.998852         2    ;  uncertainty k = 0.658498
         3         2         5        32     9        0.000000        1.286455         3    ;  uncertainty k = 0.099674
         3         2         5        32     9      180.000000        1.619404         4    ;  uncertainty k = 0.154236
         3         4         7         6     9        0.000000       -0.064269         1    ;  uncertainty k = 0.482878
         3         4         7         6     9      180.000000        5.815077         2    ;  uncertainty k = 0.996901
         3         4         7         6     9        0.000000        0.060037         3    ;  uncertainty k = 0.264412
         3         4         7         6     9      180.000000        1.005082         4    ;  uncertainty k = 0.332026
         3         4         7         8     9        0.000000        0.261321         1    ;  uncertainty k = 0.518994
         3         4         7         8     9      180.000000        6.885067         2    ;  uncertainty k = 0.805626
         3         4         7         8     9        0.000000        0.373938         3    ;  uncertainty k = 0.290822
         3         4         7         8     9      180.000000        1.164313         4    ;  uncertainty k = 0.349614
         3         4        12        13     9        0.000000       -0.241234         1    ;  uncertainty k = 0.353963
         3         4        12        13     9      180.000000        5.771562         2    ;  uncertainty k = 0.169726
         3         4        12        13     9        0.000000        0.317160         3    ;  uncertainty k = 0.177141
         3         4        12        13     9      180.000000        0.588639         4    ;  uncertainty k = 0.117338
         3         4        12        15     9        0.000000       -0.358622         1    ;  uncertainty k = 0.397328
         3         4        12        15     9      180.000000        5.522280         2    ;  uncertainty k = 0.163710
         3         4        12        15     9        0.000000        0.471433         3    ;  uncertainty k = 0.101553
         3         4        12        15     9      180.000000        0.524759         4    ;  uncertainty k = 0.136870
         4         3         2         5     9        0.000000       -0.057028         1    ;  uncertainty k = 0.343497
         4         3         2         5     9      180.000000        6.146250         2    ;  uncertainty k = 0.955266
         4         3         2         5     9        0.000000        0.320310         3    ;  uncertainty k = 0.196640
         4         3         2         5     9      180.000000        1.349148         4    ;  uncertainty k = 0.322685
         4         7         6         5     9        0.000000       -0.713080         1    ;  uncertainty k = 0.521881
         4         7         6         5     9      180.000000        4.611687         2    ;  uncertainty k = 1.535209
         4         7         6         5     9        0.000000        0.274757         3    ;  uncertainty k = 0.299129
         4         7         6         5     9      180.000000        1.240052         4    ;  uncertainty k = 0.359772
         4         7         6        11     9        0.000000       -0.297579         1    ;  uncertainty k = 0.701971
         4         7         6        11     9      180.000000        5.014357         2    ;  uncertainty k = 1.176010
         4         7         6        11     9        0.000000        0.093992         3    ;  uncertainty k = 0.371276
         4         7         6        11     9      180.000000        1.323525         4    ;  uncertainty k = 0.229333
         4         7         8         9     9        0.000000       -0.230726         1    ;  uncertainty k = 0.542096
         4         7         8         9     9      180.000000       12.457806         2    ;  uncertainty k = 0.567634
         4         7         8         9     9        0.000000        2.051215         3    ;  uncertainty k = 0.352156
         4         7         8         9     9      180.000000        1.316225         4    ;  uncertainty k = 0.190864
         4        12        13        14     9        0.000000        0.106033         1    ;  uncertainty k = 0.347321
         4        12        13        14     9      180.000000        7.741873         2    ;  uncertainty k = 0.677794
         4        12        13        14     9        0.000000        1.125160         3    ;  uncertainty k = 0.437429
         4        12        13        14     9      180.000000        1.837354         4    ;  uncertainty k = 0.142429
         4        12        13        35     9        0.000000       -0.194196         1    ;  uncertainty k = 0.071948
         4        12        13        35     9      180.000000        7.286466         2    ;  uncertainty k = 0.459536
         4        12        13        35     9        0.000000        0.820345         3    ;  uncertainty k = 0.187086
         4        12        13        35     9      180.000000        1.127885         4    ;  uncertainty k = 0.183906
         4        12        15        17     9        0.000000        0.008340         1    ;  uncertainty k = 0.510405
         4        12        15        17     9      180.000000       10.601909         2    ;  uncertainty k = 0.755181
         4        12        15        17     9        0.000000        1.446684         3    ;  uncertainty k = 0.244022
         4        12        15        17     9      180.000000        1.685324         4    ;  uncertainty k = 0.268772
         4        12        15        37     9        0.000000       -0.217859         1    ;  uncertainty k = 0.216539
         4        12        15        37     9      180.000000        7.816294         2    ;  uncertainty k = 0.229990
         4        12        15        37     9        0.000000        0.863298         3    ;  uncertainty k = 0.206756
         4        12        15        37     9      180.000000        1.171828         4    ;  uncertainty k = 0.102501
         5         2         1        23     9        0.000000        2.354656         1    ;  uncertainty k = 0.577029
         5         2         1        23     9      180.000000        5.840075         2    ;  uncertainty k = 0.275070
         5         2         1        23     9        0.000000        0.085990         3    ;  uncertainty k = 0.290964
         5         2         1        23     9      180.000000        0.112894         4    ;  uncertainty k = 0.184276
         5         2         1        30     9        0.000000        3.637445         1    ;  uncertainty k = 0.739210
         5         2         1        30     9      180.000000        5.524357         2    ;  uncertainty k = 0.268149
         5         2         1        30     9        0.000000        0.598411         3    ;  uncertainty k = 0.159502
         5         2         1        30     9      180.000000       -0.157598         4    ;  uncertainty k = 0.062968
         5         2         3        31     9        0.000000        0.252039         1    ;  uncertainty k = 0.392759
         5         2         3        31     9      180.000000        5.885229         2    ;  uncertainty k = 0.868180
         5         2         3        31     9        0.000000        1.123944         3    ;  uncertainty k = 0.161472
         5         2         3        31     9      180.000000        1.430142         4    ;  uncertainty k = 0.273818
         5         6         7         8     9        0.000000        0.076452         1    ;  uncertainty k = 0.284767
         5         6         7         8     9      180.000000        6.080417         2    ;  uncertainty k = 1.149880
         5         6         7         8     9        0.000000        0.106983         3    ;  uncertainty k = 0.156573
         5         6         7         8     9      180.000000        1.373586         4    ;  uncertainty k = 0.405208
         5         6        11        10     9        0.000000        0.427932         1    ;  uncertainty k = 1.029215
         5         6        11        10     9      180.000000       12.638434         2    ;  uncertainty k = 0.318598
         5         6        11        10     9        0.000000        2.227131         3    ;  uncertainty k = 0.470956
         5         6        11        10     9      180.000000        1.437848         4    ;  uncertainty k = 0.260470
         6         7         4        12     9        0.000000        0.163368         1    ;  uncertainty k = 0.742862
         6         7         4        12     9      180.000000        4.925990         2    ;  uncertainty k = 0.482652
         6         7         4        12     9        0.000000        1.071667         3    ;  uncertainty k = 0.234644
         6         7         4        12     9      180.000000        1.265583         4    ;  uncertainty k = 0.346238
         6         7         8         9     9        0.000000       -0.112020         1    ;  uncertainty k = 0.910115
         6         7         8         9     9      180.000000       11.596636         2    ;  uncertainty k = 0.629167
         6         7         8         9     9        0.000000        1.457657         3    ;  uncertainty k = 0.287216
         6         7         8         9     9      180.000000        1.330866         4    ;  uncertainty k = 0.318778
         6        11        10         9     9        0.000000        0.013312         1    ;  uncertainty k = 0.131652
         6        11        10         9     9      180.000000       17.231917         2    ;  uncertainty k = 0.196674
         6        11        10         9     9        0.000000        0.888030         3    ;  uncertainty k = 0.629562
         6        11        10         9     9      180.000000        1.519865         4    ;  uncertainty k = 0.234840
         6        11        10        34     9        0.000000        0.424412         1    ;  uncertainty k = 0.517710
         6        11        10        34     9      180.000000       19.045704         2    ;  uncertainty k = 0.443937
         6        11        10        34     9        0.000000        2.354564         3    ;  uncertainty k = 0.582721
         6        11        10        34     9      180.000000        1.407430         4    ;  uncertainty k = 0.336466
         7         4         3        31     9        0.000000        0.123738         1    ;  uncertainty k = 0.256829
         7         4         3        31     9      180.000000        9.582773         2    ;  uncertainty k = 0.350598
         7         4         3        31     9        0.000000        1.473211         3    ;  uncertainty k = 0.141254
         7         4         3        31     9      180.000000        1.670290         4    ;  uncertainty k = 0.172670
         7         4        12        13     9        0.000000        0.294933         1    ;  uncertainty k = 0.682342
         7         4        12        13     9      180.000000        5.135220         2    ;  uncertainty k = 0.368550
         7         4        12        13     9        0.000000        0.449391         3    ;  uncertainty k = 0.368548
         7         4        12        13     9      180.000000        0.735448         4    ;  uncertainty k = 0.087901
         7         4        12        15     9        0.000000       -0.139300         1    ;  uncertainty k = 0.564767
         7         4        12        15     9      180.000000        5.053883         2    ;  uncertainty k = 0.350242
         7         4        12        15     9        0.000000        0.265394         3    ;  uncertainty k = 0.358781
         7         4        12        15     9      180.000000        0.716032         4    ;  uncertainty k = 0.142482
         7         6         5        32     9        0.000000       -0.216754         1    ;  uncertainty k = 0.343873
         7         6         5        32     9      180.000000        5.853912         2    ;  uncertainty k = 0.879792
         7         6         5        32     9        0.000000        1.199030         3    ;  uncertainty k = 0.162613
         7         6         5        32     9      180.000000        1.246406         4    ;  uncertainty k = 0.338414
         7         6        11        10     9        0.000000       -0.063177         1    ;  uncertainty k = 1.326752
         7         6        11        10     9      180.000000       10.095140         2    ;  uncertainty k = 0.612695
         7         6        11        10     9        0.000000        1.278116         3    ;  uncertainty k = 0.488030
         7         6        11        10     9      180.000000        1.281712         4    ;  uncertainty k = 0.220795
         7         8         9        10     9        0.000000        0.020377         1    ;  uncertainty k = 0.368422
         7         8         9        10     9      180.000000       16.581264         2    ;  uncertainty k = 0.335689
         7         8         9        10     9        0.000000        0.829256         3    ;  uncertainty k = 0.750676
         7         8         9        10     9      180.000000        1.566270         4    ;  uncertainty k = 0.253962
         7         8         9        33     9        0.000000        0.275900         1    ;  uncertainty k = 0.531875
         7         8         9        33     9      180.000000       18.156242         2    ;  uncertainty k = 0.522835
         7         8         9        33     9        0.000000        2.344022         3    ;  uncertainty k = 0.655906
         7         8         9        33     9      180.000000        1.633482         4    ;  uncertainty k = 0.415920
         8         7         4        12     9        0.000000        0.205609         1    ;  uncertainty k = 1.297119
         8         7         4        12     9      180.000000        7.137751         2    ;  uncertainty k = 0.766263
         8         7         4        12     9        0.000000        0.773424         3    ;  uncertainty k = 0.512634
         8         7         4        12     9      180.000000        1.176774         4    ;  uncertainty k = 0.263388
         8         7         6        11     9        0.000000       -0.400491         1    ;  uncertainty k = 0.890674
         8         7         6        11     9      180.000000        7.087146         2    ;  uncertainty k = 0.720456
         8         7         6        11     9        0.000000        0.077638         3    ;  uncertainty k = 0.327162
         8         7         6        11     9      180.000000        1.330895         4    ;  uncertainty k = 0.356326
         8         9        10        11     9        0.000000       -0.202867         1    ;  uncertainty k = 0.782206
         8         9        10        11     9      180.000000       12.112995         2    ;  uncertainty k = 0.805807
         8         9        10        11     9        0.000000       -1.599825         3    ;  uncertainty k = 0.569696
         8         9        10        11     9      180.000000        0.918171         4    ;  uncertainty k = 0.463987
         8         9        10        34     9        0.000000        0.036887         1    ;  uncertainty k = 0.700692
         8         9        10        34     9      180.000000        6.513920         2    ;  uncertainty k = 1.135261
         8         9        10        34     9        0.000000        0.521732         3    ;  uncertainty k = 0.385188
         8         9        10        34     9      180.000000        1.117821         4    ;  uncertainty k = 0.330142
        11         6         5        32     9        0.000000        0.139927         1    ;  uncertainty k = 0.233387
        11         6         5        32     9      180.000000        8.199302         2    ;  uncertainty k = 0.492393
        11         6         5        32     9        0.000000        1.032825         3    ;  uncertainty k = 0.329116
        11         6         5        32     9      180.000000        1.219854         4    ;  uncertainty k = 0.291231
        11        10         9        33     9        0.000000       -0.033262         1    ;  uncertainty k = 0.634831
        11        10         9        33     9      180.000000        6.504271         2    ;  uncertainty k = 1.136878
        11        10         9        33     9        0.000000        0.521237         3    ;  uncertainty k = 0.433609
        11        10         9        33     9      180.000000        1.070757         4    ;  uncertainty k = 0.343719
        12         4         3        31     9        0.000000        0.133920         1    ;  uncertainty k = 0.241850
        12         4         3        31     9      180.000000        8.368021         2    ;  uncertainty k = 0.247908
        12         4         3        31     9        0.000000        1.001196         3    ;  uncertainty k = 0.152988
        12         4         3        31     9      180.000000        1.398313         4    ;  uncertainty k = 0.293351
        12        13        14        18     9        0.000000       -0.088236         1    ;  uncertainty k = 0.303401
        12        13        14        18     9      180.000000       16.637935         2    ;  uncertainty k = 0.333977
        12        13        14        18     9        0.000000       -0.360480         3    ;  uncertainty k = 0.532646
        12        13        14        18     9      180.000000        0.692098         4    ;  uncertainty k = 0.430868
        12        13        14        36     9        0.000000       -0.068872         1    ;  uncertainty k = 0.208186
        12        13        14        36     9      180.000000        8.826760         2    ;  uncertainty k = 0.512392
        12        13        14        36     9        0.000000        1.364385         3    ;  uncertainty k = 0.219987
        12        13        14        36     9      180.000000        1.899723         4    ;  uncertainty k = 0.318557
        12        15        17        16     9        0.000000        0.212529         1    ;  uncertainty k = 0.147664
        12        15        17        16     9      180.000000       10.459764         2    ;  uncertainty k = 0.471484
        12        15        17        16     9        0.000000        1.021284         3    ;  uncertainty k = 0.274552
        12        15        17        16     9      180.000000        1.335799         4    ;  uncertainty k = 0.221198
        12        15        17        18     9        0.000000       -0.149025         1    ;  uncertainty k = 0.543451
        12        15        17        18     9      180.000000       12.121194         2    ;  uncertainty k = 0.115800
        12        15        17        18     9        0.000000       -0.939443         3    ;  uncertainty k = 0.507588
        12        15        17        18     9      180.000000        0.860046         4    ;  uncertainty k = 0.197235
        13        12        15        17     9        0.000000       -0.053115         1    ;  uncertainty k = 0.278158
        13        12        15        17     9      180.000000       13.312167         2    ;  uncertainty k = 0.270025
        13        12        15        17     9        0.000000       -0.017985         3    ;  uncertainty k = 0.385054
        13        12        15        17     9      180.000000        0.899869         4    ;  uncertainty k = 0.336493
        13        12        15        37     9        0.000000        0.324287         1    ;  uncertainty k = 0.275978
        13        12        15        37     9      180.000000        7.772422         2    ;  uncertainty k = 0.500281
        13        12        15        37     9        0.000000        1.473056         3    ;  uncertainty k = 0.166957
        13        12        15        37     9      180.000000        1.643833         4    ;  uncertainty k = 0.220962
        13        14        18        17     9        0.000000        0.015179         1    ;  uncertainty k = 0.183012
        13        14        18        17     9      180.000000       13.267791         2    ;  uncertainty k = 0.263041
        13        14        18        17     9        0.000000       -1.677047         3    ;  uncertainty k = 0.342201
        13        14        18        17     9      180.000000        0.680123         4    ;  uncertainty k = 0.245766
        13        14        18        19     9        0.000000        0.168081         1    ;  uncertainty k = 0.172640
        13        14        18        19     9      180.000000        8.937068         2    ;  uncertainty k = 0.347170
        13        14        18        19     9        0.000000        0.640838         3    ;  uncertainty k = 0.199489
        13        14        18        19     9      180.000000        1.231015         4    ;  uncertainty k = 0.108242
        14        13        12        15     9        0.000000       -0.234352         1    ;  uncertainty k = 0.151822
        14        13        12        15     9      180.000000       10.060344         2    ;  uncertainty k = 0.243332
        14        13        12        15     9        0.000000       -0.319786         3    ;  uncertainty k = 0.496923
        14        13        12        15     9      180.000000        0.990976         4    ;  uncertainty k = 0.258596
        14        18        17        15     9        0.000000       -0.563658         1    ;  uncertainty k = 1.052578
        14        18        17        15     9      180.000000        7.918712         2    ;  uncertainty k = 0.880082
        14        18        17        15     9        0.000000        0.146189         3    ;  uncertainty k = 0.303934
        14        18        17        15     9      180.000000        0.889831         4    ;  uncertainty k = 0.388927
        14        18        17        16     9        0.000000        0.176057         1    ;  uncertainty k = 0.453597
        14        18        17        16     9      180.000000        8.243109         2    ;  uncertainty k = 0.257977
        14        18        17        16     9        0.000000       -0.059608         3    ;  uncertainty k = 0.396357
        14        18        17        16     9      180.000000        1.309643         4    ;  uncertainty k = 0.308185
        14        18        19        20     9        0.000000        0.511307         1    ;  uncertainty k = 0.793984
        14        18        19        20     9      180.000000        6.744679         2    ;  uncertainty k = 0.997873
        14        18        19        20     9        0.000000        0.274717         3    ;  uncertainty k = 0.537265
        14        18        19        20     9      180.000000        1.010143         4    ;  uncertainty k = 0.225695
        14        18        19        38     9        0.000000        0.606453         1    ;  uncertainty k = 0.850019
        14        18        19        38     9      180.000000        4.093389         2    ;  uncertainty k = 0.848756
        14        18        19        38     9        0.000000        1.375302         3    ;  uncertainty k = 0.426874
        14        18        19        38     9      180.000000        0.101118         4    ;  uncertainty k = 0.145411
        15        12        13        35     9        0.000000        0.170681         1    ;  uncertainty k = 0.094348
        15        12        13        35     9      180.000000        6.588589         2    ;  uncertainty k = 0.576706
        15        12        13        35     9        0.000000        1.389949         3    ;  uncertainty k = 0.140404
        15        12        13        35     9      180.000000        1.590416         4    ;  uncertainty k = 0.228049
        15        17        16        20     9        0.000000        1.096032         1    ;  uncertainty k = 1.298949
        15        17        16        20     9      180.000000        6.112338         2    ;  uncertainty k = 0.742500
        15        17        16        20     9        0.000000        0.700125         3    ;  uncertainty k = 0.193202
        15        17        16        20     9      180.000000        0.290745         4    ;  uncertainty k = 0.152038
        15        17        16        21     9        0.000000        0.381169         1    ;  uncertainty k = 1.813552
        15        17        16        21     9      180.000000        2.830188         2    ;  uncertainty k = 0.478377
        15        17        16        21     9        0.000000        0.849606         3    ;  uncertainty k = 0.419853
        15        17        16        21     9      180.000000        0.083786         4    ;  uncertainty k = 0.135735
        15        17        18        19     9        0.000000        0.110683         1    ;  uncertainty k = 0.560071
        15        17        18        19     9      180.000000        7.680714         2    ;  uncertainty k = 0.276652
        15        17        18        19     9        0.000000        0.240823         3    ;  uncertainty k = 0.430527
        15        17        18        19     9      180.000000        1.182836         4    ;  uncertainty k = 0.239317
        16        17        15        37     9        0.000000        0.243929         1    ;  uncertainty k = 0.292557
        16        17        15        37     9      180.000000        5.709934         2    ;  uncertainty k = 0.412053
        16        17        15        37     9        0.000000        1.177664         3    ;  uncertainty k = 0.438420
        16        17        15        37     9      180.000000        0.924568         4    ;  uncertainty k = 0.367001
        16        17        18        19     9        0.000000       -0.248705         1    ;  uncertainty k = 0.120975
        16        17        18        19     9      180.000000       12.895531         2    ;  uncertainty k = 0.840947
        16        17        18        19     9        0.000000       -3.668923         3    ;  uncertainty k = 1.019110
        16        17        18        19     9      180.000000        1.520071         4    ;  uncertainty k = 0.794284
        16        20        19        18     9        0.000000       -0.277608         1    ;  uncertainty k = 0.238563
        16        20        19        18     9      180.000000       22.092014         2    ;  uncertainty k = 0.248817
        16        20        19        18     9        0.000000       -6.461112         3    ;  uncertainty k = 0.282794
        16        20        19        18     9      180.000000        1.349536         4    ;  uncertainty k = 0.401228
        16        20        19        38     9        0.000000        0.281182         1    ;  uncertainty k = 0.777505
        16        20        19        38     9      180.000000       14.368322         2    ;  uncertainty k = 0.563599
        16        20        19        38     9        0.000000        1.716577         3    ;  uncertainty k = 0.616570
        16        20        19        38     9      180.000000        0.925073         4    ;  uncertainty k = 0.423264
        17        16        20        19     9        0.000000       -0.256602         1    ;  uncertainty k = 0.388705
        17        16        20        19     9      180.000000       15.681423         2    ;  uncertainty k = 0.602078
        17        16        20        19     9        0.000000       -6.396112         3    ;  uncertainty k = 1.656549
        17        16        20        19     9      180.000000        0.936026         4    ;  uncertainty k = 0.391998
        17        16        20        39     9        0.000000        1.176326         1    ;  uncertainty k = 0.849238
        17        16        20        39     9      180.000000        7.035329         2    ;  uncertainty k = 0.660688
        17        16        20        39     9        0.000000        1.598165         3    ;  uncertainty k = 0.299780
        17        16        20        39     9      180.000000        0.164807         4    ;  uncertainty k = 0.100188
        17        16        21        40     9        0.000000       -0.408568         1    ;  uncertainty k = 0.246907
        17        16        21        40     9      180.000000       -1.317195         2    ;  uncertainty k = 0.168943
        17        16        21        40     9        0.000000        1.090646         3    ;  uncertainty k = 0.080701
        17        16        21        40     9      180.000000        0.217211         4    ;  uncertainty k = 0.045154
        17        16        21        41     9        0.000000       -0.408568         1    ;  uncertainty k = 0.246907
        17        16        21        41     9      180.000000       -1.317195         2    ;  uncertainty k = 0.168943
        17        16        21        41     9        0.000000        1.090646         3    ;  uncertainty k = 0.080701
        17        16        21        41     9      180.000000        0.217211         4    ;  uncertainty k = 0.045154
        17        16        21        42     9        0.000000       -0.408568         1    ;  uncertainty k = 0.246907
        17        16        21        42     9      180.000000       -1.317195         2    ;  uncertainty k = 0.168943
        17        16        21        42     9        0.000000        1.090646         3    ;  uncertainty k = 0.080701
        17        16        21        42     9      180.000000        0.217211         4    ;  uncertainty k = 0.045154
        17        18        14        36     9        0.000000        0.124386         1    ;  uncertainty k = 0.373035
        17        18        14        36     9      180.000000        7.210884         2    ;  uncertainty k = 0.881418
        17        18        14        36     9        0.000000        1.401519         3    ;  uncertainty k = 0.369643
        17        18        14        36     9      180.000000        1.163098         4    ;  uncertainty k = 0.413706
        17        18        19        20     9        0.000000        0.450028         1    ;  uncertainty k = 0.908075
        17        18        19        20     9      180.000000       13.173240         2    ;  uncertainty k = 0.776588
        17        18        19        20     9        0.000000      -10.991007         3    ;  uncertainty k = 2.573422
        17        18        19        20     9      180.000000        1.867147         4    ;  uncertainty k = 0.661435
        17        18        19        38     9        0.000000        0.023375         1    ;  uncertainty k = 0.592171
        17        18        19        38     9      180.000000        8.114224         2    ;  uncertainty k = 0.620357
        17        18        19        38     9        0.000000        1.336433         3    ;  uncertainty k = 0.600040
        17        18        19        38     9      180.000000        0.332209         4    ;  uncertainty k = 0.200949
        18        14        13        35     9        0.000000       -0.025946         1    ;  uncertainty k = 0.303009
        18        14        13        35     9      180.000000       11.299049         2    ;  uncertainty k = 0.337052
        18        14        13        35     9        0.000000        1.440132         3    ;  uncertainty k = 0.287189
        18        14        13        35     9      180.000000        1.704244         4    ;  uncertainty k = 0.284574
        18        17        15        37     9        0.000000        0.113362         1    ;  uncertainty k = 0.441544
        18        17        15        37     9      180.000000        6.764951         2    ;  uncertainty k = 0.865473
        18        17        15        37     9        0.000000        1.346687         3    ;  uncertainty k = 0.169660
        18        17        15        37     9      180.000000        1.338700         4    ;  uncertainty k = 0.261595
        18        17        16        20     9        0.000000        0.268811         1    ;  uncertainty k = 0.833799
        18        17        16        20     9      180.000000       14.131316         2    ;  uncertainty k = 0.606104
        18        17        16        20     9        0.000000       -6.512746         3    ;  uncertainty k = 1.135817
        18        17        16        20     9      180.000000        0.929198         4    ;  uncertainty k = 0.439288
        18        17        16        21     9        0.000000        2.277568         1    ;  uncertainty k = 0.770886
        18        17        16        21     9      180.000000        5.178089         2    ;  uncertainty k = 0.354897
        18        17        16        21     9        0.000000        1.568715         3    ;  uncertainty k = 0.279168
        18        17        16        21     9      180.000000        0.176309         4    ;  uncertainty k = 0.114600
        18        19        20        39     9        0.000000       -0.004714         1    ;  uncertainty k = 0.396225
        18        19        20        39     9      180.000000       12.360944         2    ;  uncertainty k = 0.135929
        18        19        20        39     9        0.000000        1.866097         3    ;  uncertainty k = 0.177332
        18        19        20        39     9      180.000000        0.972890         4    ;  uncertainty k = 0.182999
        19        18        14        36     9        0.000000        0.105499         1    ;  uncertainty k = 0.553990
        19        18        14        36     9      180.000000        5.639367         2    ;  uncertainty k = 0.488477
        19        18        14        36     9        0.000000        1.044663         3    ;  uncertainty k = 0.341162
        19        18        14        36     9      180.000000        0.711452         4    ;  uncertainty k = 0.362067
        19        20        16        21     9        0.000000        1.377313         1    ;  uncertainty k = 0.855303
        19        20        16        21     9      180.000000        8.854296         2    ;  uncertainty k = 0.336076
        19        20        16        21     9        0.000000        1.850754         3    ;  uncertainty k = 0.421573
        19        20        16        21     9      180.000000        0.005711         4    ;  uncertainty k = 0.191905
        20        16        21        40     9        0.000000        0.012371         1    ;  uncertainty k = 0.156207
        20        16        21        40     9      180.000000       -1.304491         2    ;  uncertainty k = 0.215976
        20        16        21        40     9        0.000000        0.598725         3    ;  uncertainty k = 0.126338
        20        16        21        40     9      180.000000        0.181531         4    ;  uncertainty k = 0.051525
        20        16        21        41     9        0.000000        0.012371         1    ;  uncertainty k = 0.156207
        20        16        21        41     9      180.000000       -1.304491         2    ;  uncertainty k = 0.215976
        20        16        21        41     9        0.000000        0.598725         3    ;  uncertainty k = 0.126338
        20        16        21        41     9      180.000000        0.181531         4    ;  uncertainty k = 0.051525
        20        16        21        42     9        0.000000        0.012371         1    ;  uncertainty k = 0.156207
        20        16        21        42     9      180.000000       -1.304491         2    ;  uncertainty k = 0.215976
        20        16        21        42     9        0.000000        0.598725         3    ;  uncertainty k = 0.126338
        20        16        21        42     9      180.000000        0.181531         4    ;  uncertainty k = 0.051525
        21        16        20        39     9        0.000000       -0.357949         1    ;  uncertainty k = 0.336355
        21        16        20        39     9      180.000000        2.701717         2    ;  uncertainty k = 0.518908
        21        16        20        39     9        0.000000        1.060504         3    ;  uncertainty k = 0.337396
        21        16        20        39     9      180.000000        0.096607         4    ;  uncertainty k = 0.212502
        22        23         1        30     9        0.000000       -0.016138         1    ;  uncertainty k = 0.736554
        22        23         1        30     9      180.000000        2.981810         2    ;  uncertainty k = 0.366092
        22        23         1        30     9        0.000000       -0.231728         3    ;  uncertainty k = 0.271271
        22        23         1        30     9      180.000000       -0.163284         4    ;  uncertainty k = 0.134089
        22        23        24        25     9        0.000000       -0.176702         1    ;  uncertainty k = 0.620041
        22        23        24        25     9      180.000000        4.684206         2    ;  uncertainty k = 1.828327
        22        23        24        25     9        0.000000        0.094404         3    ;  uncertainty k = 0.211879
        22        23        24        25     9      180.000000        1.342447         4    ;  uncertainty k = 0.416843
        22        23        24        28     9        0.000000        0.641106         1    ;  uncertainty k = 0.476654
        22        23        24        28     9      180.000000        7.405116         2    ;  uncertainty k = 0.718548
        22        23        24        28     9        0.000000        0.880126         3    ;  uncertainty k = 0.195804
        22        23        24        28     9      180.000000        1.725217         4    ;  uncertainty k = 0.383104
        22        27        26        25     9        0.000000       -0.221485         1    ;  uncertainty k = 0.722456
        22        27        26        25     9      180.000000       16.818235         2    ;  uncertainty k = 0.492794
        22        27        26        25     9        0.000000        0.663059         3    ;  uncertainty k = 0.416201
        22        27        26        25     9      180.000000        1.285110         4    ;  uncertainty k = 0.170554
        22        27        26        45     9        0.000000        0.078680         1    ;  uncertainty k = 0.495835
        22        27        26        45     9      180.000000       15.790659         2    ;  uncertainty k = 0.478588
        22        27        26        45     9        0.000000        2.088587         3    ;  uncertainty k = 0.541734
        22        27        26        45     9      180.000000        1.314629         4    ;  uncertainty k = 0.478539
        23        22        27        26     9        0.000000        0.231146         1    ;  uncertainty k = 0.520616
        23        22        27        26     9      180.000000       15.874525         2    ;  uncertainty k = 0.387922
        23        22        27        26     9        0.000000        0.694882         3    ;  uncertainty k = 0.611819
        23        22        27        26     9      180.000000        1.505879         4    ;  uncertainty k = 0.312842
        23        24        25        26     9        0.000000        0.057176         1    ;  uncertainty k = 0.485682
        23        24        25        26     9      180.000000        8.792945         2    ;  uncertainty k = 0.204546
        23        24        25        26     9        0.000000       -0.069330         3    ;  uncertainty k = 0.452214
        23        24        25        26     9      180.000000        1.167751         4    ;  uncertainty k = 0.285939
        23        24        25        44     9        0.000000        0.338592         1    ;  uncertainty k = 0.531379
        23        24        25        44     9      180.000000        6.408638         2    ;  uncertainty k = 0.669999
        23        24        25        44     9        0.000000        1.443133         3    ;  uncertainty k = 0.265872
        23        24        25        44     9      180.000000        1.521774         4    ;  uncertainty k = 0.140679
        23        24        28        29     9        0.000000        1.755215         1    ;  uncertainty k = 1.144039
        23        24        28        29     9      180.000000        6.775831         2    ;  uncertainty k = 0.319486
        23        24        28        29     9        0.000000        0.973761         3    ;  uncertainty k = 0.224068
        23        24        28        29     9      180.000000        0.179636         4    ;  uncertainty k = 0.123330
        24        23         1        30     9        0.000000        7.136530         1    ;  uncertainty k = 0.402058
        24        23         1        30     9      180.000000        1.848925         2    ;  uncertainty k = 0.669797
        24        23         1        30     9        0.000000        0.234904         3    ;  uncertainty k = 0.400686
        24        23         1        30     9      180.000000       -0.178959         4    ;  uncertainty k = 0.231458
        24        23        22        27     9        0.000000       -0.066103         1    ;  uncertainty k = 0.391643
        24        23        22        27     9      180.000000        8.639367         2    ;  uncertainty k = 0.663742
        24        23        22        27     9        0.000000        0.305879         3    ;  uncertainty k = 0.572525
        24        23        22        27     9      180.000000        1.433492         4    ;  uncertainty k = 0.207317
        24        23        22        43     9        0.000000       -0.057766         1    ;  uncertainty k = 0.553802
        24        23        22        43     9      180.000000        5.163237         2    ;  uncertainty k = 0.822053
        24        23        22        43     9        0.000000        1.159996         3    ;  uncertainty k = 0.284242
        24        23        22        43     9      180.000000        1.301244         4    ;  uncertainty k = 0.147363
        24        25        26        27     9        0.000000        0.053079         1    ;  uncertainty k = 0.393268
        24        25        26        27     9      180.000000       14.933136         2    ;  uncertainty k = 0.169040
        24        25        26        27     9        0.000000       -1.045057         3    ;  uncertainty k = 0.380916
        24        25        26        27     9      180.000000        0.869906         4    ;  uncertainty k = 0.206778
        24        25        26        45     9        0.000000       -0.079001         1    ;  uncertainty k = 0.273560
        24        25        26        45     9      180.000000        6.723599         2    ;  uncertainty k = 0.633663
        24        25        26        45     9        0.000000        1.169267         3    ;  uncertainty k = 0.236402
        24        25        26        45     9      180.000000        1.470180         4    ;  uncertainty k = 0.110127
        24        28        29        46     9        0.000000        1.355750         1    ;  uncertainty k = 0.195732
        24        28        29        46     9      180.000000       -2.027174         2    ;  uncertainty k = 0.141776
        24        28        29        46     9        0.000000        1.016484         3    ;  uncertainty k = 0.129527
        24        28        29        46     9      180.000000        0.253628         4    ;  uncertainty k = 0.047763
        24        28        29        47     9        0.000000        1.355750         1    ;  uncertainty k = 0.195732
        24        28        29        47     9      180.000000       -2.027174         2    ;  uncertainty k = 0.141776
        24        28        29        47     9        0.000000        1.016484         3    ;  uncertainty k = 0.129527
        24        28        29        47     9      180.000000        0.253628         4    ;  uncertainty k = 0.047763
        24        28        29        48     9        0.000000        1.355750         1    ;  uncertainty k = 0.195732
        24        28        29        48     9      180.000000       -2.027174         2    ;  uncertainty k = 0.141776
        24        28        29        48     9        0.000000        1.016484         3    ;  uncertainty k = 0.129527
        24        28        29        48     9      180.000000        0.253628         4    ;  uncertainty k = 0.047763
        25        24        28        29     9        0.000000        2.214151         1    ;  uncertainty k = 0.581749
        25        24        28        29     9      180.000000        7.648439         2    ;  uncertainty k = 0.190891
        25        24        28        29     9        0.000000        0.108234         3    ;  uncertainty k = 0.208830
        25        24        28        29     9      180.000000        0.026191         4    ;  uncertainty k = 0.091828
        26        25        24        28     9        0.000000        0.052704         1    ;  uncertainty k = 0.157666
        26        25        24        28     9      180.000000       11.783435         2    ;  uncertainty k = 0.318235
        26        25        24        28     9        0.000000        1.275530         3    ;  uncertainty k = 0.255409
        26        25        24        28     9      180.000000        1.630190         4    ;  uncertainty k = 0.218741
        26        27        22        43     9        0.000000        0.504220         1    ;  uncertainty k = 0.439331
        26        27        22        43     9      180.000000       15.970244         2    ;  uncertainty k = 0.469954
        26        27        22        43     9        0.000000        2.256934         3    ;  uncertainty k = 0.347698
        26        27        22        43     9      180.000000        1.580414         4    ;  uncertainty k = 0.435937
        27        26        25        44     9        0.000000        0.189207         1    ;  uncertainty k = 0.202801
        27        26        25        44     9      180.000000        9.293022         2    ;  uncertainty k = 0.310408
        27        26        25        44     9        0.000000        1.132402         3    ;  uncertainty k = 0.182221
        27        26        25        44     9      180.000000        1.664321         4    ;  uncertainty k = 0.096274
        28        24        25        44     9        0.000000        0.082253         1    ;  uncertainty k = 0.138684
        28        24        25        44     9      180.000000        9.540369         2    ;  uncertainty k = 0.599636
        28        24        25        44     9        0.000000        0.829792         3    ;  uncertainty k = 0.142831
        28        24        25        44     9      180.000000        1.120224         4    ;  uncertainty k = 0.326099
        33         9        10        34     9        0.000000       -0.152652         1    ;  uncertainty k = 0.805688
        33         9        10        34     9      180.000000        5.398109         2    ;  uncertainty k = 0.723628
        33         9        10        34     9        0.000000        0.147471         3    ;  uncertainty k = 0.248173
        33         9        10        34     9      180.000000        0.216442         4    ;  uncertainty k = 0.153410
        35        13        14        36     9        0.000000       -0.116205         1    ;  uncertainty k = 0.085774
        35        13        14        36     9      180.000000        7.987768         2    ;  uncertainty k = 0.371552
        35        13        14        36     9        0.000000       -0.214199         3    ;  uncertainty k = 0.235187
        35        13        14        36     9      180.000000        0.260529         4    ;  uncertainty k = 0.235509
        38        19        20        39     9        0.000000       -0.013046         1    ;  uncertainty k = 0.452148
        38        19        20        39     9      180.000000        5.800985         2    ;  uncertainty k = 0.791054
        38        19        20        39     9        0.000000        1.154438         3    ;  uncertainty k = 0.426921
        38        19        20        39     9      180.000000        0.344798         4    ;  uncertainty k = 0.119750
        44        25        26        45     9        0.000000       -0.399291         1    ;  uncertainty k = 0.116067
        44        25        26        45     9      180.000000        6.295204         2    ;  uncertainty k = 0.426263
        44        25        26        45     9        0.000000       -0.028513         3    ;  uncertainty k = 0.142218
        44        25        26        45     9      180.000000        0.273074         4    ;  uncertainty k = 0.093196

[ dihedrals ] ; impropers
;       ai        aj        ak        al funct           phase               k        pn
         1         2        23        30     4      180.000000        1.197529         2    ;  uncertainty k = 0.998841
         1        23        30         2     4      180.000000        1.197529         2    ;  uncertainty k = 0.998841
         1        30         2        23     4      180.000000        1.197529         2    ;  uncertainty k = 0.998841
         2         1         3         5     4      180.000000       20.539340         2    ;  uncertainty k = 0.057066
         2         3         5         1     4      180.000000       20.539340         2    ;  uncertainty k = 0.057066
         2         5         1         3     4      180.000000       20.539340         2    ;  uncertainty k = 0.057066
         3         2         4        31     4      180.000000        3.047944         2    ;  uncertainty k = 0.380227
         3         4        31         2     4      180.000000        3.047944         2    ;  uncertainty k = 0.380227
         3        31         2         4     4      180.000000        3.047944         2    ;  uncertainty k = 0.380227
         4         3         7        12     4      180.000000       17.976635         2    ;  uncertainty k = 0.099558
         4         7        12         3     4      180.000000       17.976635         2    ;  uncertainty k = 0.099558
         4        12         3         7     4      180.000000       17.976635         2    ;  uncertainty k = 0.099558
         5         2         6        32     4      180.000000        2.505821         2    ;  uncertainty k = 0.377137
         5         6        32         2     4      180.000000        2.505821         2    ;  uncertainty k = 0.377137
         5        32         2         6     4      180.000000        2.505821         2    ;  uncertainty k = 0.377137
         6         5         7        11     4      180.000000       18.442489         2    ;  uncertainty k = 0.055239
         6         7        11         5     4      180.000000       18.442489         2    ;  uncertainty k = 0.055239
         6        11         5         7     4      180.000000       18.442489         2    ;  uncertainty k = 0.055239
         7         4         6         8     4      180.000000       16.619256         2    ;  uncertainty k = 0.086962
         7         6         8         4     4      180.000000       16.619256         2    ;  uncertainty k = 0.086962
         7         8         4         6     4      180.000000       16.619256         2    ;  uncertainty k = 0.086962
         9         8        10        33     4      180.000000       12.058352         2    ;  uncertainty k = 0.155869
         9        10        33         8     4      180.000000       12.058352         2    ;  uncertainty k = 0.155869
         9        33         8        10     4      180.000000       12.058352         2    ;  uncertainty k = 0.155869
        10         9        11        34     4      180.000000       11.948849         2    ;  uncertainty k = 0.101429
        10        11        34         9     4      180.000000       11.948849         2    ;  uncertainty k = 0.101429
        10        34         9        11     4      180.000000       11.948849         2    ;  uncertainty k = 0.101429
        12         4        13        15     4      180.000000       12.719696         2    ;  uncertainty k = 0.169587
        12        13        15         4     4      180.000000       12.719696         2    ;  uncertainty k = 0.169587
        12        15         4        13     4      180.000000       12.719696         2    ;  uncertainty k = 0.169587
        13        12        14        35     4      180.000000        3.145470         2    ;  uncertainty k = 0.234151
        13        14        35        12     4      180.000000        3.145470         2    ;  uncertainty k = 0.234151
        13        35        12        14     4      180.000000        3.145470         2    ;  uncertainty k = 0.234151
        14        13        18        36     4      180.000000        3.905811         2    ;  uncertainty k = 0.125325
        14        18        36        13     4      180.000000        3.905811         2    ;  uncertainty k = 0.125325
        14        36        13        18     4      180.000000        3.905811         2    ;  uncertainty k = 0.125325
        15        12        17        37     4      180.000000        2.774844         2    ;  uncertainty k = 0.245477
        15        17        37        12     4      180.000000        2.774844         2    ;  uncertainty k = 0.245477
        15        37        12        17     4      180.000000        2.774844         2    ;  uncertainty k = 0.245477
        17        15        16        18     4      180.000000        0.447276         2    ;  uncertainty k = 0.540174
        17        16        18        15     4      180.000000        0.447276         2    ;  uncertainty k = 0.540174
        17        18        15        16     4      180.000000        0.447276         2    ;  uncertainty k = 0.540174
        20        16        19        39     4      180.000000        0.796720         2    ;  uncertainty k = 0.335583
        20        19        39        16     4      180.000000        0.796720         2    ;  uncertainty k = 0.335583
        20        39        16        19     4      180.000000        0.796720         2    ;  uncertainty k = 0.335583
        22        23        27        43     4      180.000000       10.764151         2    ;  uncertainty k = 0.095692
        22        27        43        23     4      180.000000       10.764151         2    ;  uncertainty k = 0.095692
        22        43        23        27     4      180.000000       10.764151         2    ;  uncertainty k = 0.095692
        23         1        22        24     4      180.000000       14.949770         2    ;  uncertainty k = 0.124150
        23        22        24         1     4      180.000000       14.949770         2    ;  uncertainty k = 0.124150
        23        24         1        22     4      180.000000       14.949770         2    ;  uncertainty k = 0.124150
        24        23        25        28     4      180.000000       18.496100         2    ;  uncertainty k = 0.099851
        24        25        28        23     4      180.000000       18.496100         2    ;  uncertainty k = 0.099851
        24        28        23        25     4      180.000000       18.496100         2    ;  uncertainty k = 0.099851
        25        24        26        44     4      180.000000        1.608204         2    ;  uncertainty k = 0.473242
        25        26        44        24     4      180.000000        1.608204         2    ;  uncertainty k = 0.473242
        25        44        24        26     4      180.000000        1.608204         2    ;  uncertainty k = 0.473242
        26        25        27        45     4      180.000000       12.503753         2    ;  uncertainty k = 0.032905
        26        27        45        25     4      180.000000       12.503753         2    ;  uncertainty k = 0.032905
        26        45        25        27     4      180.000000       12.503753         2    ;  uncertainty k = 0.032905

[ pairs ]
;       ai        aj funct
         1         4     1
         1         6     1
         1        25     1
         1        27     1
         1        28     1
         1        31     1
         1        32     1
         1        43     1
         2         7     1
         2        11     1
         2        12     1
         2        22     1
         2        24     1
         3         6     1
         3         8     1
         3        13     1
         3        15     1
         3        23     1
         3        30     1
         3        32     1
         4         5     1
         4         9     1
         4        11     1
         4        14     1
         4        17     1
         4        35     1
         4        37     1
         5         8     1
         5        10     1
         5        23     1
         5        30     1
         5        31     1
         6         9     1
         6        12     1
         6        34     1
         7        10     1
         7        13     1
         7        15     1
         7        31     1
         7        32     1
         7        33     1
         8        11     1
         8        12     1
         8        34     1
        11        32     1
        11        33     1
        12        16     1
        12        18     1
        12        31     1
        12        36     1
        13        17     1
        13        19     1
        13        37     1
        14        15     1
        14        16     1
        14        20     1
        14        38     1
        15        19     1
        15        20     1
        15        21     1
        15        35     1
        16        37     1
        16        38     1
        17        36     1
        17        38     1
        17        39     1
        17        40     1
        17        41     1
        17        42     1
        18        21     1
        18        35     1
        18        37     1
        18        39     1
        19        21     1
        19        36     1
        20        40     1
        20        41     1
        20        42     1
        21        39     1
        22        25     1
        22        28     1
        22        30     1
        22        45     1
        23        26     1
        23        29     1
        23        44     1
        24        27     1
        24        30     1
        24        43     1
        24        45     1
        24        46     1
        24        47     1
        24        48     1
        25        29     1
        26        28     1
        26        43     1
        27        44     1
        28        44     1
        33        34     1
        35        36     1
        38        39     1
        44        45     1
