; ITP file created by ByteFF-joint-25, 2026-02-17 09:27:18.159371

[ atomtypes ]
;name           bonded.type        at.num        mass        charge   ptype           sigma         epsilon
 n0bf                                   7      0.0000       0.00000       A     3.27926e-01     6.46962e-01    ;  uncertainty sigma = 0.000045, epsilon = 0.003884
 c1bf                                   6      0.0000       0.00000       A     3.31549e-01     4.13719e-01    ;  uncertainty sigma = 0.000013, epsilon = 0.001588
 c2bf                                   6      0.0000       0.00000       A     3.31496e-01     4.13470e-01    ;  uncertainty sigma = 0.000006, epsilon = 0.000742
 c3bf                                   6      0.0000       0.00000       A     3.31488e-01     4.12665e-01    ;  uncertainty sigma = 0.000011, epsilon = 0.000854
 c4bf                                   6      0.0000       0.00000       A     3.31519e-01     4.13020e-01    ;  uncertainty sigma = 0.000010, epsilon = 0.001115
 c5bf                                   6      0.0000       0.00000       A     3.31516e-01     4.13470e-01    ;  uncertainty sigma = 0.000011, epsilon = 0.000986
 c6bf                                   6      0.0000       0.00000       A     3.31509e-01     4.13539e-01    ;  uncertainty sigma = 0.000009, epsilon = 0.000465
 c7bf                                   6      0.0000       0.00000       A     3.31492e-01     4.13019e-01    ;  uncertainty sigma = 0.000020, epsilon = 0.000990
 c8bf                                   6      0.0000       0.00000       A     3.31520e-01     4.13276e-01    ;  uncertainty sigma = 0.000004, epsilon = 0.000572
 c9bf                                   6      0.0000       0.00000       A     3.31527e-01     4.13211e-01    ;  uncertainty sigma = 0.000005, epsilon = 0.000881
 c10bf                                  6      0.0000       0.00000       A     3.31520e-01     4.13329e-01    ;  uncertainty sigma = 0.000004, epsilon = 0.000805
 c11bf                                  6      0.0000       0.00000       A     3.31522e-01     4.13356e-01    ;  uncertainty sigma = 0.000007, epsilon = 0.000813
 c12bf                                  6      0.0000       0.00000       A     3.31521e-01     4.13081e-01    ;  uncertainty sigma = 0.000007, epsilon = 0.000493
 c13bf                                  6      0.0000       0.00000       A     3.31516e-01     4.13261e-01    ;  uncertainty sigma = 0.000006, epsilon = 0.000450
 c14bf                                  6      0.0000       0.00000       A     3.31521e-01     4.12984e-01    ;  uncertainty sigma = 0.000005, epsilon = 0.000844
 n15bf                                  7      0.0000       0.00000       A     3.20630e-01     8.53726e-01    ;  uncertainty sigma = 0.000021, epsilon = 0.000808
 n16bf                                  7      0.0000       0.00000       A     3.38414e-01     3.93827e-01    ;  uncertainty sigma = 0.000003, epsilon = 0.000862
 c17bf                                  6      0.0000       0.00000       A     3.31530e-01     4.13238e-01    ;  uncertainty sigma = 0.000010, epsilon = 0.000599
 c18bf                                  6      0.0000       0.00000       A     3.31531e-01     4.13178e-01    ;  uncertainty sigma = 0.000013, epsilon = 0.000482
 n19bf                                  7      0.0000       0.00000       A     3.38415e-01     3.93854e-01    ;  uncertainty sigma = 0.000010, epsilon = 0.001066
 c20bf                                  6      0.0000       0.00000       A     3.39777e-01     4.51126e-01    ;  uncertainty sigma = 0.000006, epsilon = 0.000488
 c21bf                                  6      0.0000       0.00000       A     3.31518e-01     4.11923e-01    ;  uncertainty sigma = 0.000016, epsilon = 0.001691
 c22bf                                  6      0.0000       0.00000       A     3.31543e-01     4.12950e-01    ;  uncertainty sigma = 0.000038, epsilon = 0.001324
 c23bf                                  6      0.0000       0.00000       A     3.31515e-01     4.13309e-01    ;  uncertainty sigma = 0.000008, epsilon = 0.000470
 c24bf                                  6      0.0000       0.00000       A     3.31515e-01     4.13400e-01    ;  uncertainty sigma = 0.000009, epsilon = 0.000722
 n25bf                                  7      0.0000       0.00000       A     3.38413e-01     3.93789e-01    ;  uncertainty sigma = 0.000010, epsilon = 0.000875
 c26bf                                  6      0.0000       0.00000       A     3.31520e-01     4.13824e-01    ;  uncertainty sigma = 0.000015, epsilon = 0.000669
 c27bf                                  6      0.0000       0.00000       A     3.47901e-01     6.68868e-01    ;  uncertainty sigma = 0.000025, epsilon = 0.001964
 n28bf                                  7      0.0000       0.00000       A     3.27368e-01     4.60016e-01    ;  uncertainty sigma = 0.000030, epsilon = 0.000469
 h29bf                                  1      0.0000       0.00000       A     1.10702e-01     4.11300e-02    ;  uncertainty sigma = 0.000124, epsilon = 0.001653
 h30bf                                  1      0.0000       0.00000       A     2.62566e-01     6.71159e-02    ;  uncertainty sigma = 0.000015, epsilon = 0.000400
 h31bf                                  1      0.0000       0.00000       A     2.62540e-01     6.71220e-02    ;  uncertainty sigma = 0.000022, epsilon = 0.000645
 h32bf                                  1      0.0000       0.00000       A     2.62563e-01     6.70733e-02    ;  uncertainty sigma = 0.000010, epsilon = 0.000583
 h33bf                                  1      0.0000       0.00000       A     2.62569e-01     6.69121e-02    ;  uncertainty sigma = 0.000009, epsilon = 0.000334
 h34bf                                  1      0.0000       0.00000       A     2.62578e-01     6.73015e-02    ;  uncertainty sigma = 0.000018, epsilon = 0.000492
 h35bf                                  1      0.0000       0.00000       A     2.62543e-01     6.72781e-02    ;  uncertainty sigma = 0.000012, epsilon = 0.000446
 h36bf                                  1      0.0000       0.00000       A     2.53669e-01     6.69808e-02    ;  uncertainty sigma = 0.000019, epsilon = 0.000693
 h37bf                                  1      0.0000       0.00000       A     2.53628e-01     6.69333e-02    ;  uncertainty sigma = 0.000020, epsilon = 0.000763
 h38bf                                  1      0.0000       0.00000       A     2.53628e-01     6.69333e-02    ;  uncertainty sigma = 0.000020, epsilon = 0.000763
 h39bf                                  1      0.0000       0.00000       A     2.42192e-01     8.67346e-02    ;  uncertainty sigma = 0.000017, epsilon = 0.000545
 h40bf                                  1      0.0000       0.00000       A     2.42192e-01     8.67346e-02    ;  uncertainty sigma = 0.000017, epsilon = 0.000545
 h41bf                                  1      0.0000       0.00000       A     2.42192e-01     8.67346e-02    ;  uncertainty sigma = 0.000017, epsilon = 0.000545
 h42bf                                  1      0.0000       0.00000       A     2.62565e-01     6.69086e-02    ;  uncertainty sigma = 0.000020, epsilon = 0.000534
 h43bf                                  1      0.0000       0.00000       A     2.53633e-01     6.70627e-02    ;  uncertainty sigma = 0.000012, epsilon = 0.000390
 h44bf                                  1      0.0000       0.00000       A     2.53634e-01     6.70187e-02    ;  uncertainty sigma = 0.000039, epsilon = 0.000562

[ moleculetype ]
;name             nrexcl
 MOL                   3

[ atoms ]
;       nr            type      resi   res      atom      cgnr      charge          mass ; qtot
         1            n0bf         1   UNL        n0         1    -0.64245       14.0070 ; qtot   -0.642
         2            c1bf         1   UNL        c1         2     0.17801       12.0110 ; qtot   -0.464
         3            c2bf         1   UNL        c2         3    -0.16302       12.0110 ; qtot   -0.627
         4            c3bf         1   UNL        c3         4    -0.02411       12.0110 ; qtot   -0.652
         5            c4bf         1   UNL        c4         5     0.27545       12.0110 ; qtot   -0.376
         6            c5bf         1   UNL        c5         6     0.32361       12.0110 ; qtot   -0.053
         7            c6bf         1   UNL        c6         7    -0.22749       12.0110 ; qtot   -0.280
         8            c7bf         1   UNL        c7         8    -0.02479       12.0110 ; qtot   -0.305
         9            c8bf         1   UNL        c8         9    -0.13841       12.0110 ; qtot   -0.443
        10            c9bf         1   UNL        c9        10    -0.08699       12.0110 ; qtot   -0.530
        11           c10bf         1   UNL       c10        11    -0.09144       12.0110 ; qtot   -0.622
        12           c11bf         1   UNL       c11        12    -0.05127       12.0110 ; qtot   -0.673
        13           c12bf         1   UNL       c12        13    -0.12505       12.0110 ; qtot   -0.798
        14           c13bf         1   UNL       c13        14    -0.19068       12.0110 ; qtot   -0.989
        15           c14bf         1   UNL       c14        15    -0.10251       12.0110 ; qtot   -1.091
        16           n15bf         1   UNL       n15        16    -0.07889       14.0070 ; qtot   -1.170
        17           n16bf         1   UNL       n16        17    -0.62862       14.0070 ; qtot   -1.799
        18           c17bf         1   UNL       c17        18     0.29621       12.0110 ; qtot   -1.502
        19           c18bf         1   UNL       c18        19     0.29560       12.0110 ; qtot   -1.207
        20           n19bf         1   UNL       n19        20    -0.61815       14.0070 ; qtot   -1.825
        21           c20bf         1   UNL       c20        21     0.03587       12.0110 ; qtot   -1.789
        22           c21bf         1   UNL       c21        22     0.10603       12.0110 ; qtot   -1.683
        23           c22bf         1   UNL       c22        23    -0.04734       12.0110 ; qtot   -1.730
        24           c23bf         1   UNL       c23        24    -0.17636       12.0110 ; qtot   -1.907
        25           c24bf         1   UNL       c24        25     0.36392       12.0110 ; qtot   -1.543
        26           n25bf         1   UNL       n25        26    -0.61448       14.0070 ; qtot   -2.157
        27           c26bf         1   UNL       c26        27     0.34545       12.0110 ; qtot   -1.812
        28           c27bf         1   UNL       c27        28     0.23191       12.0110 ; qtot   -1.580
        29           n28bf         1   UNL       n28        29    -0.36083       14.0070 ; qtot   -1.941
        30           h29bf         1   UNL       h29        30     0.45942        1.0080 ; qtot   -1.481
        31           h30bf         1   UNL       h30        31     0.14719        1.0080 ; qtot   -1.334
        32           h31bf         1   UNL       h31        32     0.15776        1.0080 ; qtot   -1.176
        33           h32bf         1   UNL       h32        33     0.13697        1.0080 ; qtot   -1.039
        34           h33bf         1   UNL       h33        34     0.13662        1.0080 ; qtot   -0.903
        35           h34bf         1   UNL       h34        35     0.13971        1.0080 ; qtot   -0.763
        36           h35bf         1   UNL       h35        36     0.15551        1.0080 ; qtot   -0.608
        37           h36bf         1   UNL       h36        37     0.16110        1.0080 ; qtot   -0.447
        38           h37bf         1   UNL       h37        38     0.03331        1.0080 ; qtot   -0.413
        39           h38bf         1   UNL       h38        39     0.03380        1.0080 ; qtot   -0.379
        40           h39bf         1   UNL       h39        40     0.04975        1.0080 ; qtot   -0.330
        41           h40bf         1   UNL       h40        41     0.04975        1.0080 ; qtot   -0.280
        42           h41bf         1   UNL       h41        42     0.04975        1.0080 ; qtot   -0.230
        43           h42bf         1   UNL       h42        43     0.15816        1.0080 ; qtot   -0.072
        44           h43bf         1   UNL       h43        44     0.03526        1.0080 ; qtot   -0.037
        45           h44bf         1   UNL       h44        45     0.03676        1.0080 ; qtot    0.000

[ bonds ]
;       ai        aj funct               r               k
         1         2     1        0.141344   345860.385205    ;  uncertainty r = 0.000167, k = 16.692569
         1        22     1        0.138898   336356.469043    ;  uncertainty r = 0.000331, k = 14.750637
         1        30     1        0.101491   410761.493066    ;  uncertainty r = 0.000072, k = 2.397416
         2         3     1        0.142087   351324.305127    ;  uncertainty r = 0.000215, k = 13.498750
         2         7     1        0.138845   382362.363232    ;  uncertainty r = 0.000130, k = 8.759586
         3         4     1        0.138000   347495.960449    ;  uncertainty r = 0.000143, k = 17.234338
         3        31     1        0.108883   338510.243311    ;  uncertainty r = 0.000020, k = 3.739144
         4         5     1        0.143085   310245.234375    ;  uncertainty r = 0.000128, k = 17.466669
         4         8     1        0.148137   283751.862402    ;  uncertainty r = 0.000105, k = 15.453592
         5         6     1        0.142995   298655.574805    ;  uncertainty r = 0.000072, k = 15.498988
         5        20     1        0.135767   353109.859814    ;  uncertainty r = 0.000088, k = 12.675275
         6         7     1        0.141431   396079.417236    ;  uncertainty r = 0.000094, k = 15.205661
         6        17     1        0.136382   355171.598340    ;  uncertainty r = 0.000057, k = 8.738517
         7        32     1        0.108811   340366.765625    ;  uncertainty r = 0.000031, k = 1.855827
         8         9     1        0.141773   332885.005469    ;  uncertainty r = 0.000129, k = 5.382954
         8        13     1        0.139578   348941.182080    ;  uncertainty r = 0.000096, k = 3.247014
         9        10     1        0.138795   364168.909326    ;  uncertainty r = 0.000031, k = 1.854519
         9        33     1        0.108772   335281.433350    ;  uncertainty r = 0.000023, k = 2.010175
        10        11     1        0.140496   366588.397217    ;  uncertainty r = 0.000029, k = 1.524532
        10        34     1        0.108842   335262.612500    ;  uncertainty r = 0.000021, k = 1.243220
        11        12     1        0.142478   370413.039014    ;  uncertainty r = 0.000021, k = 8.656161
        11        14     1        0.143851   263887.949561    ;  uncertainty r = 0.000049, k = 9.849674
        12        13     1        0.139638   360882.589795    ;  uncertainty r = 0.000073, k = 8.112548
        12        16     1        0.138409   299089.858887    ;  uncertainty r = 0.000058, k = 4.369580
        13        35     1        0.108815   335784.310107    ;  uncertainty r = 0.000035, k = 1.319575
        14        15     1        0.137643   438880.659570    ;  uncertainty r = 0.000039, k = 2.390634
        14        36     1        0.108258   339903.777832    ;  uncertainty r = 0.000020, k = 1.257353
        15        16     1        0.138800   299198.085156    ;  uncertainty r = 0.000053, k = 11.566371
        15        37     1        0.108278   339863.020605    ;  uncertainty r = 0.000024, k = 2.230051
        16        21     1        0.145040   254644.665137    ;  uncertainty r = 0.000030, k = 4.755567
        17        18     1        0.131606   448634.967090    ;  uncertainty r = 0.000067, k = 6.059813
        18        19     1        0.141378   325245.400439    ;  uncertainty r = 0.000067, k = 16.241070
        18        38     1        0.109175   341608.201123    ;  uncertainty r = 0.000026, k = 2.358960
        19        20     1        0.131584   437138.007227    ;  uncertainty r = 0.000061, k = 11.800992
        19        39     1        0.109180   341408.015723    ;  uncertainty r = 0.000031, k = 1.111543
        21        40     1        0.109426   310040.631055    ;  uncertainty r = 0.000012, k = 1.344889
        21        41     1        0.109426   310040.631055    ;  uncertainty r = 0.000012, k = 1.344889
        21        42     1        0.109426   310040.579980    ;  uncertainty r = 0.000012, k = 1.344857
        22        23     1        0.141190   344354.844922    ;  uncertainty r = 0.000147, k = 14.132762
        22        27     1        0.140528   347219.163721    ;  uncertainty r = 0.000052, k = 9.317792
        23        24     1        0.140107   372520.795410    ;  uncertainty r = 0.000102, k = 7.126412
        23        28     1        0.143345   317397.616895    ;  uncertainty r = 0.000093, k = 6.423607
        24        25     1        0.139105   367290.565576    ;  uncertainty r = 0.000039, k = 3.847582
        24        43     1        0.108688   337395.012207    ;  uncertainty r = 0.000014, k = 1.943986
        25        26     1        0.133958   394836.398438    ;  uncertainty r = 0.000068, k = 5.032218
        25        44     1        0.108978   340248.324512    ;  uncertainty r = 0.000019, k = 2.322341
        26        27     1        0.132807   388446.324170    ;  uncertainty r = 0.000101, k = 6.566016
        27        45     1        0.108983   336032.964941    ;  uncertainty r = 0.000076, k = 2.339793
        28        29     1        0.116705  1131063.396289    ;  uncertainty r = 0.000039, k = 1.725148

[ angles ]
;       ai        aj        ak funct           theta             cth
         1         2         3     1      120.110474      505.174906    ;  uncertainty theta = 0.003827, k = 0.345043
         1         2         7     1      121.841751      507.194891    ;  uncertainty theta = 0.005261, k = 0.170366
         1        22        23     1      119.233475      522.356050    ;  uncertainty theta = 0.008789, k = 0.123544
         1        22        27     1      119.190933      436.697243    ;  uncertainty theta = 0.004712, k = 0.303203
         2         1        22     1      116.226181      368.644613    ;  uncertainty theta = 0.005273, k = 0.235712
         2         1        30     1      114.109665      380.355261    ;  uncertainty theta = 0.007859, k = 0.067772
         2         3         4     1      122.387405      516.194201    ;  uncertainty theta = 0.004388, k = 0.262711
         2         3        31     1      119.421829      285.355012    ;  uncertainty theta = 0.005100, k = 0.137947
         2         7         6     1      118.258041      519.489062    ;  uncertainty theta = 0.002320, k = 0.069528
         2         7        32     1      121.472069      270.295619    ;  uncertainty theta = 0.001195, k = 0.144454
         3         2         7     1      119.313026      387.945401    ;  uncertainty theta = 0.003928, k = 0.073699
         3         4         5     1      121.234207      456.906322    ;  uncertainty theta = 0.004548, k = 0.137789
         3         4         8     1      121.228798      423.141028    ;  uncertainty theta = 0.002961, k = 0.156452
         4         3        31     1      118.704933      277.851890    ;  uncertainty theta = 0.005306, k = 0.050256
         4         5         6     1      120.727844      398.377566    ;  uncertainty theta = 0.005688, k = 0.083900
         4         5        20     1      118.059143      466.719084    ;  uncertainty theta = 0.004200, k = 0.232797
         4         8         9     1      119.939163      397.252847    ;  uncertainty theta = 0.003248, k = 0.114583
         4         8        13     1      119.830284      387.483818    ;  uncertainty theta = 0.002251, k = 0.190078
         5         4         8     1      119.335999      396.188588    ;  uncertainty theta = 0.004435, k = 0.267308
         5         6         7     1      119.517235      392.036765    ;  uncertainty theta = 0.005326, k = 0.191058
         5         6        17     1      119.243858      555.279545    ;  uncertainty theta = 0.007472, k = 0.086369
         5        20        19     1      116.502525      472.887509    ;  uncertainty theta = 0.004302, k = 0.130227
         6         5        20     1      119.722855      514.456720    ;  uncertainty theta = 0.004269, k = 0.061580
         6         7        32     1      120.837967      275.673543    ;  uncertainty theta = 0.003390, k = 0.103595
         6        17        18     1      114.458984      488.266148    ;  uncertainty theta = 0.001996, k = 0.147683
         7         6        17     1      122.312637      528.712460    ;  uncertainty theta = 0.003351, k = 0.210335
         8         9        10     1      122.513977      519.825227    ;  uncertainty theta = 0.002504, k = 0.082970
         8         9        33     1      118.705055      283.822243    ;  uncertainty theta = 0.003481, k = 0.052326
         8        13        12     1      118.386093      529.920652    ;  uncertainty theta = 0.003401, k = 0.180792
         8        13        35     1      120.176918      276.179305    ;  uncertainty theta = 0.003371, k = 0.099806
         9         8        13     1      122.892189      427.495488    ;  uncertainty theta = 0.004657, k = 0.054030
         9        10        11     1      119.126968      545.225329    ;  uncertainty theta = 0.002014, k = 0.075473
         9        10        34     1      120.552231      281.882188    ;  uncertainty theta = 0.001756, k = 0.032676
        10         9        33     1      119.644821      296.182906    ;  uncertainty theta = 0.002811, k = 0.056213
        10        11        12     1      116.316528      401.555212    ;  uncertainty theta = 0.003524, k = 0.104666
        10        11        14     1      133.137314      372.613048    ;  uncertainty theta = 0.003601, k = 0.161997
        11        10        34     1      121.660202      297.421073    ;  uncertainty theta = 0.001725, k = 0.098896
        11        12        13     1      122.096420      362.937197    ;  uncertainty theta = 0.001381, k = 0.132828
        11        12        16     1      108.699356      659.259248    ;  uncertainty theta = 0.001396, k = 0.199015
        11        14        15     1      106.600060      811.238758    ;  uncertainty theta = 0.002477, k = 0.071833
        11        14        36     1      125.357811      254.842571    ;  uncertainty theta = 0.003088, k = 0.059342
        12        11        14     1      106.331848      697.004628    ;  uncertainty theta = 0.002119, k = 0.268284
        12        13        35     1      122.049515      289.470477    ;  uncertainty theta = 0.001404, k = 0.108597
        12        16        15     1      107.260864      818.300726    ;  uncertainty theta = 0.002708, k = 0.112517
        12        16        21     1      120.714661      413.315913    ;  uncertainty theta = 0.003757, k = 0.146507
        13        12        16     1      127.554398      386.261612    ;  uncertainty theta = 0.001561, k = 0.197526
        14        15        16     1      111.357628      756.000331    ;  uncertainty theta = 0.002253, k = 0.100899
        14        15        37     1      128.154099      239.476972    ;  uncertainty theta = 0.003447, k = 0.106541
        15        14        36     1      123.663986      251.202927    ;  uncertainty theta = 0.003182, k = 0.069917
        15        16        21     1      121.539627      391.310362    ;  uncertainty theta = 0.002440, k = 0.111857
        16        15        37     1      117.041054      288.340843    ;  uncertainty theta = 0.001716, k = 0.115275
        16        21        40     1      109.087296      471.938965    ;  uncertainty theta = 0.000901, k = 0.078971
        16        21        41     1      109.087296      471.938965    ;  uncertainty theta = 0.000901, k = 0.078971
        16        21        42     1      109.087296      471.938965    ;  uncertainty theta = 0.000901, k = 0.078971
        17        18        19     1      120.931259      612.842998    ;  uncertainty theta = 0.002470, k = 0.239696
        17        18        38     1      116.754013      350.159832    ;  uncertainty theta = 0.001533, k = 0.075385
        18        19        20     1      121.240555      622.447314    ;  uncertainty theta = 0.002919, k = 0.205880
        18        19        39     1      121.994606      282.804174    ;  uncertainty theta = 0.002439, k = 0.090842
        19        18        38     1      121.868530      283.534439    ;  uncertainty theta = 0.002376, k = 0.096063
        20        19        39     1      116.813492      347.959523    ;  uncertainty theta = 0.001638, k = 0.087624
        22         1        30     1      113.296982      376.529994    ;  uncertainty theta = 0.005324, k = 0.081259
        22        23        24     1      120.849899      453.230415    ;  uncertainty theta = 0.005852, k = 0.094065
        22        23        28     1      117.000389      372.098412    ;  uncertainty theta = 0.008792, k = 0.142363
        22        27        26     1      124.385635      686.324498    ;  uncertainty theta = 0.003181, k = 0.137873
        22        27        45     1      119.258194      259.656939    ;  uncertainty theta = 0.008101, k = 0.075746
        23        22        27     1      119.316063      348.923549    ;  uncertainty theta = 0.010000, k = 0.452953
        23        24        25     1      118.869217      470.070574    ;  uncertainty theta = 0.003917, k = 0.188683
        23        24        43     1      119.918961      273.458039    ;  uncertainty theta = 0.001602, k = 0.122950
        23        28        29     1      179.540848      232.567349    ;  uncertainty theta = 0.005719, k = 0.704142
        24        23        28     1      120.597145      388.783944    ;  uncertainty theta = 0.001586, k = 0.104233
        24        25        26     1      122.367493      691.873329    ;  uncertainty theta = 0.001598, k = 0.085831
        24        25        44     1      120.301590      278.367708    ;  uncertainty theta = 0.001575, k = 0.062647
        25        24        43     1      121.872330      281.626530    ;  uncertainty theta = 0.003880, k = 0.114745
        25        26        27     1      118.057144      434.700592    ;  uncertainty theta = 0.002227, k = 0.084662
        26        25        44     1      116.666832      340.462945    ;  uncertainty theta = 0.001609, k = 0.036482
        26        27        45     1      116.389954      350.276696    ;  uncertainty theta = 0.003775, k = 0.064104
        40        21        41     1      107.317055      322.193856    ;  uncertainty theta = 0.001017, k = 0.038184
        40        21        42     1      107.317055      322.193856    ;  uncertainty theta = 0.001017, k = 0.038184
        41        21        42     1      107.317055      322.193856    ;  uncertainty theta = 0.001017, k = 0.038184

[ dihedrals ] ; propers for gromacs 4.5 or higher, use funct 9
;       ai        aj        ak        al funct           phase               k        pn
         1         2         3         4     9        0.000000        0.394966         1    ;  uncertainty k = 0.850207
         1         2         3         4     9      180.000000        7.546027         2    ;  uncertainty k = 0.544942
         1         2         3         4     9        0.000000        0.849218         3    ;  uncertainty k = 0.272860
         1         2         3         4     9      180.000000        1.629471         4    ;  uncertainty k = 0.121806
         1         2         3        31     9        0.000000       -0.366503         1    ;  uncertainty k = 0.303808
         1         2         3        31     9      180.000000        7.061471         2    ;  uncertainty k = 0.399182
         1         2         3        31     9        0.000000        0.780915         3    ;  uncertainty k = 0.189989
         1         2         3        31     9      180.000000        1.138715         4    ;  uncertainty k = 0.186468
         1         2         7         6     9        0.000000       -0.081212         1    ;  uncertainty k = 0.507410
         1         2         7         6     9      180.000000       10.993928         2    ;  uncertainty k = 0.419043
         1         2         7         6     9        0.000000        0.984434         3    ;  uncertainty k = 0.151788
         1         2         7         6     9      180.000000        1.602806         4    ;  uncertainty k = 0.118855
         1         2         7        32     9        0.000000       -0.535041         1    ;  uncertainty k = 0.254599
         1         2         7        32     9      180.000000        8.103080         2    ;  uncertainty k = 0.514905
         1         2         7        32     9        0.000000        0.836667         3    ;  uncertainty k = 0.251714
         1         2         7        32     9      180.000000        1.152672         4    ;  uncertainty k = 0.259782
         1        22        23        24     9        0.000000        0.033173         1    ;  uncertainty k = 0.581665
         1        22        23        24     9      180.000000        7.876548         2    ;  uncertainty k = 0.718276
         1        22        23        24     9        0.000000        1.002661         3    ;  uncertainty k = 0.169895
         1        22        23        24     9      180.000000        1.576650         4    ;  uncertainty k = 0.240359
         1        22        23        28     9        0.000000       -0.359663         1    ;  uncertainty k = 0.750984
         1        22        23        28     9      180.000000       10.501681         2    ;  uncertainty k = 0.816451
         1        22        23        28     9        0.000000        0.933134         3    ;  uncertainty k = 0.289915
         1        22        23        28     9      180.000000        1.234032         4    ;  uncertainty k = 0.318411
         1        22        27        26     9        0.000000        0.275390         1    ;  uncertainty k = 0.877060
         1        22        27        26     9      180.000000        9.338975         2    ;  uncertainty k = 0.716106
         1        22        27        26     9        0.000000        0.884509         3    ;  uncertainty k = 0.284420
         1        22        27        26     9      180.000000        1.489020         4    ;  uncertainty k = 0.302686
         1        22        27        45     9        0.000000       -0.032542         1    ;  uncertainty k = 0.453175
         1        22        27        45     9      180.000000        6.263292         2    ;  uncertainty k = 0.818259
         1        22        27        45     9        0.000000        0.895530         3    ;  uncertainty k = 0.235051
         1        22        27        45     9      180.000000        1.110334         4    ;  uncertainty k = 0.207627
         2         1        22        23     9        0.000000        1.981747         1    ;  uncertainty k = 1.462417
         2         1        22        23     9      180.000000        7.049797         2    ;  uncertainty k = 0.410942
         2         1        22        23     9        0.000000        0.174383         3    ;  uncertainty k = 0.214421
         2         1        22        23     9      180.000000        0.191216         4    ;  uncertainty k = 0.115249
         2         1        22        27     9        0.000000        4.109122         1    ;  uncertainty k = 0.506356
         2         1        22        27     9      180.000000        5.322771         2    ;  uncertainty k = 0.425520
         2         1        22        27     9        0.000000        0.356785         3    ;  uncertainty k = 0.146400
         2         1        22        27     9      180.000000        0.071148         4    ;  uncertainty k = 0.089706
         2         3         4         5     9        0.000000        0.010975         1    ;  uncertainty k = 0.540389
         2         3         4         5     9      180.000000       12.474206         2    ;  uncertainty k = 0.424703
         2         3         4         5     9        0.000000        0.363050         3    ;  uncertainty k = 0.231700
         2         3         4         5     9      180.000000        1.278471         4    ;  uncertainty k = 0.330162
         2         3         4         8     9        0.000000        0.182521         1    ;  uncertainty k = 0.203743
         2         3         4         8     9      180.000000       10.393594         2    ;  uncertainty k = 0.626757
         2         3         4         8     9        0.000000        1.350308         3    ;  uncertainty k = 0.272441
         2         3         4         8     9      180.000000        1.715330         4    ;  uncertainty k = 0.283684
         2         7         6         5     9        0.000000        0.105135         1    ;  uncertainty k = 0.418476
         2         7         6         5     9      180.000000        7.191564         2    ;  uncertainty k = 0.789205
         2         7         6         5     9        0.000000        0.049939         3    ;  uncertainty k = 0.294354
         2         7         6         5     9      180.000000        1.295638         4    ;  uncertainty k = 0.268741
         2         7         6        17     9        0.000000        0.136752         1    ;  uncertainty k = 0.440374
         2         7         6        17     9      180.000000        9.791261         2    ;  uncertainty k = 0.369426
         2         7         6        17     9        0.000000        0.575117         3    ;  uncertainty k = 0.280230
         2         7         6        17     9      180.000000        1.391654         4    ;  uncertainty k = 0.236424
         3         2         1        22     9        0.000000        2.237300         1    ;  uncertainty k = 0.486430
         3         2         1        22     9      180.000000        5.440009         2    ;  uncertainty k = 0.231899
         3         2         1        22     9        0.000000        0.583143         3    ;  uncertainty k = 0.285182
         3         2         1        22     9      180.000000        0.162878         4    ;  uncertainty k = 0.120143
         3         2         1        30     9        0.000000        3.398302         1    ;  uncertainty k = 0.506197
         3         2         1        30     9      180.000000        4.803548         2    ;  uncertainty k = 0.640235
         3         2         1        30     9        0.000000        0.615004         3    ;  uncertainty k = 0.238406
         3         2         1        30     9      180.000000       -0.053282         4    ;  uncertainty k = 0.093353
         3         2         7         6     9        0.000000       -0.211596         1    ;  uncertainty k = 0.214605
         3         2         7         6     9      180.000000        9.630247         2    ;  uncertainty k = 0.297096
         3         2         7         6     9        0.000000        0.341139         3    ;  uncertainty k = 0.475048
         3         2         7         6     9      180.000000        1.370724         4    ;  uncertainty k = 0.295310
         3         2         7        32     9        0.000000        0.283458         1    ;  uncertainty k = 0.412719
         3         2         7        32     9      180.000000        6.985913         2    ;  uncertainty k = 0.634098
         3         2         7        32     9        0.000000        1.297460         3    ;  uncertainty k = 0.105364
         3         2         7        32     9      180.000000        1.625882         4    ;  uncertainty k = 0.156284
         3         4         5         6     9        0.000000       -0.064268         1    ;  uncertainty k = 0.482878
         3         4         5         6     9      180.000000        5.815077         2    ;  uncertainty k = 0.996902
         3         4         5         6     9        0.000000        0.060037         3    ;  uncertainty k = 0.264412
         3         4         5         6     9      180.000000        1.005081         4    ;  uncertainty k = 0.332026
         3         4         5        20     9        0.000000        0.261322         1    ;  uncertainty k = 0.518993
         3         4         5        20     9      180.000000        6.885067         2    ;  uncertainty k = 0.805625
         3         4         5        20     9        0.000000        0.373938         3    ;  uncertainty k = 0.290823
         3         4         5        20     9      180.000000        1.164313         4    ;  uncertainty k = 0.349614
         3         4         8         9     9        0.000000       -0.241233         1    ;  uncertainty k = 0.353964
         3         4         8         9     9      180.000000        5.771565         2    ;  uncertainty k = 0.169727
         3         4         8         9     9        0.000000        0.317160         3    ;  uncertainty k = 0.177140
         3         4         8         9     9      180.000000        0.588640         4    ;  uncertainty k = 0.117338
         3         4         8        13     9        0.000000       -0.358622         1    ;  uncertainty k = 0.397329
         3         4         8        13     9      180.000000        5.522277         2    ;  uncertainty k = 0.163710
         3         4         8        13     9        0.000000        0.471433         3    ;  uncertainty k = 0.101553
         3         4         8        13     9      180.000000        0.524758         4    ;  uncertainty k = 0.136869
         4         3         2         7     9        0.000000       -0.072200         1    ;  uncertainty k = 0.338322
         4         3         2         7     9      180.000000        6.131094         2    ;  uncertainty k = 0.985507
         4         3         2         7     9        0.000000        0.315101         3    ;  uncertainty k = 0.206586
         4         3         2         7     9      180.000000        1.352220         4    ;  uncertainty k = 0.324244
         4         5         6         7     9        0.000000       -0.713080         1    ;  uncertainty k = 0.521880
         4         5         6         7     9      180.000000        4.611685         2    ;  uncertainty k = 1.535209
         4         5         6         7     9        0.000000        0.274758         3    ;  uncertainty k = 0.299131
         4         5         6         7     9      180.000000        1.240052         4    ;  uncertainty k = 0.359772
         4         5         6        17     9        0.000000       -0.297578         1    ;  uncertainty k = 0.701970
         4         5         6        17     9      180.000000        5.014358         2    ;  uncertainty k = 1.176010
         4         5         6        17     9        0.000000        0.093991         3    ;  uncertainty k = 0.371275
         4         5         6        17     9      180.000000        1.323525         4    ;  uncertainty k = 0.229333
         4         5        20        19     9        0.000000       -0.230725         1    ;  uncertainty k = 0.542096
         4         5        20        19     9      180.000000       12.457803         2    ;  uncertainty k = 0.567634
         4         5        20        19     9        0.000000        2.051215         3    ;  uncertainty k = 0.352156
         4         5        20        19     9      180.000000        1.316225         4    ;  uncertainty k = 0.190863
         4         8         9        10     9        0.000000        0.106033         1    ;  uncertainty k = 0.347322
         4         8         9        10     9      180.000000        7.741873         2    ;  uncertainty k = 0.677794
         4         8         9        10     9        0.000000        1.125160         3    ;  uncertainty k = 0.437429
         4         8         9        10     9      180.000000        1.837355         4    ;  uncertainty k = 0.142429
         4         8         9        33     9        0.000000       -0.194197         1    ;  uncertainty k = 0.071949
         4         8         9        33     9      180.000000        7.286465         2    ;  uncertainty k = 0.459538
         4         8         9        33     9        0.000000        0.820345         3    ;  uncertainty k = 0.187086
         4         8         9        33     9      180.000000        1.127885         4    ;  uncertainty k = 0.183907
         4         8        13        12     9        0.000000        0.008340         1    ;  uncertainty k = 0.510405
         4         8        13        12     9      180.000000       10.601909         2    ;  uncertainty k = 0.755180
         4         8        13        12     9        0.000000        1.446684         3    ;  uncertainty k = 0.244022
         4         8        13        12     9      180.000000        1.685325         4    ;  uncertainty k = 0.268772
         4         8        13        35     9        0.000000       -0.217860         1    ;  uncertainty k = 0.216539
         4         8        13        35     9      180.000000        7.816292         2    ;  uncertainty k = 0.229990
         4         8        13        35     9        0.000000        0.863298         3    ;  uncertainty k = 0.206755
         4         8        13        35     9      180.000000        1.171828         4    ;  uncertainty k = 0.102501
         5         4         3        31     9        0.000000        0.123739         1    ;  uncertainty k = 0.256829
         5         4         3        31     9      180.000000        9.582774         2    ;  uncertainty k = 0.350596
         5         4         3        31     9        0.000000        1.473211         3    ;  uncertainty k = 0.141254
         5         4         3        31     9      180.000000        1.670290         4    ;  uncertainty k = 0.172670
         5         4         8         9     9        0.000000        0.294935         1    ;  uncertainty k = 0.682343
         5         4         8         9     9      180.000000        5.135221         2    ;  uncertainty k = 0.368550
         5         4         8         9     9        0.000000        0.449391         3    ;  uncertainty k = 0.368548
         5         4         8         9     9      180.000000        0.735448         4    ;  uncertainty k = 0.087901
         5         4         8        13     9        0.000000       -0.139300         1    ;  uncertainty k = 0.564767
         5         4         8        13     9      180.000000        5.053882         2    ;  uncertainty k = 0.350242
         5         4         8        13     9        0.000000        0.265394         3    ;  uncertainty k = 0.358781
         5         4         8        13     9      180.000000        0.716032         4    ;  uncertainty k = 0.142482
         5         6         7        32     9        0.000000       -0.216754         1    ;  uncertainty k = 0.343873
         5         6         7        32     9      180.000000        5.853912         2    ;  uncertainty k = 0.879792
         5         6         7        32     9        0.000000        1.199030         3    ;  uncertainty k = 0.162613
         5         6         7        32     9      180.000000        1.246406         4    ;  uncertainty k = 0.338414
         5         6        17        18     9        0.000000       -0.063177         1    ;  uncertainty k = 1.326752
         5         6        17        18     9      180.000000       10.095140         2    ;  uncertainty k = 0.612695
         5         6        17        18     9        0.000000        1.278116         3    ;  uncertainty k = 0.488030
         5         6        17        18     9      180.000000        1.281712         4    ;  uncertainty k = 0.220795
         5        20        19        18     9        0.000000        0.020377         1    ;  uncertainty k = 0.368422
         5        20        19        18     9      180.000000       16.581264         2    ;  uncertainty k = 0.335689
         5        20        19        18     9        0.000000        0.829256         3    ;  uncertainty k = 0.750676
         5        20        19        18     9      180.000000        1.566270         4    ;  uncertainty k = 0.253962
         5        20        19        39     9        0.000000        0.275901         1    ;  uncertainty k = 0.531876
         5        20        19        39     9      180.000000       18.156242         2    ;  uncertainty k = 0.522836
         5        20        19        39     9        0.000000        2.344021         3    ;  uncertainty k = 0.655908
         5        20        19        39     9      180.000000        1.633482         4    ;  uncertainty k = 0.415921
         6         5         4         8     9        0.000000        0.163366         1    ;  uncertainty k = 0.742862
         6         5         4         8     9      180.000000        4.925989         2    ;  uncertainty k = 0.482652
         6         5         4         8     9        0.000000        1.071668         3    ;  uncertainty k = 0.234643
         6         5         4         8     9      180.000000        1.265583         4    ;  uncertainty k = 0.346238
         6         5        20        19     9        0.000000       -0.112020         1    ;  uncertainty k = 0.910115
         6         5        20        19     9      180.000000       11.596636         2    ;  uncertainty k = 0.629167
         6         5        20        19     9        0.000000        1.457657         3    ;  uncertainty k = 0.287216
         6         5        20        19     9      180.000000        1.330866         4    ;  uncertainty k = 0.318778
         6        17        18        19     9        0.000000        0.013312         1    ;  uncertainty k = 0.131652
         6        17        18        19     9      180.000000       17.231917         2    ;  uncertainty k = 0.196674
         6        17        18        19     9        0.000000        0.888030         3    ;  uncertainty k = 0.629562
         6        17        18        19     9      180.000000        1.519865         4    ;  uncertainty k = 0.234840
         6        17        18        38     9        0.000000        0.424411         1    ;  uncertainty k = 0.517709
         6        17        18        38     9      180.000000       19.045704         2    ;  uncertainty k = 0.443936
         6        17        18        38     9        0.000000        2.354563         3    ;  uncertainty k = 0.582721
         6        17        18        38     9      180.000000        1.407429         4    ;  uncertainty k = 0.336466
         7         2         1        22     9        0.000000        2.173616         1    ;  uncertainty k = 0.452928
         7         2         1        22     9      180.000000        5.188344         2    ;  uncertainty k = 0.193621
         7         2         1        22     9        0.000000        0.095551         3    ;  uncertainty k = 0.392861
         7         2         1        22     9      180.000000        0.211043         4    ;  uncertainty k = 0.084529
         7         2         1        30     9        0.000000        3.710917         1    ;  uncertainty k = 0.599556
         7         2         1        30     9      180.000000        4.780290         2    ;  uncertainty k = 0.210645
         7         2         1        30     9        0.000000        0.545986         3    ;  uncertainty k = 0.189555
         7         2         1        30     9      180.000000       -0.074010         4    ;  uncertainty k = 0.074082
         7         2         3        31     9        0.000000        0.263123         1    ;  uncertainty k = 0.398269
         7         2         3        31     9      180.000000        5.899055         2    ;  uncertainty k = 0.877098
         7         2         3        31     9        0.000000        1.137785         3    ;  uncertainty k = 0.155590
         7         2         3        31     9      180.000000        1.431259         4    ;  uncertainty k = 0.270209
         7         6         5        20     9        0.000000        0.076452         1    ;  uncertainty k = 0.284767
         7         6         5        20     9      180.000000        6.080417         2    ;  uncertainty k = 1.149880
         7         6         5        20     9        0.000000        0.106983         3    ;  uncertainty k = 0.156573
         7         6         5        20     9      180.000000        1.373586         4    ;  uncertainty k = 0.405208
         7         6        17        18     9        0.000000        0.427932         1    ;  uncertainty k = 1.029215
         7         6        17        18     9      180.000000       12.638434         2    ;  uncertainty k = 0.318598
         7         6        17        18     9        0.000000        2.227131         3    ;  uncertainty k = 0.470956
         7         6        17        18     9      180.000000        1.437848         4    ;  uncertainty k = 0.260470
         8         4         3        31     9        0.000000        0.133919         1    ;  uncertainty k = 0.241848
         8         4         3        31     9      180.000000        8.368021         2    ;  uncertainty k = 0.247906
         8         4         3        31     9        0.000000        1.001197         3    ;  uncertainty k = 0.152989
         8         4         3        31     9      180.000000        1.398313         4    ;  uncertainty k = 0.293350
         8         4         5        20     9        0.000000        0.205608         1    ;  uncertainty k = 1.297116
         8         4         5        20     9      180.000000        7.137751         2    ;  uncertainty k = 0.766263
         8         4         5        20     9        0.000000        0.773424         3    ;  uncertainty k = 0.512634
         8         4         5        20     9      180.000000        1.176773         4    ;  uncertainty k = 0.263388
         8         9        10        11     9        0.000000       -0.088237         1    ;  uncertainty k = 0.303401
         8         9        10        11     9      180.000000       16.637935         2    ;  uncertainty k = 0.333977
         8         9        10        11     9        0.000000       -0.360480         3    ;  uncertainty k = 0.532647
         8         9        10        11     9      180.000000        0.692099         4    ;  uncertainty k = 0.430867
         8         9        10        34     9        0.000000       -0.068874         1    ;  uncertainty k = 0.208186
         8         9        10        34     9      180.000000        8.826761         2    ;  uncertainty k = 0.512392
         8         9        10        34     9        0.000000        1.364386         3    ;  uncertainty k = 0.219987
         8         9        10        34     9      180.000000        1.899722         4    ;  uncertainty k = 0.318556
         8        13        12        11     9        0.000000       -0.149024         1    ;  uncertainty k = 0.543450
         8        13        12        11     9      180.000000       12.121194         2    ;  uncertainty k = 0.115800
         8        13        12        11     9        0.000000       -0.939443         3    ;  uncertainty k = 0.507589
         8        13        12        11     9      180.000000        0.860046         4    ;  uncertainty k = 0.197235
         8        13        12        16     9        0.000000        0.212530         1    ;  uncertainty k = 0.147665
         8        13        12        16     9      180.000000       10.459764         2    ;  uncertainty k = 0.471484
         8        13        12        16     9        0.000000        1.021284         3    ;  uncertainty k = 0.274552
         8        13        12        16     9      180.000000        1.335798         4    ;  uncertainty k = 0.221198
         9         8        13        12     9        0.000000       -0.053115         1    ;  uncertainty k = 0.278159
         9         8        13        12     9      180.000000       13.312168         2    ;  uncertainty k = 0.270024
         9         8        13        12     9        0.000000       -0.017985         3    ;  uncertainty k = 0.385054
         9         8        13        12     9      180.000000        0.899868         4    ;  uncertainty k = 0.336492
         9         8        13        35     9        0.000000        0.324286         1    ;  uncertainty k = 0.275977
         9         8        13        35     9      180.000000        7.772421         2    ;  uncertainty k = 0.500278
         9         8        13        35     9        0.000000        1.473057         3    ;  uncertainty k = 0.166957
         9         8        13        35     9      180.000000        1.643833         4    ;  uncertainty k = 0.220962
         9        10        11        12     9        0.000000        0.015179         1    ;  uncertainty k = 0.183013
         9        10        11        12     9      180.000000       13.267788         2    ;  uncertainty k = 0.263041
         9        10        11        12     9        0.000000       -1.677048         3    ;  uncertainty k = 0.342200
         9        10        11        12     9      180.000000        0.680123         4    ;  uncertainty k = 0.245766
         9        10        11        14     9        0.000000        0.168081         1    ;  uncertainty k = 0.172640
         9        10        11        14     9      180.000000        8.937069         2    ;  uncertainty k = 0.347169
         9        10        11        14     9        0.000000        0.640838         3    ;  uncertainty k = 0.199488
         9        10        11        14     9      180.000000        1.231015         4    ;  uncertainty k = 0.108242
        10         9         8        13     9        0.000000       -0.234351         1    ;  uncertainty k = 0.151821
        10         9         8        13     9      180.000000       10.060343         2    ;  uncertainty k = 0.243333
        10         9         8        13     9        0.000000       -0.319786         3    ;  uncertainty k = 0.496923
        10         9         8        13     9      180.000000        0.990976         4    ;  uncertainty k = 0.258596
        10        11        12        13     9        0.000000       -0.563658         1    ;  uncertainty k = 1.052576
        10        11        12        13     9      180.000000        7.918710         2    ;  uncertainty k = 0.880080
        10        11        12        13     9        0.000000        0.146189         3    ;  uncertainty k = 0.303935
        10        11        12        13     9      180.000000        0.889831         4    ;  uncertainty k = 0.388926
        10        11        12        16     9        0.000000        0.176056         1    ;  uncertainty k = 0.453596
        10        11        12        16     9      180.000000        8.243113         2    ;  uncertainty k = 0.257976
        10        11        12        16     9        0.000000       -0.059609         3    ;  uncertainty k = 0.396357
        10        11        12        16     9      180.000000        1.309643         4    ;  uncertainty k = 0.308186
        10        11        14        15     9        0.000000        0.511305         1    ;  uncertainty k = 0.793984
        10        11        14        15     9      180.000000        6.744679         2    ;  uncertainty k = 0.997873
        10        11        14        15     9        0.000000        0.274717         3    ;  uncertainty k = 0.537264
        10        11        14        15     9      180.000000        1.010143         4    ;  uncertainty k = 0.225695
        10        11        14        36     9        0.000000        0.606453         1    ;  uncertainty k = 0.850020
        10        11        14        36     9      180.000000        4.093390         2    ;  uncertainty k = 0.848756
        10        11        14        36     9        0.000000        1.375301         3    ;  uncertainty k = 0.426874
        10        11        14        36     9      180.000000        0.101118         4    ;  uncertainty k = 0.145410
        11        10         9        33     9        0.000000       -0.025946         1    ;  uncertainty k = 0.303009
        11        10         9        33     9      180.000000       11.299048         2    ;  uncertainty k = 0.337051
        11        10         9        33     9        0.000000        1.440131         3    ;  uncertainty k = 0.287190
        11        10         9        33     9      180.000000        1.704245         4    ;  uncertainty k = 0.284573
        11        12        13        35     9        0.000000        0.113361         1    ;  uncertainty k = 0.441544
        11        12        13        35     9      180.000000        6.764951         2    ;  uncertainty k = 0.865473
        11        12        13        35     9        0.000000        1.346687         3    ;  uncertainty k = 0.169660
        11        12        13        35     9      180.000000        1.338700         4    ;  uncertainty k = 0.261595
        11        12        16        15     9        0.000000        0.268811         1    ;  uncertainty k = 0.833799
        11        12        16        15     9      180.000000       14.131316         2    ;  uncertainty k = 0.606105
        11        12        16        15     9        0.000000       -6.512747         3    ;  uncertainty k = 1.135818
        11        12        16        15     9      180.000000        0.929198         4    ;  uncertainty k = 0.439288
        11        12        16        21     9        0.000000        2.277569         1    ;  uncertainty k = 0.770886
        11        12        16        21     9      180.000000        5.178088         2    ;  uncertainty k = 0.354898
        11        12        16        21     9        0.000000        1.568715         3    ;  uncertainty k = 0.279168
        11        12        16        21     9      180.000000        0.176309         4    ;  uncertainty k = 0.114600
        11        14        15        16     9        0.000000       -0.277607         1    ;  uncertainty k = 0.238564
        11        14        15        16     9      180.000000       22.092014         2    ;  uncertainty k = 0.248817
        11        14        15        16     9        0.000000       -6.461113         3    ;  uncertainty k = 0.282795
        11        14        15        16     9      180.000000        1.349535         4    ;  uncertainty k = 0.401228
        11        14        15        37     9        0.000000       -0.004714         1    ;  uncertainty k = 0.396226
        11        14        15        37     9      180.000000       12.360945         2    ;  uncertainty k = 0.135928
        11        14        15        37     9        0.000000        1.866097         3    ;  uncertainty k = 0.177332
        11        14        15        37     9      180.000000        0.972890         4    ;  uncertainty k = 0.182999
        12        11        10        34     9        0.000000        0.124387         1    ;  uncertainty k = 0.373034
        12        11        10        34     9      180.000000        7.210887         2    ;  uncertainty k = 0.881417
        12        11        10        34     9        0.000000        1.401519         3    ;  uncertainty k = 0.369643
        12        11        10        34     9      180.000000        1.163098         4    ;  uncertainty k = 0.413706
        12        11        14        15     9        0.000000        0.450027         1    ;  uncertainty k = 0.908073
        12        11        14        15     9      180.000000       13.173235         2    ;  uncertainty k = 0.776587
        12        11        14        15     9        0.000000      -10.991006         3    ;  uncertainty k = 2.573421
        12        11        14        15     9      180.000000        1.867148         4    ;  uncertainty k = 0.661434
        12        11        14        36     9        0.000000        0.023375         1    ;  uncertainty k = 0.592174
        12        11        14        36     9      180.000000        8.114226         2    ;  uncertainty k = 0.620357
        12        11        14        36     9        0.000000        1.336432         3    ;  uncertainty k = 0.600041
        12        11        14        36     9      180.000000        0.332208         4    ;  uncertainty k = 0.200948
        12        16        15        14     9        0.000000       -0.256602         1    ;  uncertainty k = 0.388703
        12        16        15        14     9      180.000000       15.681418         2    ;  uncertainty k = 0.602078
        12        16        15        14     9        0.000000       -6.396111         3    ;  uncertainty k = 1.656550
        12        16        15        14     9      180.000000        0.936026         4    ;  uncertainty k = 0.391999
        12        16        15        37     9        0.000000        1.176326         1    ;  uncertainty k = 0.849237
        12        16        15        37     9      180.000000        7.035330         2    ;  uncertainty k = 0.660686
        12        16        15        37     9        0.000000        1.598165         3    ;  uncertainty k = 0.299780
        12        16        15        37     9      180.000000        0.164807         4    ;  uncertainty k = 0.100188
        12        16        21        40     9        0.000000       -0.408568         1    ;  uncertainty k = 0.246905
        12        16        21        40     9      180.000000       -1.317196         2    ;  uncertainty k = 0.168942
        12        16        21        40     9        0.000000        1.090647         3    ;  uncertainty k = 0.080702
        12        16        21        40     9      180.000000        0.217211         4    ;  uncertainty k = 0.045154
        12        16        21        41     9        0.000000       -0.408568         1    ;  uncertainty k = 0.246905
        12        16        21        41     9      180.000000       -1.317196         2    ;  uncertainty k = 0.168942
        12        16        21        41     9        0.000000        1.090647         3    ;  uncertainty k = 0.080702
        12        16        21        41     9      180.000000        0.217211         4    ;  uncertainty k = 0.045154
        12        16        21        42     9        0.000000       -0.408568         1    ;  uncertainty k = 0.246905
        12        16        21        42     9      180.000000       -1.317196         2    ;  uncertainty k = 0.168942
        12        16        21        42     9        0.000000        1.090647         3    ;  uncertainty k = 0.080702
        12        16        21        42     9      180.000000        0.217211         4    ;  uncertainty k = 0.045154
        13         8         9        33     9        0.000000        0.170680         1    ;  uncertainty k = 0.094349
        13         8         9        33     9      180.000000        6.588589         2    ;  uncertainty k = 0.576707
        13         8         9        33     9        0.000000        1.389950         3    ;  uncertainty k = 0.140405
        13         8         9        33     9      180.000000        1.590416         4    ;  uncertainty k = 0.228049
        13        12        11        14     9        0.000000        0.110683         1    ;  uncertainty k = 0.560069
        13        12        11        14     9      180.000000        7.680716         2    ;  uncertainty k = 0.276652
        13        12        11        14     9        0.000000        0.240823         3    ;  uncertainty k = 0.430528
        13        12        11        14     9      180.000000        1.182835         4    ;  uncertainty k = 0.239317
        13        12        16        15     9        0.000000        1.096033         1    ;  uncertainty k = 1.298951
        13        12        16        15     9      180.000000        6.112340         2    ;  uncertainty k = 0.742501
        13        12        16        15     9        0.000000        0.700126         3    ;  uncertainty k = 0.193201
        13        12        16        15     9      180.000000        0.290744         4    ;  uncertainty k = 0.152037
        13        12        16        21     9        0.000000        0.381171         1    ;  uncertainty k = 1.813554
        13        12        16        21     9      180.000000        2.830187         2    ;  uncertainty k = 0.478377
        13        12        16        21     9        0.000000        0.849606         3    ;  uncertainty k = 0.419853
        13        12        16        21     9      180.000000        0.083786         4    ;  uncertainty k = 0.135735
        14        11        10        34     9        0.000000        0.105499         1    ;  uncertainty k = 0.553991
        14        11        10        34     9      180.000000        5.639369         2    ;  uncertainty k = 0.488478
        14        11        10        34     9        0.000000        1.044664         3    ;  uncertainty k = 0.341162
        14        11        10        34     9      180.000000        0.711452         4    ;  uncertainty k = 0.362067
        14        11        12        16     9        0.000000       -0.248706         1    ;  uncertainty k = 0.120972
        14        11        12        16     9      180.000000       12.895532         2    ;  uncertainty k = 0.840948
        14        11        12        16     9        0.000000       -3.668924         3    ;  uncertainty k = 1.019109
        14        11        12        16     9      180.000000        1.520072         4    ;  uncertainty k = 0.794284
        14        15        16        21     9        0.000000        1.377314         1    ;  uncertainty k = 0.855302
        14        15        16        21     9      180.000000        8.854296         2    ;  uncertainty k = 0.336077
        14        15        16        21     9        0.000000        1.850755         3    ;  uncertainty k = 0.421572
        14        15        16        21     9      180.000000        0.005711         4    ;  uncertainty k = 0.191906
        15        16        21        40     9        0.000000        0.012373         1    ;  uncertainty k = 0.156207
        15        16        21        40     9      180.000000       -1.304491         2    ;  uncertainty k = 0.215975
        15        16        21        40     9        0.000000        0.598725         3    ;  uncertainty k = 0.126338
        15        16        21        40     9      180.000000        0.181531         4    ;  uncertainty k = 0.051525
        15        16        21        41     9        0.000000        0.012373         1    ;  uncertainty k = 0.156207
        15        16        21        41     9      180.000000       -1.304491         2    ;  uncertainty k = 0.215975
        15        16        21        41     9        0.000000        0.598725         3    ;  uncertainty k = 0.126338
        15        16        21        41     9      180.000000        0.181531         4    ;  uncertainty k = 0.051525
        15        16        21        42     9        0.000000        0.012373         1    ;  uncertainty k = 0.156207
        15        16        21        42     9      180.000000       -1.304491         2    ;  uncertainty k = 0.215975
        15        16        21        42     9        0.000000        0.598725         3    ;  uncertainty k = 0.126338
        15        16        21        42     9      180.000000        0.181531         4    ;  uncertainty k = 0.051525
        16        12        13        35     9        0.000000        0.243928         1    ;  uncertainty k = 0.292556
        16        12        13        35     9      180.000000        5.709933         2    ;  uncertainty k = 0.412052
        16        12        13        35     9        0.000000        1.177664         3    ;  uncertainty k = 0.438420
        16        12        13        35     9      180.000000        0.924567         4    ;  uncertainty k = 0.367001
        16        15        14        36     9        0.000000        0.281182         1    ;  uncertainty k = 0.777506
        16        15        14        36     9      180.000000       14.368325         2    ;  uncertainty k = 0.563599
        16        15        14        36     9        0.000000        1.716577         3    ;  uncertainty k = 0.616570
        16        15        14        36     9      180.000000        0.925073         4    ;  uncertainty k = 0.423264
        17         6         5        20     9        0.000000       -0.400491         1    ;  uncertainty k = 0.890674
        17         6         5        20     9      180.000000        7.087146         2    ;  uncertainty k = 0.720456
        17         6         5        20     9        0.000000        0.077638         3    ;  uncertainty k = 0.327162
        17         6         5        20     9      180.000000        1.330895         4    ;  uncertainty k = 0.356326
        17         6         7        32     9        0.000000        0.139927         1    ;  uncertainty k = 0.233387
        17         6         7        32     9      180.000000        8.199302         2    ;  uncertainty k = 0.492393
        17         6         7        32     9        0.000000        1.032825         3    ;  uncertainty k = 0.329116
        17         6         7        32     9      180.000000        1.219854         4    ;  uncertainty k = 0.291231
        17        18        19        20     9        0.000000       -0.202867         1    ;  uncertainty k = 0.782206
        17        18        19        20     9      180.000000       12.112995         2    ;  uncertainty k = 0.805807
        17        18        19        20     9        0.000000       -1.599825         3    ;  uncertainty k = 0.569696
        17        18        19        20     9      180.000000        0.918171         4    ;  uncertainty k = 0.463987
        17        18        19        39     9        0.000000       -0.033263         1    ;  uncertainty k = 0.634832
        17        18        19        39     9      180.000000        6.504271         2    ;  uncertainty k = 1.136879
        17        18        19        39     9        0.000000        0.521237         3    ;  uncertainty k = 0.433608
        17        18        19        39     9      180.000000        1.070757         4    ;  uncertainty k = 0.343719
        20        19        18        38     9        0.000000        0.036888         1    ;  uncertainty k = 0.700692
        20        19        18        38     9      180.000000        6.513920         2    ;  uncertainty k = 1.135262
        20        19        18        38     9        0.000000        0.521731         3    ;  uncertainty k = 0.385188
        20        19        18        38     9      180.000000        1.117821         4    ;  uncertainty k = 0.330142
        21        16        15        37     9        0.000000       -0.357950         1    ;  uncertainty k = 0.336354
        21        16        15        37     9      180.000000        2.701717         2    ;  uncertainty k = 0.518907
        21        16        15        37     9        0.000000        1.060504         3    ;  uncertainty k = 0.337396
        21        16        15        37     9      180.000000        0.096607         4    ;  uncertainty k = 0.212503
        22        23        24        25     9        0.000000       -0.046406         1    ;  uncertainty k = 0.342186
        22        23        24        25     9      180.000000       10.537332         2    ;  uncertainty k = 0.395088
        22        23        24        25     9        0.000000       -0.667330         3    ;  uncertainty k = 0.511746
        22        23        24        25     9      180.000000        0.980495         4    ;  uncertainty k = 0.316665
        22        23        24        43     9        0.000000        0.273253         1    ;  uncertainty k = 0.196429
        22        23        24        43     9      180.000000        6.960064         2    ;  uncertainty k = 0.820894
        22        23        24        43     9        0.000000        1.298894         3    ;  uncertainty k = 0.279290
        22        23        24        43     9      180.000000        1.502623         4    ;  uncertainty k = 0.279014
        22        23        28        29     9        0.000000        0.000000         1    ;  uncertainty k = 0.000000
        22        23        28        29     9      180.000000        0.000000         2    ;  uncertainty k = 0.000000
        22        23        28        29     9        0.000000        0.000000         3    ;  uncertainty k = 0.000000
        22        23        28        29     9      180.000000        0.000000         4    ;  uncertainty k = 0.000000
        22        27        26        25     9        0.000000        0.182833         1    ;  uncertainty k = 0.159163
        22        27        26        25     9      180.000000       16.365651         2    ;  uncertainty k = 0.210809
        22        27        26        25     9        0.000000        0.917255         3    ;  uncertainty k = 0.562653
        22        27        26        25     9      180.000000        1.496379         4    ;  uncertainty k = 0.166957
        23        22         1        30     9        0.000000        7.309134         1    ;  uncertainty k = 0.549873
        23        22         1        30     9      180.000000        4.530847         2    ;  uncertainty k = 0.636366
        23        22         1        30     9        0.000000        0.500484         3    ;  uncertainty k = 0.288585
        23        22         1        30     9      180.000000       -0.180305         4    ;  uncertainty k = 0.187658
        23        22        27        26     9        0.000000       -0.470614         1    ;  uncertainty k = 0.478331
        23        22        27        26     9      180.000000        7.872202         2    ;  uncertainty k = 0.962196
        23        22        27        26     9        0.000000        0.063321         3    ;  uncertainty k = 0.451778
        23        22        27        26     9      180.000000        1.428963         4    ;  uncertainty k = 0.297525
        23        22        27        45     9        0.000000        0.176418         1    ;  uncertainty k = 0.868749
        23        22        27        45     9      180.000000        5.038460         2    ;  uncertainty k = 0.588826
        23        22        27        45     9        0.000000        1.117005         3    ;  uncertainty k = 0.342972
        23        22        27        45     9      180.000000        1.242529         4    ;  uncertainty k = 0.303753
        23        24        25        26     9        0.000000        0.022658         1    ;  uncertainty k = 0.457030
        23        24        25        26     9      180.000000       15.698515         2    ;  uncertainty k = 0.377079
        23        24        25        26     9        0.000000       -1.171951         3    ;  uncertainty k = 0.693592
        23        24        25        26     9      180.000000        0.944963         4    ;  uncertainty k = 0.309637
        23        24        25        44     9        0.000000       -0.045385         1    ;  uncertainty k = 0.306097
        23        24        25        44     9      180.000000        7.085186         2    ;  uncertainty k = 0.310010
        23        24        25        44     9        0.000000        1.156248         3    ;  uncertainty k = 0.239675
        23        24        25        44     9      180.000000        1.520829         4    ;  uncertainty k = 0.190666
        24        23        22        27     9        0.000000       -0.213770         1    ;  uncertainty k = 0.624670
        24        23        22        27     9      180.000000        5.131190         2    ;  uncertainty k = 1.252463
        24        23        22        27     9        0.000000        0.288283         3    ;  uncertainty k = 0.285556
        24        23        22        27     9      180.000000        1.421326         4    ;  uncertainty k = 0.371849
        24        23        28        29     9        0.000000        0.000000         1    ;  uncertainty k = 0.000000
        24        23        28        29     9      180.000000        0.000000         2    ;  uncertainty k = 0.000000
        24        23        28        29     9        0.000000        0.000000         3    ;  uncertainty k = 0.000000
        24        23        28        29     9      180.000000        0.000000         4    ;  uncertainty k = 0.000000
        24        25        26        27     9        0.000000       -0.547820         1    ;  uncertainty k = 0.519182
        24        25        26        27     9      180.000000       15.098473         2    ;  uncertainty k = 0.501616
        24        25        26        27     9        0.000000        1.086548         3    ;  uncertainty k = 0.612120
        24        25        26        27     9      180.000000        1.217552         4    ;  uncertainty k = 0.121097
        25        24        23        28     9        0.000000        0.192076         1    ;  uncertainty k = 0.262562
        25        24        23        28     9      180.000000       10.310977         2    ;  uncertainty k = 0.358999
        25        24        23        28     9        0.000000        1.158130         3    ;  uncertainty k = 0.318169
        25        24        23        28     9      180.000000        1.496170         4    ;  uncertainty k = 0.199733
        25        26        27        45     9        0.000000        0.461443         1    ;  uncertainty k = 0.547270
        25        26        27        45     9      180.000000       16.352885         2    ;  uncertainty k = 0.497482
        25        26        27        45     9        0.000000        2.332324         3    ;  uncertainty k = 0.308428
        25        26        27        45     9      180.000000        1.577917         4    ;  uncertainty k = 0.371987
        26        25        24        43     9        0.000000       -0.023495         1    ;  uncertainty k = 0.192221
        26        25        24        43     9      180.000000        9.583756         2    ;  uncertainty k = 0.620815
        26        25        24        43     9        0.000000        0.985424         3    ;  uncertainty k = 0.238608
        26        25        24        43     9      180.000000        1.646130         4    ;  uncertainty k = 0.139159
        27        22         1        30     9        0.000000        1.490655         1    ;  uncertainty k = 0.752764
        27        22         1        30     9      180.000000        4.797305         2    ;  uncertainty k = 0.599998
        27        22         1        30     9        0.000000       -0.012410         3    ;  uncertainty k = 0.298339
        27        22         1        30     9      180.000000       -0.211678         4    ;  uncertainty k = 0.196876
        27        22        23        28     9        0.000000        0.251361         1    ;  uncertainty k = 0.384076
        27        22        23        28     9      180.000000        6.566405         2    ;  uncertainty k = 0.555538
        27        22        23        28     9        0.000000        1.127680         3    ;  uncertainty k = 0.134882
        27        22        23        28     9      180.000000        1.495979         4    ;  uncertainty k = 0.263601
        27        26        25        44     9        0.000000        0.125434         1    ;  uncertainty k = 0.495122
        27        26        25        44     9      180.000000       15.106595         2    ;  uncertainty k = 0.412864
        27        26        25        44     9        0.000000        2.186879         3    ;  uncertainty k = 0.498288
        27        26        25        44     9      180.000000        1.411421         4    ;  uncertainty k = 0.248876
        28        23        24        43     9        0.000000       -0.164002         1    ;  uncertainty k = 0.380902
        28        23        24        43     9      180.000000        7.961718         2    ;  uncertainty k = 0.485196
        28        23        24        43     9        0.000000        0.618069         3    ;  uncertainty k = 0.207999
        28        23        24        43     9      180.000000        0.917332         4    ;  uncertainty k = 0.212145
        33         9        10        34     9        0.000000       -0.116208         1    ;  uncertainty k = 0.085773
        33         9        10        34     9      180.000000        7.987768         2    ;  uncertainty k = 0.371552
        33         9        10        34     9        0.000000       -0.214199         3    ;  uncertainty k = 0.235185
        33         9        10        34     9      180.000000        0.260529         4    ;  uncertainty k = 0.235509
        36        14        15        37     9        0.000000       -0.013046         1    ;  uncertainty k = 0.452147
        36        14        15        37     9      180.000000        5.800982         2    ;  uncertainty k = 0.791053
        36        14        15        37     9        0.000000        1.154438         3    ;  uncertainty k = 0.426921
        36        14        15        37     9      180.000000        0.344798         4    ;  uncertainty k = 0.119750
        38        18        19        39     9        0.000000       -0.152652         1    ;  uncertainty k = 0.805688
        38        18        19        39     9      180.000000        5.398108         2    ;  uncertainty k = 0.723626
        38        18        19        39     9        0.000000        0.147470         3    ;  uncertainty k = 0.248173
        38        18        19        39     9      180.000000        0.216442         4    ;  uncertainty k = 0.153410
        43        24        25        44     9        0.000000       -0.245472         1    ;  uncertainty k = 0.381985
        43        24        25        44     9      180.000000        6.856637         2    ;  uncertainty k = 0.255764
        43        24        25        44     9        0.000000       -0.007346         3    ;  uncertainty k = 0.161385
        43        24        25        44     9      180.000000        0.251543         4    ;  uncertainty k = 0.096773

[ dihedrals ] ; impropers
;       ai        aj        ak        al funct           phase               k        pn
         1         2        22        30     4      180.000000        1.560707         2    ;  uncertainty k = 1.022126
         1        22        30         2     4      180.000000        1.560707         2    ;  uncertainty k = 1.022126
         1        30         2        22     4      180.000000        1.560707         2    ;  uncertainty k = 1.022126
         2         1         3         7     4      180.000000       21.046778         2    ;  uncertainty k = 0.029873
         2         3         7         1     4      180.000000       21.046778         2    ;  uncertainty k = 0.029873
         2         7         1         3     4      180.000000       21.046778         2    ;  uncertainty k = 0.029873
         3         2         4        31     4      180.000000        3.046961         2    ;  uncertainty k = 0.375846
         3         4        31         2     4      180.000000        3.046961         2    ;  uncertainty k = 0.375846
         3        31         2         4     4      180.000000        3.046961         2    ;  uncertainty k = 0.375846
         4         3         5         8     4      180.000000       17.976629         2    ;  uncertainty k = 0.099558
         4         5         8         3     4      180.000000       17.976629         2    ;  uncertainty k = 0.099558
         4         8         3         5     4      180.000000       17.976629         2    ;  uncertainty k = 0.099558
         5         4         6        20     4      180.000000       16.619254         2    ;  uncertainty k = 0.086962
         5         6        20         4     4      180.000000       16.619254         2    ;  uncertainty k = 0.086962
         5        20         4         6     4      180.000000       16.619254         2    ;  uncertainty k = 0.086962
         6         5         7        17     4      180.000000       18.442489         2    ;  uncertainty k = 0.055239
         6         7        17         5     4      180.000000       18.442489         2    ;  uncertainty k = 0.055239
         6        17         5         7     4      180.000000       18.442489         2    ;  uncertainty k = 0.055239
         7         2         6        32     4      180.000000        2.532114         2    ;  uncertainty k = 0.377654
         7         6        32         2     4      180.000000        2.532114         2    ;  uncertainty k = 0.377654
         7        32         2         6     4      180.000000        2.532114         2    ;  uncertainty k = 0.377654
         8         4         9        13     4      180.000000       12.719694         2    ;  uncertainty k = 0.169587
         8         9        13         4     4      180.000000       12.719694         2    ;  uncertainty k = 0.169587
         8        13         4         9     4      180.000000       12.719694         2    ;  uncertainty k = 0.169587
         9         8        10        33     4      180.000000        3.145466         2    ;  uncertainty k = 0.234155
         9        10        33         8     4      180.000000        3.145466         2    ;  uncertainty k = 0.234155
         9        33         8        10     4      180.000000        3.145466         2    ;  uncertainty k = 0.234155
        10         9        11        34     4      180.000000        3.905812         2    ;  uncertainty k = 0.125325
        10        11        34         9     4      180.000000        3.905812         2    ;  uncertainty k = 0.125325
        10        34         9        11     4      180.000000        3.905812         2    ;  uncertainty k = 0.125325
        12        11        13        16     4      180.000000        0.447276         2    ;  uncertainty k = 0.540174
        12        13        16        11     4      180.000000        0.447276         2    ;  uncertainty k = 0.540174
        12        16        11        13     4      180.000000        0.447276         2    ;  uncertainty k = 0.540174
        13         8        12        35     4      180.000000        2.774841         2    ;  uncertainty k = 0.245477
        13        12        35         8     4      180.000000        2.774841         2    ;  uncertainty k = 0.245477
        13        35         8        12     4      180.000000        2.774841         2    ;  uncertainty k = 0.245477
        15        14        16        37     4      180.000000        0.796715         2    ;  uncertainty k = 0.335582
        15        16        37        14     4      180.000000        0.796715         2    ;  uncertainty k = 0.335582
        15        37        14        16     4      180.000000        0.796715         2    ;  uncertainty k = 0.335582
        18        17        19        38     4      180.000000       11.948848         2    ;  uncertainty k = 0.101429
        18        19        38        17     4      180.000000       11.948848         2    ;  uncertainty k = 0.101429
        18        38        17        19     4      180.000000       11.948848         2    ;  uncertainty k = 0.101429
        19        18        20        39     4      180.000000       12.058349         2    ;  uncertainty k = 0.155869
        19        20        39        18     4      180.000000       12.058349         2    ;  uncertainty k = 0.155869
        19        39        18        20     4      180.000000       12.058349         2    ;  uncertainty k = 0.155869
        22         1        23        27     4      180.000000       20.147517         2    ;  uncertainty k = 0.122620
        22        23        27         1     4      180.000000       20.147517         2    ;  uncertainty k = 0.122620
        22        27         1        23     4      180.000000       20.147517         2    ;  uncertainty k = 0.122620
        23        22        24        28     4      180.000000        9.302124         2    ;  uncertainty k = 0.207801
        23        24        28        22     4      180.000000        9.302124         2    ;  uncertainty k = 0.207801
        23        28        22        24     4      180.000000        9.302124         2    ;  uncertainty k = 0.207801
        24        23        25        43     4      180.000000        3.831990         2    ;  uncertainty k = 0.271710
        24        25        43        23     4      180.000000        3.831990         2    ;  uncertainty k = 0.271710
        24        43        23        25     4      180.000000        3.831990         2    ;  uncertainty k = 0.271710
        25        24        26        44     4      180.000000       12.034683         2    ;  uncertainty k = 0.073882
        25        26        44        24     4      180.000000       12.034683         2    ;  uncertainty k = 0.073882
        25        44        24        26     4      180.000000       12.034683         2    ;  uncertainty k = 0.073882
        27        22        26        45     4      180.000000       10.741434         2    ;  uncertainty k = 0.155417
        27        26        45        22     4      180.000000       10.741434         2    ;  uncertainty k = 0.155417
        27        45        22        26     4      180.000000       10.741434         2    ;  uncertainty k = 0.155417

[ pairs ]
;       ai        aj funct
         1         4     1
         1         6     1
         1        24     1
         1        26     1
         1        28     1
         1        31     1
         1        32     1
         1        45     1
         2         5     1
         2         8     1
         2        17     1
         2        23     1
         2        27     1
         3         6     1
         3         9     1
         3        13     1
         3        20     1
         3        22     1
         3        30     1
         3        32     1
         4         7     1
         4        10     1
         4        12     1
         4        17     1
         4        19     1
         4        33     1
         4        35     1
         5         9     1
         5        13     1
         5        18     1
         5        31     1
         5        32     1
         5        39     1
         6         8     1
         6        19     1
         6        38     1
         7        18     1
         7        20     1
         7        22     1
         7        30     1
         7        31     1
         8        11     1
         8        16     1
         8        20     1
         8        31     1
         8        34     1
         9        12     1
         9        14     1
         9        35     1
        10        13     1
        10        15     1
        10        16     1
        10        36     1
        11        21     1
        11        33     1
        11        35     1
        11        37     1
        12        34     1
        12        36     1
        12        37     1
        12        40     1
        12        41     1
        12        42     1
        13        14     1
        13        15     1
        13        21     1
        13        33     1
        14        21     1
        14        34     1
        15        40     1
        15        41     1
        15        42     1
        16        35     1
        16        36     1
        17        20     1
        17        32     1
        17        39     1
        20        38     1
        21        37     1
        22        25     1
        22        29     1
        22        43     1
        23        26     1
        23        30     1
        23        44     1
        23        45     1
        24        27     1
        24        29     1
        25        28     1
        25        45     1
        26        43     1
        27        28     1
        27        30     1
        27        44     1
        28        43     1
        33        34     1
        36        37     1
        38        39     1
        43        44     1
