; ITP file created by ByteFF-joint-25, 2026-02-17 09:28:12.641766

[ atomtypes ]
;name           bonded.type        at.num        mass        charge   ptype           sigma         epsilon
 c0bf                                   6      0.0000       0.00000       A     3.31509e-01     4.13539e-01    ;  uncertainty sigma = 0.000009, epsilon = 0.000465
 c1bf                                   6      0.0000       0.00000       A     3.31549e-01     4.13719e-01    ;  uncertainty sigma = 0.000013, epsilon = 0.001589
 c2bf                                   6      0.0000       0.00000       A     3.31496e-01     4.13470e-01    ;  uncertainty sigma = 0.000006, epsilon = 0.000742
 c3bf                                   6      0.0000       0.00000       A     3.31488e-01     4.12665e-01    ;  uncertainty sigma = 0.000011, epsilon = 0.000854
 c4bf                                   6      0.0000       0.00000       A     3.31519e-01     4.13020e-01    ;  uncertainty sigma = 0.000010, epsilon = 0.001115
 c5bf                                   6      0.0000       0.00000       A     3.31516e-01     4.13470e-01    ;  uncertainty sigma = 0.000011, epsilon = 0.000986
 n6bf                                   7      0.0000       0.00000       A     3.38414e-01     3.93827e-01    ;  uncertainty sigma = 0.000003, epsilon = 0.000862
 n7bf                                   7      0.0000       0.00000       A     3.38415e-01     3.93854e-01    ;  uncertainty sigma = 0.000010, epsilon = 0.001066
 c8bf                                   6      0.0000       0.00000       A     3.31531e-01     4.13178e-01    ;  uncertainty sigma = 0.000013, epsilon = 0.000482
 c9bf                                   6      0.0000       0.00000       A     3.31530e-01     4.13238e-01    ;  uncertainty sigma = 0.000010, epsilon = 0.000599
 n10bf                                  7      0.0000       0.00000       A     3.27909e-01     6.48597e-01    ;  uncertainty sigma = 0.000056, epsilon = 0.004468
 c11bf                                  6      0.0000       0.00000       A     3.31492e-01     4.13019e-01    ;  uncertainty sigma = 0.000020, epsilon = 0.000990
 c12bf                                  6      0.0000       0.00000       A     3.31520e-01     4.13276e-01    ;  uncertainty sigma = 0.000004, epsilon = 0.000572
 c13bf                                  6      0.0000       0.00000       A     3.31527e-01     4.13211e-01    ;  uncertainty sigma = 0.000005, epsilon = 0.000881
 c14bf                                  6      0.0000       0.00000       A     3.31520e-01     4.13329e-01    ;  uncertainty sigma = 0.000004, epsilon = 0.000805
 c15bf                                  6      0.0000       0.00000       A     3.31522e-01     4.13356e-01    ;  uncertainty sigma = 0.000007, epsilon = 0.000813
 c16bf                                  6      0.0000       0.00000       A     3.31521e-01     4.13081e-01    ;  uncertainty sigma = 0.000007, epsilon = 0.000493
 c17bf                                  6      0.0000       0.00000       A     3.31516e-01     4.13261e-01    ;  uncertainty sigma = 0.000006, epsilon = 0.000450
 c18bf                                  6      0.0000       0.00000       A     3.31521e-01     4.12984e-01    ;  uncertainty sigma = 0.000005, epsilon = 0.000844
 n19bf                                  7      0.0000       0.00000       A     3.20630e-01     8.53726e-01    ;  uncertainty sigma = 0.000021, epsilon = 0.000808
 c20bf                                  6      0.0000       0.00000       A     3.31536e-01     4.12822e-01    ;  uncertainty sigma = 0.000020, epsilon = 0.001780
 c21bf                                  6      0.0000       0.00000       A     3.39777e-01     4.51126e-01    ;  uncertainty sigma = 0.000006, epsilon = 0.000488
 c22bf                                  6      0.0000       0.00000       A     3.31549e-01     4.13225e-01    ;  uncertainty sigma = 0.000016, epsilon = 0.000818
 c23bf                                  6      0.0000       0.00000       A     3.31530e-01     4.13825e-01    ;  uncertainty sigma = 0.000015, epsilon = 0.001462
 c24bf                                  6      0.0000       0.00000       A     3.31516e-01     4.13197e-01    ;  uncertainty sigma = 0.000010, epsilon = 0.000578
 n25bf                                  7      0.0000       0.00000       A     3.38413e-01     3.93789e-01    ;  uncertainty sigma = 0.000010, epsilon = 0.000875
 c26bf                                  6      0.0000       0.00000       A     3.31486e-01     4.12930e-01    ;  uncertainty sigma = 0.000023, epsilon = 0.000894
 c27bf                                  6      0.0000       0.00000       A     3.31546e-01     4.13021e-01    ;  uncertainty sigma = 0.000039, epsilon = 0.000662
 n28bf                                  7      0.0000       0.00000       A     3.36058e-01     3.53914e-01    ;  uncertainty sigma = 0.000035, epsilon = 0.002199
 o29bf                                  8      0.0000       0.00000       A     3.04824e-01     6.12665e-01    ;  uncertainty sigma = 0.000020, epsilon = 0.001529
 h30bf                                  1      0.0000       0.00000       A     2.62540e-01     6.71221e-02    ;  uncertainty sigma = 0.000022, epsilon = 0.000645
 h31bf                                  1      0.0000       0.00000       A     2.62566e-01     6.71158e-02    ;  uncertainty sigma = 0.000015, epsilon = 0.000400
 h32bf                                  1      0.0000       0.00000       A     2.53628e-01     6.69333e-02    ;  uncertainty sigma = 0.000020, epsilon = 0.000763
 h33bf                                  1      0.0000       0.00000       A     2.53628e-01     6.69333e-02    ;  uncertainty sigma = 0.000020, epsilon = 0.000763
 h34bf                                  1      0.0000       0.00000       A     1.10702e-01     4.11300e-02    ;  uncertainty sigma = 0.000124, epsilon = 0.001653
 h35bf                                  1      0.0000       0.00000       A     2.62563e-01     6.70733e-02    ;  uncertainty sigma = 0.000010, epsilon = 0.000583
 h36bf                                  1      0.0000       0.00000       A     2.62569e-01     6.69122e-02    ;  uncertainty sigma = 0.000009, epsilon = 0.000334
 h37bf                                  1      0.0000       0.00000       A     2.62578e-01     6.73015e-02    ;  uncertainty sigma = 0.000018, epsilon = 0.000492
 h38bf                                  1      0.0000       0.00000       A     2.62543e-01     6.72781e-02    ;  uncertainty sigma = 0.000012, epsilon = 0.000446
 h39bf                                  1      0.0000       0.00000       A     2.53669e-01     6.69808e-02    ;  uncertainty sigma = 0.000019, epsilon = 0.000693
 h40bf                                  1      0.0000       0.00000       A     2.42192e-01     8.67346e-02    ;  uncertainty sigma = 0.000017, epsilon = 0.000545
 h41bf                                  1      0.0000       0.00000       A     2.42192e-01     8.67346e-02    ;  uncertainty sigma = 0.000017, epsilon = 0.000545
 h42bf                                  1      0.0000       0.00000       A     2.42192e-01     8.67346e-02    ;  uncertainty sigma = 0.000017, epsilon = 0.000545
 h43bf                                  1      0.0000       0.00000       A     2.62547e-01     6.70763e-02    ;  uncertainty sigma = 0.000010, epsilon = 0.000644
 h44bf                                  1      0.0000       0.00000       A     2.53633e-01     6.70627e-02    ;  uncertainty sigma = 0.000012, epsilon = 0.000390
 h45bf                                  1      0.0000       0.00000       A     2.53634e-01     6.70187e-02    ;  uncertainty sigma = 0.000039, epsilon = 0.000562
 h46bf                                  1      0.0000       0.00000       A     1.10644e-01     4.14125e-02    ;  uncertainty sigma = 0.000051, epsilon = 0.000340
 h47bf                                  1      0.0000       0.00000       A     1.10644e-01     4.14125e-02    ;  uncertainty sigma = 0.000051, epsilon = 0.000340

[ moleculetype ]
;name             nrexcl
 MOL                   3

[ atoms ]
;       nr            type      resi   res      atom      cgnr      charge          mass ; qtot
         1            c0bf         1   UNL        c0         1    -0.22749       12.0110 ; qtot   -0.227
         2            c1bf         1   UNL        c1         2     0.18123       12.0110 ; qtot   -0.046
         3            c2bf         1   UNL        c2         3    -0.16302       12.0110 ; qtot   -0.209
         4            c3bf         1   UNL        c3         4    -0.02411       12.0110 ; qtot   -0.233
         5            c4bf         1   UNL        c4         5     0.27545       12.0110 ; qtot    0.042
         6            c5bf         1   UNL        c5         6     0.32361       12.0110 ; qtot    0.366
         7            n6bf         1   UNL        n6         7    -0.62862       14.0070 ; qtot   -0.263
         8            n7bf         1   UNL        n7         8    -0.61815       14.0070 ; qtot   -0.881
         9            c8bf         1   UNL        c8         9     0.29560       12.0110 ; qtot   -0.586
        10            c9bf         1   UNL        c9        10     0.29621       12.0110 ; qtot   -0.289
        11           n10bf         1   UNL       n10        11    -0.65551       14.0070 ; qtot   -0.945
        12           c11bf         1   UNL       c11        12    -0.02479       12.0110 ; qtot   -0.970
        13           c12bf         1   UNL       c12        13    -0.13841       12.0110 ; qtot   -1.108
        14           c13bf         1   UNL       c13        14    -0.08699       12.0110 ; qtot   -1.195
        15           c14bf         1   UNL       c14        15    -0.09144       12.0110 ; qtot   -1.286
        16           c15bf         1   UNL       c15        16    -0.05127       12.0110 ; qtot   -1.338
        17           c16bf         1   UNL       c16        17    -0.12505       12.0110 ; qtot   -1.463
        18           c17bf         1   UNL       c17        18    -0.19068       12.0110 ; qtot   -1.653
        19           c18bf         1   UNL       c18        19    -0.10251       12.0110 ; qtot   -1.756
        20           n19bf         1   UNL       n19        20    -0.07889       14.0070 ; qtot   -1.835
        21           c20bf         1   UNL       c20        21     0.11509       12.0110 ; qtot   -1.720
        22           c21bf         1   UNL       c21        22     0.03587       12.0110 ; qtot   -1.684
        23           c22bf         1   UNL       c22        23    -0.19022       12.0110 ; qtot   -1.874
        24           c23bf         1   UNL       c23        24    -0.18188       12.0110 ; qtot   -2.056
        25           c24bf         1   UNL       c24        25     0.35485       12.0110 ; qtot   -1.701
        26           n25bf         1   UNL       n25        26    -0.61575       14.0070 ; qtot   -2.317
        27           c26bf         1   UNL       c26        27     0.33868       12.0110 ; qtot   -1.978
        28           c27bf         1   UNL       c27        28     0.67021       12.0110 ; qtot   -1.308
        29           n28bf         1   UNL       n28        29    -0.64914       14.0070 ; qtot   -1.957
        30           o29bf         1   UNL       o29        30    -0.61325       15.9990 ; qtot   -2.570
        31           h30bf         1   UNL       h30        31     0.15776        1.0080 ; qtot   -2.413
        32           h31bf         1   UNL       h31        32     0.14719        1.0080 ; qtot   -2.265
        33           h32bf         1   UNL       h32        33     0.03380        1.0080 ; qtot   -2.232
        34           h33bf         1   UNL       h33        34     0.03331        1.0080 ; qtot   -2.198
        35           h34bf         1   UNL       h34        35     0.47942        1.0080 ; qtot   -1.719
        36           h35bf         1   UNL       h35        36     0.13697        1.0080 ; qtot   -1.582
        37           h36bf         1   UNL       h36        37     0.13662        1.0080 ; qtot   -1.445
        38           h37bf         1   UNL       h37        38     0.13971        1.0080 ; qtot   -1.306
        39           h38bf         1   UNL       h38        39     0.15551        1.0080 ; qtot   -1.150
        40           h39bf         1   UNL       h39        40     0.16110        1.0080 ; qtot   -0.989
        41           h40bf         1   UNL       h40        41     0.04975        1.0080 ; qtot   -0.939
        42           h41bf         1   UNL       h41        42     0.04975        1.0080 ; qtot   -0.889
        43           h42bf         1   UNL       h42        43     0.04975        1.0080 ; qtot   -0.840
        44           h43bf         1   UNL       h43        44     0.15353        1.0080 ; qtot   -0.686
        45           h44bf         1   UNL       h44        45     0.02766        1.0080 ; qtot   -0.659
        46           h45bf         1   UNL       h45        46     0.03379        1.0080 ; qtot   -0.625
        47           h46bf         1   UNL       h46        47     0.31237        1.0080 ; qtot   -0.312
        48           h47bf         1   UNL       h47        48     0.31238        1.0080 ; qtot    0.000

[ bonds ]
;       ai        aj funct               r               k
         1         2     1        0.138845   382362.388770    ;  uncertainty r = 0.000130, k = 8.759529
         1         6     1        0.141431   396079.468311    ;  uncertainty r = 0.000094, k = 15.205670
         1        31     1        0.108811   340366.765625    ;  uncertainty r = 0.000031, k = 1.855831
         2         3     1        0.142087   351324.279590    ;  uncertainty r = 0.000215, k = 13.498721
         2        11     1        0.140843   349935.494971    ;  uncertainty r = 0.000219, k = 9.112475
         3         4     1        0.138000   347495.985986    ;  uncertainty r = 0.000143, k = 17.234335
         3        32     1        0.108883   338510.268848    ;  uncertainty r = 0.000020, k = 3.739164
         4         5     1        0.143085   310245.234375    ;  uncertainty r = 0.000128, k = 17.466674
         4        12     1        0.148137   283751.862402    ;  uncertainty r = 0.000105, k = 15.453581
         5         6     1        0.142995   298655.600342    ;  uncertainty r = 0.000072, k = 15.498948
         5         8     1        0.135767   353109.910889    ;  uncertainty r = 0.000088, k = 12.675249
         6         7     1        0.136382   355171.598340    ;  uncertainty r = 0.000057, k = 8.738544
         7        10     1        0.131606   448634.967090    ;  uncertainty r = 0.000067, k = 6.059784
         8         9     1        0.131584   437137.956152    ;  uncertainty r = 0.000061, k = 11.801030
         9        10     1        0.141378   325245.374902    ;  uncertainty r = 0.000067, k = 16.241067
         9        33     1        0.109180   341408.015723    ;  uncertainty r = 0.000031, k = 1.111543
        10        34     1        0.109175   341608.175586    ;  uncertainty r = 0.000026, k = 2.358932
        11        21     1        0.139156   338054.380371    ;  uncertainty r = 0.000224, k = 3.820647
        11        35     1        0.101437   406579.638184    ;  uncertainty r = 0.000168, k = 4.614128
        12        13     1        0.141773   332885.056543    ;  uncertainty r = 0.000129, k = 5.382996
        12        17     1        0.139578   348941.182080    ;  uncertainty r = 0.000096, k = 3.247029
        13        14     1        0.138795   364168.909326    ;  uncertainty r = 0.000031, k = 1.854519
        13        36     1        0.108772   335281.433350    ;  uncertainty r = 0.000023, k = 2.010175
        14        15     1        0.140496   366588.397217    ;  uncertainty r = 0.000029, k = 1.524532
        14        37     1        0.108842   335262.663574    ;  uncertainty r = 0.000021, k = 1.243212
        15        16     1        0.142478   370413.039014    ;  uncertainty r = 0.000021, k = 8.656161
        15        18     1        0.143851   263887.924023    ;  uncertainty r = 0.000049, k = 9.849667
        16        17     1        0.139638   360882.589795    ;  uncertainty r = 0.000073, k = 8.112562
        16        20     1        0.138409   299089.858887    ;  uncertainty r = 0.000058, k = 4.369587
        17        38     1        0.108815   335784.335645    ;  uncertainty r = 0.000035, k = 1.319572
        18        19     1        0.137643   438880.659570    ;  uncertainty r = 0.000039, k = 2.390634
        18        39     1        0.108258   339903.777832    ;  uncertainty r = 0.000020, k = 1.257353
        19        20     1        0.138800   299198.136230    ;  uncertainty r = 0.000053, k = 11.566369
        19        40     1        0.108278   339863.020605    ;  uncertainty r = 0.000024, k = 2.230051
        20        22     1        0.145040   254644.665137    ;  uncertainty r = 0.000030, k = 4.755567
        21        23     1        0.141459   332524.089502    ;  uncertainty r = 0.000136, k = 15.039118
        21        27     1        0.140944   335115.237842    ;  uncertainty r = 0.000213, k = 10.224295
        22        41     1        0.109426   310040.631055    ;  uncertainty r = 0.000012, k = 1.344889
        22        42     1        0.109426   310040.631055    ;  uncertainty r = 0.000012, k = 1.344889
        22        43     1        0.109426   310040.579980    ;  uncertainty r = 0.000012, k = 1.344857
        23        24     1        0.139607   367603.344092    ;  uncertainty r = 0.000142, k = 11.722494
        23        28     1        0.149208   243047.089062    ;  uncertainty r = 0.000128, k = 25.059353
        24        25     1        0.139169   363446.643262    ;  uncertainty r = 0.000100, k = 6.796706
        24        44     1        0.108744   335590.355762    ;  uncertainty r = 0.000043, k = 1.018994
        25        26     1        0.133882   393790.755957    ;  uncertainty r = 0.000054, k = 4.241367
        25        45     1        0.109026   338785.099219    ;  uncertainty r = 0.000019, k = 1.511766
        26        27     1        0.132606   386272.835254    ;  uncertainty r = 0.000101, k = 7.919662
        27        46     1        0.108940   334389.039062    ;  uncertainty r = 0.000075, k = 2.051975
        28        29     1        0.138674   506649.048535    ;  uncertainty r = 0.000130, k = 15.472909
        28        30     1        0.124621   850736.826367    ;  uncertainty r = 0.000114, k = 17.564888
        29        47     1        0.101653   427755.290186    ;  uncertainty r = 0.000052, k = 3.050496
        29        48     1        0.101653   427755.290186    ;  uncertainty r = 0.000052, k = 3.050496

[ angles ]
;       ai        aj        ak funct           theta             cth
         1         2         3     1      119.313034      387.945401    ;  uncertainty theta = 0.003928, k = 0.073699
         1         2        11     1      121.971436      487.603332    ;  uncertainty theta = 0.006594, k = 0.192356
         1         6         5     1      119.517235      392.036797    ;  uncertainty theta = 0.005326, k = 0.191059
         1         6         7     1      122.312637      528.712396    ;  uncertainty theta = 0.003351, k = 0.210335
         2         1         6     1      118.258041      519.489094    ;  uncertainty theta = 0.002320, k = 0.069528
         2         1        31     1      121.472092      270.295619    ;  uncertainty theta = 0.001195, k = 0.144454
         2         3         4     1      122.387405      516.194169    ;  uncertainty theta = 0.004388, k = 0.262711
         2         3        32     1      119.421829      285.355012    ;  uncertainty theta = 0.005100, k = 0.137947
         2        11        21     1      115.128807      394.588912    ;  uncertainty theta = 0.005974, k = 0.185895
         2        11        35     1      115.857620      376.445913    ;  uncertainty theta = 0.007533, k = 0.216812
         3         2        11     1      120.215759      494.664534    ;  uncertainty theta = 0.003256, k = 0.199840
         3         4         5     1      121.234207      456.906322    ;  uncertainty theta = 0.004548, k = 0.137789
         3         4        12     1      121.228798      423.141028    ;  uncertainty theta = 0.002961, k = 0.156452
         4         3        32     1      118.704933      277.851890    ;  uncertainty theta = 0.005306, k = 0.050256
         4         5         6     1      120.727844      398.377566    ;  uncertainty theta = 0.005688, k = 0.083900
         4         5         8     1      118.059143      466.719084    ;  uncertainty theta = 0.004200, k = 0.232797
         4        12        13     1      119.939163      397.252815    ;  uncertainty theta = 0.003248, k = 0.114583
         4        12        17     1      119.830284      387.483818    ;  uncertainty theta = 0.002251, k = 0.190078
         5         4        12     1      119.335999      396.188588    ;  uncertainty theta = 0.004435, k = 0.267308
         5         6         7     1      119.243858      555.279545    ;  uncertainty theta = 0.007472, k = 0.086368
         5         8         9     1      116.502525      472.887605    ;  uncertainty theta = 0.004302, k = 0.130226
         6         1        31     1      120.837975      275.673543    ;  uncertainty theta = 0.003390, k = 0.103595
         6         5         8     1      119.722855      514.456752    ;  uncertainty theta = 0.004269, k = 0.061580
         6         7        10     1      114.458984      488.266148    ;  uncertainty theta = 0.001996, k = 0.147683
         7        10         9     1      120.931259      612.842998    ;  uncertainty theta = 0.002470, k = 0.239696
         7        10        34     1      116.754013      350.159800    ;  uncertainty theta = 0.001533, k = 0.075385
         8         9        10     1      121.240555      622.447314    ;  uncertainty theta = 0.002919, k = 0.205880
         8         9        33     1      116.813492      347.959523    ;  uncertainty theta = 0.001638, k = 0.087624
         9        10        34     1      121.868530      283.534439    ;  uncertainty theta = 0.002376, k = 0.096063
        10         9        33     1      121.994606      282.804174    ;  uncertainty theta = 0.002439, k = 0.090842
        11        21        23     1      120.881363      525.000641    ;  uncertainty theta = 0.005612, k = 0.279948
        11        21        27     1      117.839401      430.732189    ;  uncertainty theta = 0.004022, k = 0.329638
        12        13        14     1      122.513977      519.825227    ;  uncertainty theta = 0.002504, k = 0.082970
        12        13        36     1      118.705055      283.822243    ;  uncertainty theta = 0.003481, k = 0.052326
        12        17        16     1      118.386093      529.920716    ;  uncertainty theta = 0.003401, k = 0.180792
        12        17        38     1      120.176918      276.179305    ;  uncertainty theta = 0.003371, k = 0.099806
        13        12        17     1      122.892189      427.495488    ;  uncertainty theta = 0.004657, k = 0.054030
        13        14        15     1      119.126968      545.225329    ;  uncertainty theta = 0.002014, k = 0.075473
        13        14        37     1      120.552231      281.882188    ;  uncertainty theta = 0.001756, k = 0.032676
        14        13        36     1      119.644821      296.182906    ;  uncertainty theta = 0.002811, k = 0.056213
        14        15        16     1      116.316528      401.555212    ;  uncertainty theta = 0.003524, k = 0.104666
        14        15        18     1      133.137314      372.613048    ;  uncertainty theta = 0.003601, k = 0.161997
        15        14        37     1      121.660202      297.421073    ;  uncertainty theta = 0.001725, k = 0.098896
        15        16        17     1      122.096420      362.937197    ;  uncertainty theta = 0.001381, k = 0.132828
        15        16        20     1      108.699356      659.259248    ;  uncertainty theta = 0.001396, k = 0.199015
        15        18        19     1      106.600060      811.238758    ;  uncertainty theta = 0.002477, k = 0.071833
        15        18        39     1      125.357811      254.842571    ;  uncertainty theta = 0.003088, k = 0.059342
        16        15        18     1      106.331848      697.004628    ;  uncertainty theta = 0.002119, k = 0.268284
        16        17        38     1      122.049515      289.470477    ;  uncertainty theta = 0.001404, k = 0.108597
        16        20        19     1      107.260864      818.300726    ;  uncertainty theta = 0.002708, k = 0.112517
        16        20        22     1      120.714661      413.315913    ;  uncertainty theta = 0.003757, k = 0.146507
        17        16        20     1      127.554398      386.261612    ;  uncertainty theta = 0.001561, k = 0.197526
        18        19        20     1      111.357628      756.000331    ;  uncertainty theta = 0.002253, k = 0.100899
        18        19        40     1      128.154099      239.476972    ;  uncertainty theta = 0.003447, k = 0.106541
        19        18        39     1      123.663986      251.202927    ;  uncertainty theta = 0.003182, k = 0.069917
        19        20        22     1      121.539627      391.310362    ;  uncertainty theta = 0.002440, k = 0.111857
        20        19        40     1      117.041054      288.340843    ;  uncertainty theta = 0.001716, k = 0.115275
        20        22        41     1      109.087296      471.938965    ;  uncertainty theta = 0.000901, k = 0.078971
        20        22        42     1      109.087296      471.938965    ;  uncertainty theta = 0.000901, k = 0.078971
        20        22        43     1      109.087296      471.938965    ;  uncertainty theta = 0.000901, k = 0.078971
        21        11        35     1      115.569359      378.471995    ;  uncertainty theta = 0.007886, k = 0.273189
        21        23        24     1      121.001244      446.871419    ;  uncertainty theta = 0.005147, k = 0.205617
        21        23        28     1      118.872787      402.238776    ;  uncertainty theta = 0.006634, k = 0.218939
        21        27        26     1      125.108055      674.185050    ;  uncertainty theta = 0.003085, k = 0.123292
        21        27        46     1      119.070862      260.910859    ;  uncertainty theta = 0.007328, k = 0.176991
        23        21        27     1      120.943092      362.479349    ;  uncertainty theta = 0.005894, k = 0.297417
        23        24        25     1      120.782494      489.359264    ;  uncertainty theta = 0.003893, k = 0.056353
        23        24        44     1      119.015846      253.677552    ;  uncertainty theta = 0.005146, k = 0.094822
        23        28        29     1      115.119835      465.175398    ;  uncertainty theta = 0.004673, k = 0.219596
        23        28        30     1      124.580788      520.086727    ;  uncertainty theta = 0.003936, k = 0.084028
        24        23        28     1      118.445267      400.473907    ;  uncertainty theta = 0.004830, k = 0.190221
        24        25        26     1      122.348656      697.358573    ;  uncertainty theta = 0.002009, k = 0.035923
        24        25        45     1      120.735146      280.598119    ;  uncertainty theta = 0.001366, k = 0.074414
        25        24        44     1      121.438072      285.210121    ;  uncertainty theta = 0.004228, k = 0.092162
        25        26        27     1      116.986267      433.241753    ;  uncertainty theta = 0.000873, k = 0.172993
        26        25        45     1      116.694336      340.732808    ;  uncertainty theta = 0.002537, k = 0.060139
        26        27        46     1      116.749062      349.448975    ;  uncertainty theta = 0.004144, k = 0.095967
        28        29        47     1      116.562355      314.857811    ;  uncertainty theta = 0.001643, k = 0.096470
        28        29        48     1      116.562355      314.857811    ;  uncertainty theta = 0.001643, k = 0.096470
        29        28        30     1      126.860558      893.240715    ;  uncertainty theta = 0.004217, k = 0.063089
        41        22        42     1      107.317055      322.193856    ;  uncertainty theta = 0.001017, k = 0.038184
        41        22        43     1      107.317055      322.193856    ;  uncertainty theta = 0.001017, k = 0.038184
        42        22        43     1      107.317055      322.193856    ;  uncertainty theta = 0.001017, k = 0.038184
        47        29        48     1      109.834618      265.993478    ;  uncertainty theta = 0.001915, k = 0.057416

[ dihedrals ] ; propers for gromacs 4.5 or higher, use funct 9
;       ai        aj        ak        al funct           phase               k        pn
         1         2         3         4     9        0.000000       -0.072200         1    ;  uncertainty k = 0.338323
         1         2         3         4     9      180.000000        6.131095         2    ;  uncertainty k = 0.985506
         1         2         3         4     9        0.000000        0.315101         3    ;  uncertainty k = 0.206586
         1         2         3         4     9      180.000000        1.352221         4    ;  uncertainty k = 0.324244
         1         2         3        32     9        0.000000        0.263123         1    ;  uncertainty k = 0.398271
         1         2         3        32     9      180.000000        5.899054         2    ;  uncertainty k = 0.877097
         1         2         3        32     9        0.000000        1.137785         3    ;  uncertainty k = 0.155590
         1         2         3        32     9      180.000000        1.431260         4    ;  uncertainty k = 0.270209
         1         2        11        21     9        0.000000        2.537811         1    ;  uncertainty k = 1.053803
         1         2        11        21     9      180.000000        6.070860         2    ;  uncertainty k = 0.263231
         1         2        11        21     9        0.000000        0.180991         3    ;  uncertainty k = 0.393290
         1         2        11        21     9      180.000000        0.067180         4    ;  uncertainty k = 0.118022
         1         2        11        35     9        0.000000        3.825043         1    ;  uncertainty k = 1.134000
         1         2        11        35     9      180.000000        4.717699         2    ;  uncertainty k = 0.081948
         1         2        11        35     9        0.000000        0.499132         3    ;  uncertainty k = 0.237480
         1         2        11        35     9      180.000000       -0.062667         4    ;  uncertainty k = 0.068960
         1         6         5         4     9        0.000000       -0.713080         1    ;  uncertainty k = 0.521879
         1         6         5         4     9      180.000000        4.611688         2    ;  uncertainty k = 1.535208
         1         6         5         4     9        0.000000        0.274756         3    ;  uncertainty k = 0.299130
         1         6         5         4     9      180.000000        1.240053         4    ;  uncertainty k = 0.359772
         1         6         5         8     9        0.000000        0.076450         1    ;  uncertainty k = 0.284767
         1         6         5         8     9      180.000000        6.080416         2    ;  uncertainty k = 1.149880
         1         6         5         8     9        0.000000        0.106983         3    ;  uncertainty k = 0.156574
         1         6         5         8     9      180.000000        1.373586         4    ;  uncertainty k = 0.405208
         1         6         7        10     9        0.000000        0.427932         1    ;  uncertainty k = 1.029214
         1         6         7        10     9      180.000000       12.638436         2    ;  uncertainty k = 0.318597
         1         6         7        10     9        0.000000        2.227131         3    ;  uncertainty k = 0.470956
         1         6         7        10     9      180.000000        1.437848         4    ;  uncertainty k = 0.260470
         2         1         6         5     9        0.000000        0.105135         1    ;  uncertainty k = 0.418475
         2         1         6         5     9      180.000000        7.191563         2    ;  uncertainty k = 0.789205
         2         1         6         5     9        0.000000        0.049939         3    ;  uncertainty k = 0.294354
         2         1         6         5     9      180.000000        1.295638         4    ;  uncertainty k = 0.268741
         2         1         6         7     9        0.000000        0.136753         1    ;  uncertainty k = 0.440374
         2         1         6         7     9      180.000000        9.791260         2    ;  uncertainty k = 0.369426
         2         1         6         7     9        0.000000        0.575117         3    ;  uncertainty k = 0.280229
         2         1         6         7     9      180.000000        1.391654         4    ;  uncertainty k = 0.236423
         2         3         4         5     9        0.000000        0.010976         1    ;  uncertainty k = 0.540390
         2         3         4         5     9      180.000000       12.474205         2    ;  uncertainty k = 0.424703
         2         3         4         5     9        0.000000        0.363049         3    ;  uncertainty k = 0.231701
         2         3         4         5     9      180.000000        1.278471         4    ;  uncertainty k = 0.330163
         2         3         4        12     9        0.000000        0.182524         1    ;  uncertainty k = 0.203744
         2         3         4        12     9      180.000000       10.393594         2    ;  uncertainty k = 0.626757
         2         3         4        12     9        0.000000        1.350308         3    ;  uncertainty k = 0.272442
         2         3         4        12     9      180.000000        1.715330         4    ;  uncertainty k = 0.283684
         2        11        21        23     9        0.000000        2.999914         1    ;  uncertainty k = 0.940996
         2        11        21        23     9      180.000000        7.361983         2    ;  uncertainty k = 0.569205
         2        11        21        23     9        0.000000        0.074280         3    ;  uncertainty k = 0.200651
         2        11        21        23     9      180.000000        0.054392         4    ;  uncertainty k = 0.094973
         2        11        21        27     9        0.000000        4.053853         1    ;  uncertainty k = 1.655335
         2        11        21        27     9      180.000000        5.628783         2    ;  uncertainty k = 0.298003
         2        11        21        27     9        0.000000        0.451341         3    ;  uncertainty k = 0.208398
         2        11        21        27     9      180.000000       -0.008440         4    ;  uncertainty k = 0.170898
         3         2         1         6     9        0.000000       -0.211594         1    ;  uncertainty k = 0.214604
         3         2         1         6     9      180.000000        9.630247         2    ;  uncertainty k = 0.297096
         3         2         1         6     9        0.000000        0.341139         3    ;  uncertainty k = 0.475048
         3         2         1         6     9      180.000000        1.370725         4    ;  uncertainty k = 0.295311
         3         2         1        31     9        0.000000        0.283457         1    ;  uncertainty k = 0.412718
         3         2         1        31     9      180.000000        6.985914         2    ;  uncertainty k = 0.634097
         3         2         1        31     9        0.000000        1.297460         3    ;  uncertainty k = 0.105363
         3         2         1        31     9      180.000000        1.625882         4    ;  uncertainty k = 0.156284
         3         2        11        21     9        0.000000        2.526299         1    ;  uncertainty k = 0.992331
         3         2        11        21     9      180.000000        6.117710         2    ;  uncertainty k = 0.285225
         3         2        11        21     9        0.000000        0.624417         3    ;  uncertainty k = 0.302591
         3         2        11        21     9      180.000000        0.000632         4    ;  uncertainty k = 0.186382
         3         2        11        35     9        0.000000        3.383700         1    ;  uncertainty k = 0.980861
         3         2        11        35     9      180.000000        4.699465         2    ;  uncertainty k = 0.598444
         3         2        11        35     9        0.000000        0.569449         3    ;  uncertainty k = 0.268264
         3         2        11        35     9      180.000000       -0.061443         4    ;  uncertainty k = 0.133099
         3         4         5         6     9        0.000000       -0.064268         1    ;  uncertainty k = 0.482878
         3         4         5         6     9      180.000000        5.815078         2    ;  uncertainty k = 0.996902
         3         4         5         6     9        0.000000        0.060037         3    ;  uncertainty k = 0.264412
         3         4         5         6     9      180.000000        1.005082         4    ;  uncertainty k = 0.332027
         3         4         5         8     9        0.000000        0.261320         1    ;  uncertainty k = 0.518995
         3         4         5         8     9      180.000000        6.885065         2    ;  uncertainty k = 0.805626
         3         4         5         8     9        0.000000        0.373938         3    ;  uncertainty k = 0.290824
         3         4         5         8     9      180.000000        1.164313         4    ;  uncertainty k = 0.349614
         3         4        12        13     9        0.000000       -0.241234         1    ;  uncertainty k = 0.353962
         3         4        12        13     9      180.000000        5.771563         2    ;  uncertainty k = 0.169726
         3         4        12        13     9        0.000000        0.317160         3    ;  uncertainty k = 0.177141
         3         4        12        13     9      180.000000        0.588639         4    ;  uncertainty k = 0.117338
         3         4        12        17     9        0.000000       -0.358623         1    ;  uncertainty k = 0.397328
         3         4        12        17     9      180.000000        5.522278         2    ;  uncertainty k = 0.163710
         3         4        12        17     9        0.000000        0.471433         3    ;  uncertainty k = 0.101553
         3         4        12        17     9      180.000000        0.524759         4    ;  uncertainty k = 0.136869
         4         3         2        11     9        0.000000        0.274482         1    ;  uncertainty k = 0.728289
         4         3         2        11     9      180.000000        7.666822         2    ;  uncertainty k = 0.442859
         4         3         2        11     9        0.000000        0.842825         3    ;  uncertainty k = 0.171847
         4         3         2        11     9      180.000000        1.601635         4    ;  uncertainty k = 0.110410
         4         5         6         7     9        0.000000       -0.297577         1    ;  uncertainty k = 0.701970
         4         5         6         7     9      180.000000        5.014359         2    ;  uncertainty k = 1.176011
         4         5         6         7     9        0.000000        0.093992         3    ;  uncertainty k = 0.371276
         4         5         6         7     9      180.000000        1.323525         4    ;  uncertainty k = 0.229333
         4         5         8         9     9        0.000000       -0.230726         1    ;  uncertainty k = 0.542096
         4         5         8         9     9      180.000000       12.457806         2    ;  uncertainty k = 0.567635
         4         5         8         9     9        0.000000        2.051214         3    ;  uncertainty k = 0.352155
         4         5         8         9     9      180.000000        1.316225         4    ;  uncertainty k = 0.190864
         4        12        13        14     9        0.000000        0.106032         1    ;  uncertainty k = 0.347322
         4        12        13        14     9      180.000000        7.741873         2    ;  uncertainty k = 0.677794
         4        12        13        14     9        0.000000        1.125160         3    ;  uncertainty k = 0.437429
         4        12        13        14     9      180.000000        1.837354         4    ;  uncertainty k = 0.142429
         4        12        13        36     9        0.000000       -0.194197         1    ;  uncertainty k = 0.071949
         4        12        13        36     9      180.000000        7.286466         2    ;  uncertainty k = 0.459537
         4        12        13        36     9        0.000000        0.820345         3    ;  uncertainty k = 0.187087
         4        12        13        36     9      180.000000        1.127885         4    ;  uncertainty k = 0.183907
         4        12        17        16     9        0.000000        0.008340         1    ;  uncertainty k = 0.510404
         4        12        17        16     9      180.000000       10.601908         2    ;  uncertainty k = 0.755181
         4        12        17        16     9        0.000000        1.446684         3    ;  uncertainty k = 0.244023
         4        12        17        16     9      180.000000        1.685324         4    ;  uncertainty k = 0.268772
         4        12        17        38     9        0.000000       -0.217859         1    ;  uncertainty k = 0.216539
         4        12        17        38     9      180.000000        7.816293         2    ;  uncertainty k = 0.229989
         4        12        17        38     9        0.000000        0.863298         3    ;  uncertainty k = 0.206755
         4        12        17        38     9      180.000000        1.171828         4    ;  uncertainty k = 0.102501
         5         4         3        32     9        0.000000        0.123738         1    ;  uncertainty k = 0.256829
         5         4         3        32     9      180.000000        9.582771         2    ;  uncertainty k = 0.350597
         5         4         3        32     9        0.000000        1.473211         3    ;  uncertainty k = 0.141253
         5         4         3        32     9      180.000000        1.670290         4    ;  uncertainty k = 0.172671
         5         4        12        13     9        0.000000        0.294934         1    ;  uncertainty k = 0.682343
         5         4        12        13     9      180.000000        5.135221         2    ;  uncertainty k = 0.368550
         5         4        12        13     9        0.000000        0.449391         3    ;  uncertainty k = 0.368548
         5         4        12        13     9      180.000000        0.735448         4    ;  uncertainty k = 0.087901
         5         4        12        17     9        0.000000       -0.139301         1    ;  uncertainty k = 0.564768
         5         4        12        17     9      180.000000        5.053884         2    ;  uncertainty k = 0.350243
         5         4        12        17     9        0.000000        0.265394         3    ;  uncertainty k = 0.358781
         5         4        12        17     9      180.000000        0.716032         4    ;  uncertainty k = 0.142482
         5         6         1        31     9        0.000000       -0.216754         1    ;  uncertainty k = 0.343873
         5         6         1        31     9      180.000000        5.853912         2    ;  uncertainty k = 0.879793
         5         6         1        31     9        0.000000        1.199031         3    ;  uncertainty k = 0.162614
         5         6         1        31     9      180.000000        1.246407         4    ;  uncertainty k = 0.338414
         5         6         7        10     9        0.000000       -0.063178         1    ;  uncertainty k = 1.326752
         5         6         7        10     9      180.000000       10.095142         2    ;  uncertainty k = 0.612694
         5         6         7        10     9        0.000000        1.278116         3    ;  uncertainty k = 0.488029
         5         6         7        10     9      180.000000        1.281711         4    ;  uncertainty k = 0.220795
         5         8         9        10     9        0.000000        0.020377         1    ;  uncertainty k = 0.368422
         5         8         9        10     9      180.000000       16.581266         2    ;  uncertainty k = 0.335688
         5         8         9        10     9        0.000000        0.829256         3    ;  uncertainty k = 0.750676
         5         8         9        10     9      180.000000        1.566270         4    ;  uncertainty k = 0.253962
         5         8         9        33     9        0.000000        0.275900         1    ;  uncertainty k = 0.531876
         5         8         9        33     9      180.000000       18.156242         2    ;  uncertainty k = 0.522836
         5         8         9        33     9        0.000000        2.344022         3    ;  uncertainty k = 0.655907
         5         8         9        33     9      180.000000        1.633482         4    ;  uncertainty k = 0.415921
         6         1         2        11     9        0.000000       -0.199853         1    ;  uncertainty k = 0.399620
         6         1         2        11     9      180.000000       11.251595         2    ;  uncertainty k = 0.453003
         6         1         2        11     9        0.000000        0.994564         3    ;  uncertainty k = 0.187642
         6         1         2        11     9      180.000000        1.578580         4    ;  uncertainty k = 0.167837
         6         5         4        12     9        0.000000        0.163367         1    ;  uncertainty k = 0.742863
         6         5         4        12     9      180.000000        4.925989         2    ;  uncertainty k = 0.482652
         6         5         4        12     9        0.000000        1.071668         3    ;  uncertainty k = 0.234643
         6         5         4        12     9      180.000000        1.265583         4    ;  uncertainty k = 0.346237
         6         5         8         9     9        0.000000       -0.112022         1    ;  uncertainty k = 0.910117
         6         5         8         9     9      180.000000       11.596635         2    ;  uncertainty k = 0.629166
         6         5         8         9     9        0.000000        1.457657         3    ;  uncertainty k = 0.287216
         6         5         8         9     9      180.000000        1.330866         4    ;  uncertainty k = 0.318778
         6         7        10         9     9        0.000000        0.013311         1    ;  uncertainty k = 0.131653
         6         7        10         9     9      180.000000       17.231919         2    ;  uncertainty k = 0.196674
         6         7        10         9     9        0.000000        0.888029         3    ;  uncertainty k = 0.629562
         6         7        10         9     9      180.000000        1.519865         4    ;  uncertainty k = 0.234840
         6         7        10        34     9        0.000000        0.424411         1    ;  uncertainty k = 0.517708
         6         7        10        34     9      180.000000       19.045700         2    ;  uncertainty k = 0.443936
         6         7        10        34     9        0.000000        2.354564         3    ;  uncertainty k = 0.582721
         6         7        10        34     9      180.000000        1.407429         4    ;  uncertainty k = 0.336465
         7         6         1        31     9        0.000000        0.139927         1    ;  uncertainty k = 0.233388
         7         6         1        31     9      180.000000        8.199302         2    ;  uncertainty k = 0.492393
         7         6         1        31     9        0.000000        1.032825         3    ;  uncertainty k = 0.329116
         7         6         1        31     9      180.000000        1.219854         4    ;  uncertainty k = 0.291231
         7         6         5         8     9        0.000000       -0.400492         1    ;  uncertainty k = 0.890675
         7         6         5         8     9      180.000000        7.087146         2    ;  uncertainty k = 0.720455
         7         6         5         8     9        0.000000        0.077638         3    ;  uncertainty k = 0.327161
         7         6         5         8     9      180.000000        1.330895         4    ;  uncertainty k = 0.356325
         7        10         9         8     9        0.000000       -0.202866         1    ;  uncertainty k = 0.782206
         7        10         9         8     9      180.000000       12.112991         2    ;  uncertainty k = 0.805807
         7        10         9         8     9        0.000000       -1.599825         3    ;  uncertainty k = 0.569696
         7        10         9         8     9      180.000000        0.918172         4    ;  uncertainty k = 0.463986
         7        10         9        33     9        0.000000       -0.033262         1    ;  uncertainty k = 0.634830
         7        10         9        33     9      180.000000        6.504272         2    ;  uncertainty k = 1.136878
         7        10         9        33     9        0.000000        0.521238         3    ;  uncertainty k = 0.433609
         7        10         9        33     9      180.000000        1.070757         4    ;  uncertainty k = 0.343719
         8         5         4        12     9        0.000000        0.205608         1    ;  uncertainty k = 1.297119
         8         5         4        12     9      180.000000        7.137753         2    ;  uncertainty k = 0.766262
         8         5         4        12     9        0.000000        0.773424         3    ;  uncertainty k = 0.512634
         8         5         4        12     9      180.000000        1.176773         4    ;  uncertainty k = 0.263387
         8         9        10        34     9        0.000000        0.036887         1    ;  uncertainty k = 0.700692
         8         9        10        34     9      180.000000        6.513920         2    ;  uncertainty k = 1.135261
         8         9        10        34     9        0.000000        0.521732         3    ;  uncertainty k = 0.385188
         8         9        10        34     9      180.000000        1.117821         4    ;  uncertainty k = 0.330142
        11         2         1        31     9        0.000000       -0.540474         1    ;  uncertainty k = 0.241043
        11         2         1        31     9      180.000000        8.162087         2    ;  uncertainty k = 0.602999
        11         2         1        31     9        0.000000        0.752095         3    ;  uncertainty k = 0.237596
        11         2         1        31     9      180.000000        1.123372         4    ;  uncertainty k = 0.272486
        11         2         3        32     9        0.000000       -0.338091         1    ;  uncertainty k = 0.353039
        11         2         3        32     9      180.000000        7.206239         2    ;  uncertainty k = 0.456434
        11         2         3        32     9        0.000000        0.798669         3    ;  uncertainty k = 0.201142
        11         2         3        32     9      180.000000        1.134447         4    ;  uncertainty k = 0.153946
        11        21        23        24     9        0.000000       -0.006793         1    ;  uncertainty k = 0.509876
        11        21        23        24     9      180.000000        7.323927         2    ;  uncertainty k = 0.466078
        11        21        23        24     9        0.000000        1.086656         3    ;  uncertainty k = 0.332026
        11        21        23        24     9      180.000000        1.670738         4    ;  uncertainty k = 0.197716
        11        21        23        28     9        0.000000       -0.432735         1    ;  uncertainty k = 0.539503
        11        21        23        28     9      180.000000        8.014915         2    ;  uncertainty k = 1.226902
        11        21        23        28     9        0.000000        1.221124         3    ;  uncertainty k = 0.454502
        11        21        23        28     9      180.000000        1.597510         4    ;  uncertainty k = 0.330874
        11        21        27        26     9        0.000000        0.266711         1    ;  uncertainty k = 0.876071
        11        21        27        26     9      180.000000        9.040060         2    ;  uncertainty k = 0.757549
        11        21        27        26     9        0.000000        0.829711         3    ;  uncertainty k = 0.271129
        11        21        27        26     9      180.000000        1.485470         4    ;  uncertainty k = 0.331238
        11        21        27        46     9        0.000000       -0.128634         1    ;  uncertainty k = 0.569965
        11        21        27        46     9      180.000000        6.209989         2    ;  uncertainty k = 0.743073
        11        21        27        46     9        0.000000        0.840419         3    ;  uncertainty k = 0.279574
        11        21        27        46     9      180.000000        1.152090         4    ;  uncertainty k = 0.226400
        12         4         3        32     9        0.000000        0.133920         1    ;  uncertainty k = 0.241849
        12         4         3        32     9      180.000000        8.368020         2    ;  uncertainty k = 0.247907
        12         4         3        32     9        0.000000        1.001196         3    ;  uncertainty k = 0.152989
        12         4         3        32     9      180.000000        1.398313         4    ;  uncertainty k = 0.293351
        12        13        14        15     9        0.000000       -0.088237         1    ;  uncertainty k = 0.303401
        12        13        14        15     9      180.000000       16.637935         2    ;  uncertainty k = 0.333977
        12        13        14        15     9        0.000000       -0.360479         3    ;  uncertainty k = 0.532645
        12        13        14        15     9      180.000000        0.692098         4    ;  uncertainty k = 0.430868
        12        13        14        37     9        0.000000       -0.068871         1    ;  uncertainty k = 0.208187
        12        13        14        37     9      180.000000        8.826762         2    ;  uncertainty k = 0.512392
        12        13        14        37     9        0.000000        1.364385         3    ;  uncertainty k = 0.219988
        12        13        14        37     9      180.000000        1.899723         4    ;  uncertainty k = 0.318557
        12        17        16        15     9        0.000000       -0.149024         1    ;  uncertainty k = 0.543451
        12        17        16        15     9      180.000000       12.121193         2    ;  uncertainty k = 0.115800
        12        17        16        15     9        0.000000       -0.939443         3    ;  uncertainty k = 0.507589
        12        17        16        15     9      180.000000        0.860046         4    ;  uncertainty k = 0.197235
        12        17        16        20     9        0.000000        0.212529         1    ;  uncertainty k = 0.147666
        12        17        16        20     9      180.000000       10.459763         2    ;  uncertainty k = 0.471484
        12        17        16        20     9        0.000000        1.021284         3    ;  uncertainty k = 0.274552
        12        17        16        20     9      180.000000        1.335798         4    ;  uncertainty k = 0.221198
        13        12        17        16     9        0.000000       -0.053115         1    ;  uncertainty k = 0.278158
        13        12        17        16     9      180.000000       13.312170         2    ;  uncertainty k = 0.270025
        13        12        17        16     9        0.000000       -0.017985         3    ;  uncertainty k = 0.385054
        13        12        17        16     9      180.000000        0.899869         4    ;  uncertainty k = 0.336493
        13        12        17        38     9        0.000000        0.324286         1    ;  uncertainty k = 0.275978
        13        12        17        38     9      180.000000        7.772420         2    ;  uncertainty k = 0.500280
        13        12        17        38     9        0.000000        1.473057         3    ;  uncertainty k = 0.166957
        13        12        17        38     9      180.000000        1.643833         4    ;  uncertainty k = 0.220962
        13        14        15        16     9        0.000000        0.015179         1    ;  uncertainty k = 0.183013
        13        14        15        16     9      180.000000       13.267788         2    ;  uncertainty k = 0.263041
        13        14        15        16     9        0.000000       -1.677048         3    ;  uncertainty k = 0.342200
        13        14        15        16     9      180.000000        0.680123         4    ;  uncertainty k = 0.245766
        13        14        15        18     9        0.000000        0.168081         1    ;  uncertainty k = 0.172640
        13        14        15        18     9      180.000000        8.937069         2    ;  uncertainty k = 0.347169
        13        14        15        18     9        0.000000        0.640838         3    ;  uncertainty k = 0.199488
        13        14        15        18     9      180.000000        1.231015         4    ;  uncertainty k = 0.108242
        14        13        12        17     9        0.000000       -0.234353         1    ;  uncertainty k = 0.151821
        14        13        12        17     9      180.000000       10.060344         2    ;  uncertainty k = 0.243332
        14        13        12        17     9        0.000000       -0.319786         3    ;  uncertainty k = 0.496922
        14        13        12        17     9      180.000000        0.990976         4    ;  uncertainty k = 0.258596
        14        15        16        17     9        0.000000       -0.563658         1    ;  uncertainty k = 1.052576
        14        15        16        17     9      180.000000        7.918710         2    ;  uncertainty k = 0.880080
        14        15        16        17     9        0.000000        0.146189         3    ;  uncertainty k = 0.303935
        14        15        16        17     9      180.000000        0.889831         4    ;  uncertainty k = 0.388926
        14        15        16        20     9        0.000000        0.176056         1    ;  uncertainty k = 0.453596
        14        15        16        20     9      180.000000        8.243113         2    ;  uncertainty k = 0.257976
        14        15        16        20     9        0.000000       -0.059609         3    ;  uncertainty k = 0.396357
        14        15        16        20     9      180.000000        1.309643         4    ;  uncertainty k = 0.308186
        14        15        18        19     9        0.000000        0.511305         1    ;  uncertainty k = 0.793984
        14        15        18        19     9      180.000000        6.744679         2    ;  uncertainty k = 0.997873
        14        15        18        19     9        0.000000        0.274717         3    ;  uncertainty k = 0.537264
        14        15        18        19     9      180.000000        1.010143         4    ;  uncertainty k = 0.225695
        14        15        18        39     9        0.000000        0.606453         1    ;  uncertainty k = 0.850020
        14        15        18        39     9      180.000000        4.093390         2    ;  uncertainty k = 0.848756
        14        15        18        39     9        0.000000        1.375301         3    ;  uncertainty k = 0.426874
        14        15        18        39     9      180.000000        0.101118         4    ;  uncertainty k = 0.145410
        15        14        13        36     9        0.000000       -0.025946         1    ;  uncertainty k = 0.303009
        15        14        13        36     9      180.000000       11.299048         2    ;  uncertainty k = 0.337051
        15        14        13        36     9        0.000000        1.440131         3    ;  uncertainty k = 0.287190
        15        14        13        36     9      180.000000        1.704245         4    ;  uncertainty k = 0.284573
        15        16        17        38     9        0.000000        0.113361         1    ;  uncertainty k = 0.441544
        15        16        17        38     9      180.000000        6.764951         2    ;  uncertainty k = 0.865473
        15        16        17        38     9        0.000000        1.346687         3    ;  uncertainty k = 0.169660
        15        16        17        38     9      180.000000        1.338700         4    ;  uncertainty k = 0.261595
        15        16        20        19     9        0.000000        0.268811         1    ;  uncertainty k = 0.833799
        15        16        20        19     9      180.000000       14.131316         2    ;  uncertainty k = 0.606105
        15        16        20        19     9        0.000000       -6.512747         3    ;  uncertainty k = 1.135818
        15        16        20        19     9      180.000000        0.929198         4    ;  uncertainty k = 0.439288
        15        16        20        22     9        0.000000        2.277569         1    ;  uncertainty k = 0.770886
        15        16        20        22     9      180.000000        5.178088         2    ;  uncertainty k = 0.354898
        15        16        20        22     9        0.000000        1.568715         3    ;  uncertainty k = 0.279168
        15        16        20        22     9      180.000000        0.176309         4    ;  uncertainty k = 0.114600
        15        18        19        20     9        0.000000       -0.277607         1    ;  uncertainty k = 0.238564
        15        18        19        20     9      180.000000       22.092014         2    ;  uncertainty k = 0.248817
        15        18        19        20     9        0.000000       -6.461113         3    ;  uncertainty k = 0.282795
        15        18        19        20     9      180.000000        1.349535         4    ;  uncertainty k = 0.401228
        15        18        19        40     9        0.000000       -0.004714         1    ;  uncertainty k = 0.396226
        15        18        19        40     9      180.000000       12.360945         2    ;  uncertainty k = 0.135928
        15        18        19        40     9        0.000000        1.866097         3    ;  uncertainty k = 0.177332
        15        18        19        40     9      180.000000        0.972890         4    ;  uncertainty k = 0.182999
        16        15        14        37     9        0.000000        0.124387         1    ;  uncertainty k = 0.373034
        16        15        14        37     9      180.000000        7.210885         2    ;  uncertainty k = 0.881419
        16        15        14        37     9        0.000000        1.401520         3    ;  uncertainty k = 0.369643
        16        15        14        37     9      180.000000        1.163099         4    ;  uncertainty k = 0.413706
        16        15        18        19     9        0.000000        0.450027         1    ;  uncertainty k = 0.908073
        16        15        18        19     9      180.000000       13.173235         2    ;  uncertainty k = 0.776587
        16        15        18        19     9        0.000000      -10.991006         3    ;  uncertainty k = 2.573421
        16        15        18        19     9      180.000000        1.867148         4    ;  uncertainty k = 0.661434
        16        15        18        39     9        0.000000        0.023375         1    ;  uncertainty k = 0.592174
        16        15        18        39     9      180.000000        8.114226         2    ;  uncertainty k = 0.620357
        16        15        18        39     9        0.000000        1.336432         3    ;  uncertainty k = 0.600041
        16        15        18        39     9      180.000000        0.332208         4    ;  uncertainty k = 0.200948
        16        20        19        18     9        0.000000       -0.256602         1    ;  uncertainty k = 0.388703
        16        20        19        18     9      180.000000       15.681418         2    ;  uncertainty k = 0.602078
        16        20        19        18     9        0.000000       -6.396111         3    ;  uncertainty k = 1.656550
        16        20        19        18     9      180.000000        0.936026         4    ;  uncertainty k = 0.391999
        16        20        19        40     9        0.000000        1.176326         1    ;  uncertainty k = 0.849237
        16        20        19        40     9      180.000000        7.035330         2    ;  uncertainty k = 0.660686
        16        20        19        40     9        0.000000        1.598165         3    ;  uncertainty k = 0.299780
        16        20        19        40     9      180.000000        0.164807         4    ;  uncertainty k = 0.100188
        16        20        22        41     9        0.000000       -0.408568         1    ;  uncertainty k = 0.246905
        16        20        22        41     9      180.000000       -1.317196         2    ;  uncertainty k = 0.168942
        16        20        22        41     9        0.000000        1.090647         3    ;  uncertainty k = 0.080702
        16        20        22        41     9      180.000000        0.217211         4    ;  uncertainty k = 0.045154
        16        20        22        42     9        0.000000       -0.408568         1    ;  uncertainty k = 0.246905
        16        20        22        42     9      180.000000       -1.317196         2    ;  uncertainty k = 0.168942
        16        20        22        42     9        0.000000        1.090647         3    ;  uncertainty k = 0.080702
        16        20        22        42     9      180.000000        0.217211         4    ;  uncertainty k = 0.045154
        16        20        22        43     9        0.000000       -0.408568         1    ;  uncertainty k = 0.246905
        16        20        22        43     9      180.000000       -1.317196         2    ;  uncertainty k = 0.168942
        16        20        22        43     9        0.000000        1.090647         3    ;  uncertainty k = 0.080702
        16        20        22        43     9      180.000000        0.217211         4    ;  uncertainty k = 0.045154
        17        12        13        36     9        0.000000        0.170680         1    ;  uncertainty k = 0.094348
        17        12        13        36     9      180.000000        6.588587         2    ;  uncertainty k = 0.576707
        17        12        13        36     9        0.000000        1.389950         3    ;  uncertainty k = 0.140404
        17        12        13        36     9      180.000000        1.590416         4    ;  uncertainty k = 0.228049
        17        16        15        18     9        0.000000        0.110683         1    ;  uncertainty k = 0.560069
        17        16        15        18     9      180.000000        7.680716         2    ;  uncertainty k = 0.276652
        17        16        15        18     9        0.000000        0.240823         3    ;  uncertainty k = 0.430528
        17        16        15        18     9      180.000000        1.182835         4    ;  uncertainty k = 0.239317
        17        16        20        19     9        0.000000        1.096033         1    ;  uncertainty k = 1.298951
        17        16        20        19     9      180.000000        6.112340         2    ;  uncertainty k = 0.742501
        17        16        20        19     9        0.000000        0.700126         3    ;  uncertainty k = 0.193201
        17        16        20        19     9      180.000000        0.290744         4    ;  uncertainty k = 0.152037
        17        16        20        22     9        0.000000        0.381171         1    ;  uncertainty k = 1.813554
        17        16        20        22     9      180.000000        2.830187         2    ;  uncertainty k = 0.478377
        17        16        20        22     9        0.000000        0.849606         3    ;  uncertainty k = 0.419853
        17        16        20        22     9      180.000000        0.083786         4    ;  uncertainty k = 0.135735
        18        15        14        37     9        0.000000        0.105500         1    ;  uncertainty k = 0.553990
        18        15        14        37     9      180.000000        5.639368         2    ;  uncertainty k = 0.488477
        18        15        14        37     9        0.000000        1.044663         3    ;  uncertainty k = 0.341162
        18        15        14        37     9      180.000000        0.711452         4    ;  uncertainty k = 0.362067
        18        15        16        20     9        0.000000       -0.248706         1    ;  uncertainty k = 0.120972
        18        15        16        20     9      180.000000       12.895532         2    ;  uncertainty k = 0.840948
        18        15        16        20     9        0.000000       -3.668924         3    ;  uncertainty k = 1.019109
        18        15        16        20     9      180.000000        1.520072         4    ;  uncertainty k = 0.794284
        18        19        20        22     9        0.000000        1.377314         1    ;  uncertainty k = 0.855302
        18        19        20        22     9      180.000000        8.854296         2    ;  uncertainty k = 0.336077
        18        19        20        22     9        0.000000        1.850755         3    ;  uncertainty k = 0.421572
        18        19        20        22     9      180.000000        0.005711         4    ;  uncertainty k = 0.191906
        19        20        22        41     9        0.000000        0.012373         1    ;  uncertainty k = 0.156207
        19        20        22        41     9      180.000000       -1.304491         2    ;  uncertainty k = 0.215975
        19        20        22        41     9        0.000000        0.598725         3    ;  uncertainty k = 0.126338
        19        20        22        41     9      180.000000        0.181531         4    ;  uncertainty k = 0.051525
        19        20        22        42     9        0.000000        0.012373         1    ;  uncertainty k = 0.156207
        19        20        22        42     9      180.000000       -1.304491         2    ;  uncertainty k = 0.215975
        19        20        22        42     9        0.000000        0.598725         3    ;  uncertainty k = 0.126338
        19        20        22        42     9      180.000000        0.181531         4    ;  uncertainty k = 0.051525
        19        20        22        43     9        0.000000        0.012373         1    ;  uncertainty k = 0.156207
        19        20        22        43     9      180.000000       -1.304491         2    ;  uncertainty k = 0.215975
        19        20        22        43     9        0.000000        0.598725         3    ;  uncertainty k = 0.126338
        19        20        22        43     9      180.000000        0.181531         4    ;  uncertainty k = 0.051525
        20        16        17        38     9        0.000000        0.243928         1    ;  uncertainty k = 0.292556
        20        16        17        38     9      180.000000        5.709933         2    ;  uncertainty k = 0.412052
        20        16        17        38     9        0.000000        1.177664         3    ;  uncertainty k = 0.438420
        20        16        17        38     9      180.000000        0.924567         4    ;  uncertainty k = 0.367001
        20        19        18        39     9        0.000000        0.281182         1    ;  uncertainty k = 0.777506
        20        19        18        39     9      180.000000       14.368325         2    ;  uncertainty k = 0.563599
        20        19        18        39     9        0.000000        1.716577         3    ;  uncertainty k = 0.616570
        20        19        18        39     9      180.000000        0.925073         4    ;  uncertainty k = 0.423264
        21        23        24        25     9        0.000000       -0.103889         1    ;  uncertainty k = 0.544678
        21        23        24        25     9      180.000000       10.639271         2    ;  uncertainty k = 0.259577
        21        23        24        25     9        0.000000       -0.523906         3    ;  uncertainty k = 0.577486
        21        23        24        25     9      180.000000        0.973554         4    ;  uncertainty k = 0.298328
        21        23        24        44     9        0.000000        0.583263         1    ;  uncertainty k = 0.308324
        21        23        24        44     9      180.000000        7.896349         2    ;  uncertainty k = 1.035724
        21        23        24        44     9        0.000000        1.172368         3    ;  uncertainty k = 0.389685
        21        23        24        44     9      180.000000        1.573025         4    ;  uncertainty k = 0.321318
        21        23        28        29     9        0.000000        1.284921         1    ;  uncertainty k = 0.586511
        21        23        28        29     9      180.000000        3.689031         2    ;  uncertainty k = 0.605671
        21        23        28        29     9        0.000000        0.474647         3    ;  uncertainty k = 0.296318
        21        23        28        29     9      180.000000        0.034178         4    ;  uncertainty k = 0.161519
        21        23        28        30     9        0.000000       -2.480950         1    ;  uncertainty k = 1.184578
        21        23        28        30     9      180.000000        1.951640         2    ;  uncertainty k = 0.688334
        21        23        28        30     9        0.000000        0.903479         3    ;  uncertainty k = 0.310846
        21        23        28        30     9      180.000000        0.282452         4    ;  uncertainty k = 0.119105
        21        27        26        25     9        0.000000        0.281483         1    ;  uncertainty k = 0.414063
        21        27        26        25     9      180.000000       16.607894         2    ;  uncertainty k = 0.398343
        21        27        26        25     9        0.000000        0.921676         3    ;  uncertainty k = 0.579075
        21        27        26        25     9      180.000000        1.501157         4    ;  uncertainty k = 0.223763
        22        20        19        40     9        0.000000       -0.357950         1    ;  uncertainty k = 0.336354
        22        20        19        40     9      180.000000        2.701717         2    ;  uncertainty k = 0.518907
        22        20        19        40     9        0.000000        1.060504         3    ;  uncertainty k = 0.337396
        22        20        19        40     9      180.000000        0.096607         4    ;  uncertainty k = 0.212503
        23        21        11        35     9        0.000000        6.071061         1    ;  uncertainty k = 1.178794
        23        21        11        35     9      180.000000        2.536704         2    ;  uncertainty k = 0.452831
        23        21        11        35     9        0.000000        0.554442         3    ;  uncertainty k = 0.205604
        23        21        11        35     9      180.000000       -0.195543         4    ;  uncertainty k = 0.061212
        23        21        27        26     9        0.000000       -0.175128         1    ;  uncertainty k = 0.523685
        23        21        27        26     9      180.000000        5.981592         2    ;  uncertainty k = 1.227621
        23        21        27        26     9        0.000000        0.109413         3    ;  uncertainty k = 0.580042
        23        21        27        26     9      180.000000        1.281767         4    ;  uncertainty k = 0.236719
        23        21        27        46     9        0.000000        0.677794         1    ;  uncertainty k = 1.573593
        23        21        27        46     9      180.000000        4.327495         2    ;  uncertainty k = 0.857393
        23        21        27        46     9        0.000000        1.068142         3    ;  uncertainty k = 0.208232
        23        21        27        46     9      180.000000        1.158227         4    ;  uncertainty k = 0.249367
        23        24        25        26     9        0.000000       -0.132153         1    ;  uncertainty k = 0.234030
        23        24        25        26     9      180.000000       14.112262         2    ;  uncertainty k = 0.539437
        23        24        25        26     9        0.000000       -1.115852         3    ;  uncertainty k = 0.836313
        23        24        25        26     9      180.000000        0.957783         4    ;  uncertainty k = 0.222739
        23        24        25        45     9        0.000000       -0.366960         1    ;  uncertainty k = 0.568716
        23        24        25        45     9      180.000000        6.611214         2    ;  uncertainty k = 0.271542
        23        24        25        45     9        0.000000        1.047789         3    ;  uncertainty k = 0.369776
        23        24        25        45     9      180.000000        1.576265         4    ;  uncertainty k = 0.295343
        23        28        29        47     9        0.000000        2.943147         1    ;  uncertainty k = 1.008907
        23        28        29        47     9      180.000000        7.926300         2    ;  uncertainty k = 0.496935
        23        28        29        47     9        0.000000        2.861439         3    ;  uncertainty k = 0.339191
        23        28        29        47     9      180.000000       -0.431857         4    ;  uncertainty k = 0.296593
        23        28        29        48     9        0.000000        2.943147         1    ;  uncertainty k = 1.008907
        23        28        29        48     9      180.000000        7.926300         2    ;  uncertainty k = 0.496935
        23        28        29        48     9        0.000000        2.861439         3    ;  uncertainty k = 0.339191
        23        28        29        48     9      180.000000       -0.431857         4    ;  uncertainty k = 0.296593
        24        23        21        27     9        0.000000       -0.322684         1    ;  uncertainty k = 0.735496
        24        23        21        27     9      180.000000        4.929146         2    ;  uncertainty k = 1.156984
        24        23        21        27     9        0.000000        0.083125         3    ;  uncertainty k = 0.365040
        24        23        21        27     9      180.000000        1.377792         4    ;  uncertainty k = 0.341410
        24        23        28        29     9        0.000000        1.276453         1    ;  uncertainty k = 0.309393
        24        23        28        29     9      180.000000        3.358582         2    ;  uncertainty k = 0.375230
        24        23        28        29     9        0.000000        0.557155         3    ;  uncertainty k = 0.411771
        24        23        28        29     9      180.000000        0.058981         4    ;  uncertainty k = 0.151673
        24        23        28        30     9        0.000000       -3.766178         1    ;  uncertainty k = 0.725412
        24        23        28        30     9      180.000000        2.567414         2    ;  uncertainty k = 0.140214
        24        23        28        30     9        0.000000        0.353190         3    ;  uncertainty k = 0.193242
        24        23        28        30     9      180.000000        0.216226         4    ;  uncertainty k = 0.171848
        24        25        26        27     9        0.000000       -0.473596         1    ;  uncertainty k = 0.540560
        24        25        26        27     9      180.000000       15.328919         2    ;  uncertainty k = 0.450098
        24        25        26        27     9        0.000000        1.114632         3    ;  uncertainty k = 0.480006
        24        25        26        27     9      180.000000        1.229115         4    ;  uncertainty k = 0.179901
        25        24        23        28     9        0.000000        0.414707         1    ;  uncertainty k = 0.731602
        25        24        23        28     9      180.000000        8.537322         2    ;  uncertainty k = 1.105665
        25        24        23        28     9        0.000000        1.345533         3    ;  uncertainty k = 0.381847
        25        24        23        28     9      180.000000        1.742843         4    ;  uncertainty k = 0.400307
        25        26        27        46     9        0.000000        0.500629         1    ;  uncertainty k = 0.549694
        25        26        27        46     9      180.000000       16.599482         2    ;  uncertainty k = 0.565788
        25        26        27        46     9        0.000000        2.300070         3    ;  uncertainty k = 0.274029
        25        26        27        46     9      180.000000        1.579306         4    ;  uncertainty k = 0.494687
        26        25        24        44     9        0.000000       -0.111644         1    ;  uncertainty k = 0.216289
        26        25        24        44     9      180.000000        9.501439         2    ;  uncertainty k = 0.597408
        26        25        24        44     9        0.000000        0.891302         3    ;  uncertainty k = 0.339594
        26        25        24        44     9      180.000000        1.686629         4    ;  uncertainty k = 0.112015
        27        21        11        35     9        0.000000       -0.263012         1    ;  uncertainty k = 1.977714
        27        21        11        35     9      180.000000        3.532082         2    ;  uncertainty k = 0.519346
        27        21        11        35     9        0.000000       -0.136236         3    ;  uncertainty k = 0.282569
        27        21        11        35     9      180.000000       -0.179529         4    ;  uncertainty k = 0.268062
        27        21        23        28     9        0.000000        0.640047         1    ;  uncertainty k = 1.923386
        27        21        23        28     9      180.000000        4.327544         2    ;  uncertainty k = 0.995090
        27        21        23        28     9        0.000000        1.310283         3    ;  uncertainty k = 0.087736
        27        21        23        28     9      180.000000        1.529727         4    ;  uncertainty k = 0.143393
        27        26        25        45     9        0.000000        0.302643         1    ;  uncertainty k = 0.444972
        27        26        25        45     9      180.000000       15.187435         2    ;  uncertainty k = 0.424883
        27        26        25        45     9        0.000000        2.048293         3    ;  uncertainty k = 0.495840
        27        26        25        45     9      180.000000        1.421272         4    ;  uncertainty k = 0.392662
        28        23        24        44     9        0.000000       -0.157292         1    ;  uncertainty k = 0.239613
        28        23        24        44     9      180.000000        8.165601         2    ;  uncertainty k = 0.635689
        28        23        24        44     9        0.000000        1.186065         3    ;  uncertainty k = 0.145293
        28        23        24        44     9      180.000000        1.317871         4    ;  uncertainty k = 0.217239
        30        28        29        47     9        0.000000        4.258546         1    ;  uncertainty k = 0.702231
        30        28        29        47     9      180.000000       11.815571         2    ;  uncertainty k = 0.301246
        30        28        29        47     9        0.000000        2.065732         3    ;  uncertainty k = 0.117007
        30        28        29        47     9      180.000000        0.353790         4    ;  uncertainty k = 0.287447
        30        28        29        48     9        0.000000        4.258546         1    ;  uncertainty k = 0.702231
        30        28        29        48     9      180.000000       11.815571         2    ;  uncertainty k = 0.301246
        30        28        29        48     9        0.000000        2.065732         3    ;  uncertainty k = 0.117007
        30        28        29        48     9      180.000000        0.353790         4    ;  uncertainty k = 0.287447
        33         9        10        34     9        0.000000       -0.152652         1    ;  uncertainty k = 0.805688
        33         9        10        34     9      180.000000        5.398109         2    ;  uncertainty k = 0.723628
        33         9        10        34     9        0.000000        0.147471         3    ;  uncertainty k = 0.248173
        33         9        10        34     9      180.000000        0.216442         4    ;  uncertainty k = 0.153410
        36        13        14        37     9        0.000000       -0.116206         1    ;  uncertainty k = 0.085773
        36        13        14        37     9      180.000000        7.987770         2    ;  uncertainty k = 0.371552
        36        13        14        37     9        0.000000       -0.214199         3    ;  uncertainty k = 0.235186
        36        13        14        37     9      180.000000        0.260529         4    ;  uncertainty k = 0.235508
        39        18        19        40     9        0.000000       -0.013046         1    ;  uncertainty k = 0.452147
        39        18        19        40     9      180.000000        5.800982         2    ;  uncertainty k = 0.791053
        39        18        19        40     9        0.000000        1.154438         3    ;  uncertainty k = 0.426921
        39        18        19        40     9      180.000000        0.344798         4    ;  uncertainty k = 0.119750
        44        24        25        45     9        0.000000       -0.441488         1    ;  uncertainty k = 0.450205
        44        24        25        45     9      180.000000        6.389615         2    ;  uncertainty k = 0.573636
        44        24        25        45     9        0.000000       -0.153980         3    ;  uncertainty k = 0.207249
        44        24        25        45     9      180.000000        0.395339         4    ;  uncertainty k = 0.150841

[ dihedrals ] ; impropers
;       ai        aj        ak        al funct           phase               k        pn
         1         2         6        31     4      180.000000        2.532109         2    ;  uncertainty k = 0.377653
         1         6        31         2     4      180.000000        2.532109         2    ;  uncertainty k = 0.377653
         1        31         2         6     4      180.000000        2.532109         2    ;  uncertainty k = 0.377653
         2         1         3        11     4      180.000000       20.659632         2    ;  uncertainty k = 0.079621
         2         3        11         1     4      180.000000       20.659632         2    ;  uncertainty k = 0.079621
         2        11         1         3     4      180.000000       20.659632         2    ;  uncertainty k = 0.079621
         3         2         4        32     4      180.000000        3.046958         2    ;  uncertainty k = 0.375844
         3         4        32         2     4      180.000000        3.046958         2    ;  uncertainty k = 0.375844
         3        32         2         4     4      180.000000        3.046958         2    ;  uncertainty k = 0.375844
         4         3         5        12     4      180.000000       17.976629         2    ;  uncertainty k = 0.099558
         4         5        12         3     4      180.000000       17.976629         2    ;  uncertainty k = 0.099558
         4        12         3         5     4      180.000000       17.976629         2    ;  uncertainty k = 0.099558
         5         4         6         8     4      180.000000       16.619254         2    ;  uncertainty k = 0.086962
         5         6         8         4     4      180.000000       16.619254         2    ;  uncertainty k = 0.086962
         5         8         4         6     4      180.000000       16.619254         2    ;  uncertainty k = 0.086962
         6         1         5         7     4      180.000000       18.442492         2    ;  uncertainty k = 0.055238
         6         5         7         1     4      180.000000       18.442492         2    ;  uncertainty k = 0.055238
         6         7         1         5     4      180.000000       18.442492         2    ;  uncertainty k = 0.055238
         9         8        10        33     4      180.000000       12.058352         2    ;  uncertainty k = 0.155869
         9        10        33         8     4      180.000000       12.058352         2    ;  uncertainty k = 0.155869
         9        33         8        10     4      180.000000       12.058352         2    ;  uncertainty k = 0.155869
        10         7         9        34     4      180.000000       11.948848         2    ;  uncertainty k = 0.101429
        10         9        34         7     4      180.000000       11.948848         2    ;  uncertainty k = 0.101429
        10        34         7         9     4      180.000000       11.948848         2    ;  uncertainty k = 0.101429
        11         2        21        35     4      180.000000        1.279216         2    ;  uncertainty k = 1.269615
        11        21        35         2     4      180.000000        1.279216         2    ;  uncertainty k = 1.269615
        11        35         2        21     4      180.000000        1.279216         2    ;  uncertainty k = 1.269615
        12         4        13        17     4      180.000000       12.719695         2    ;  uncertainty k = 0.169587
        12        13        17         4     4      180.000000       12.719695         2    ;  uncertainty k = 0.169587
        12        17         4        13     4      180.000000       12.719695         2    ;  uncertainty k = 0.169587
        13        12        14        36     4      180.000000        3.145470         2    ;  uncertainty k = 0.234153
        13        14        36        12     4      180.000000        3.145470         2    ;  uncertainty k = 0.234153
        13        36        12        14     4      180.000000        3.145470         2    ;  uncertainty k = 0.234153
        14        13        15        37     4      180.000000        3.905818         2    ;  uncertainty k = 0.125325
        14        15        37        13     4      180.000000        3.905818         2    ;  uncertainty k = 0.125325
        14        37        13        15     4      180.000000        3.905818         2    ;  uncertainty k = 0.125325
        16        15        17        20     4      180.000000        0.447274         2    ;  uncertainty k = 0.540173
        16        17        20        15     4      180.000000        0.447274         2    ;  uncertainty k = 0.540173
        16        20        15        17     4      180.000000        0.447274         2    ;  uncertainty k = 0.540173
        17        12        16        38     4      180.000000        2.774841         2    ;  uncertainty k = 0.245478
        17        16        38        12     4      180.000000        2.774841         2    ;  uncertainty k = 0.245478
        17        38        12        16     4      180.000000        2.774841         2    ;  uncertainty k = 0.245478
        19        18        20        40     4      180.000000        0.796715         2    ;  uncertainty k = 0.335582
        19        20        40        18     4      180.000000        0.796715         2    ;  uncertainty k = 0.335582
        19        40        18        20     4      180.000000        0.796715         2    ;  uncertainty k = 0.335582
        21        11        23        27     4      180.000000       21.577194         2    ;  uncertainty k = 0.120753
        21        23        27        11     4      180.000000       21.577194         2    ;  uncertainty k = 0.120753
        21        27        11        23     4      180.000000       21.577194         2    ;  uncertainty k = 0.120753
        23        21        24        28     4      180.000000        8.634726         2    ;  uncertainty k = 0.364043
        23        24        28        21     4      180.000000        8.634726         2    ;  uncertainty k = 0.364043
        23        28        21        24     4      180.000000        8.634726         2    ;  uncertainty k = 0.364043
        24        23        25        44     4      180.000000        3.479470         2    ;  uncertainty k = 0.285433
        24        25        44        23     4      180.000000        3.479470         2    ;  uncertainty k = 0.285433
        24        44        23        25     4      180.000000        3.479470         2    ;  uncertainty k = 0.285433
        25        24        26        45     4      180.000000       11.346674         2    ;  uncertainty k = 0.090944
        25        26        45        24     4      180.000000       11.346674         2    ;  uncertainty k = 0.090944
        25        45        24        26     4      180.000000       11.346674         2    ;  uncertainty k = 0.090944
        27        21        26        46     4      180.000000       10.686152         2    ;  uncertainty k = 0.156176
        27        26        46        21     4      180.000000       10.686152         2    ;  uncertainty k = 0.156176
        27        46        21        26     4      180.000000       10.686152         2    ;  uncertainty k = 0.156176
        28        23        29        30     4      180.000000       53.891260         2    ;  uncertainty k = 0.021732
        28        29        30        23     4      180.000000       53.891260         2    ;  uncertainty k = 0.021732
        28        30        23        29     4      180.000000       53.891260         2    ;  uncertainty k = 0.021732

[ pairs ]
;       ai        aj funct
         1         4     1
         1         8     1
         1        10     1
         1        21     1
         1        32     1
         1        35     1
         2         5     1
         2         7     1
         2        12     1
         2        23     1
         2        27     1
         3         6     1
         3         8     1
         3        13     1
         3        17     1
         3        21     1
         3        31     1
         3        35     1
         4         7     1
         4         9     1
         4        11     1
         4        14     1
         4        16     1
         4        36     1
         4        38     1
         5        10     1
         5        13     1
         5        17     1
         5        31     1
         5        32     1
         5        33     1
         6         9     1
         6        11     1
         6        12     1
         6        34     1
         7         8     1
         7        31     1
         7        33     1
         8        12     1
         8        34     1
        11        24     1
        11        26     1
        11        28     1
        11        31     1
        11        32     1
        11        46     1
        12        15     1
        12        20     1
        12        32     1
        12        37     1
        13        16     1
        13        18     1
        13        38     1
        14        17     1
        14        19     1
        14        20     1
        14        39     1
        15        22     1
        15        36     1
        15        38     1
        15        40     1
        16        37     1
        16        39     1
        16        40     1
        16        41     1
        16        42     1
        16        43     1
        17        18     1
        17        19     1
        17        22     1
        17        36     1
        18        22     1
        18        37     1
        19        41     1
        19        42     1
        19        43     1
        20        38     1
        20        39     1
        21        25     1
        21        29     1
        21        30     1
        21        44     1
        22        40     1
        23        26     1
        23        35     1
        23        45     1
        23        46     1
        23        47     1
        23        48     1
        24        27     1
        24        29     1
        24        30     1
        25        28     1
        25        46     1
        26        44     1
        27        28     1
        27        35     1
        27        45     1
        28        44     1
        30        47     1
        30        48     1
        33        34     1
        36        37     1
        39        40     1
        44        45     1
