; ITP file created by ByteFF-joint-25, 2026-02-17 09:25:22.146852

[ atomtypes ]
;name           bonded.type        at.num        mass        charge   ptype           sigma         epsilon
 c0bf                                   6      0.0000       0.00000       A     3.31520e-01     4.13548e-01    ;  uncertainty sigma = 0.000010, epsilon = 0.000616
 c1bf                                   6      0.0000       0.00000       A     3.31581e-01     4.13014e-01    ;  uncertainty sigma = 0.000014, epsilon = 0.001409
 c2bf                                   6      0.0000       0.00000       A     3.31511e-01     4.13639e-01    ;  uncertainty sigma = 0.000010, epsilon = 0.000899
 c3bf                                   6      0.0000       0.00000       A     3.31480e-01     4.12647e-01    ;  uncertainty sigma = 0.000014, epsilon = 0.001189
 c4bf                                   6      0.0000       0.00000       A     3.31517e-01     4.13435e-01    ;  uncertainty sigma = 0.000011, epsilon = 0.000908
 c5bf                                   6      0.0000       0.00000       A     3.31519e-01     4.13020e-01    ;  uncertainty sigma = 0.000010, epsilon = 0.001115
 n6bf                                   7      0.0000       0.00000       A     3.38415e-01     3.93854e-01    ;  uncertainty sigma = 0.000010, epsilon = 0.001066
 c7bf                                   6      0.0000       0.00000       A     3.31531e-01     4.13178e-01    ;  uncertainty sigma = 0.000013, epsilon = 0.000482
 c8bf                                   6      0.0000       0.00000       A     3.31530e-01     4.13238e-01    ;  uncertainty sigma = 0.000010, epsilon = 0.000599
 n9bf                                   7      0.0000       0.00000       A     3.38414e-01     3.93827e-01    ;  uncertainty sigma = 0.000003, epsilon = 0.000862
 c10bf                                  6      0.0000       0.00000       A     3.31492e-01     4.13019e-01    ;  uncertainty sigma = 0.000020, epsilon = 0.000990
 c11bf                                  6      0.0000       0.00000       A     3.31520e-01     4.13276e-01    ;  uncertainty sigma = 0.000004, epsilon = 0.000572
 c12bf                                  6      0.0000       0.00000       A     3.31527e-01     4.13211e-01    ;  uncertainty sigma = 0.000005, epsilon = 0.000881
 c13bf                                  6      0.0000       0.00000       A     3.31521e-01     4.13081e-01    ;  uncertainty sigma = 0.000007, epsilon = 0.000493
 c14bf                                  6      0.0000       0.00000       A     3.31522e-01     4.13356e-01    ;  uncertainty sigma = 0.000007, epsilon = 0.000813
 c15bf                                  6      0.0000       0.00000       A     3.31520e-01     4.13329e-01    ;  uncertainty sigma = 0.000004, epsilon = 0.000805
 c16bf                                  6      0.0000       0.00000       A     3.31516e-01     4.13261e-01    ;  uncertainty sigma = 0.000006, epsilon = 0.000450
 c17bf                                  6      0.0000       0.00000       A     3.31521e-01     4.12984e-01    ;  uncertainty sigma = 0.000005, epsilon = 0.000844
 n18bf                                  7      0.0000       0.00000       A     3.20630e-01     8.53726e-01    ;  uncertainty sigma = 0.000021, epsilon = 0.000808
 n19bf                                  7      0.0000       0.00000       A     3.19008e-01     9.00967e-01    ;  uncertainty sigma = 0.000028, epsilon = 0.004846
 c20bf                                  6      0.0000       0.00000       A     3.39777e-01     4.51126e-01    ;  uncertainty sigma = 0.000006, epsilon = 0.000488
 c21bf                                  6      0.0000       0.00000       A     3.31561e-01     4.12876e-01    ;  uncertainty sigma = 0.000046, epsilon = 0.001776
 c22bf                                  6      0.0000       0.00000       A     3.31507e-01     4.12969e-01    ;  uncertainty sigma = 0.000048, epsilon = 0.001902
 c23bf                                  6      0.0000       0.00000       A     3.31519e-01     4.13517e-01    ;  uncertainty sigma = 0.000009, epsilon = 0.000885
 c24bf                                  6      0.0000       0.00000       A     3.31513e-01     4.13350e-01    ;  uncertainty sigma = 0.000011, epsilon = 0.000728
 n25bf                                  7      0.0000       0.00000       A     3.38422e-01     3.93737e-01    ;  uncertainty sigma = 0.000011, epsilon = 0.000867
 c26bf                                  6      0.0000       0.00000       A     3.31504e-01     4.13569e-01    ;  uncertainty sigma = 0.000010, epsilon = 0.000846
 s27bf                                 16      0.0000       0.00000       A     4.05828e-01     2.56739e-01    ;  uncertainty sigma = 0.000016, epsilon = 0.001579
 o28bf                                  8      0.0000       0.00000       A     3.04808e-01     6.12058e-01    ;  uncertainty sigma = 0.000011, epsilon = 0.001075
 o29bf                                  8      0.0000       0.00000       A     3.04808e-01     6.12058e-01    ;  uncertainty sigma = 0.000011, epsilon = 0.001075
 c30bf                                  6      0.0000       0.00000       A     3.39790e-01     4.50653e-01    ;  uncertainty sigma = 0.000003, epsilon = 0.000848
 c31bf                                  6      0.0000       0.00000       A     3.39783e-01     4.51899e-01    ;  uncertainty sigma = 0.000010, epsilon = 0.001392
 h32bf                                  1      0.0000       0.00000       A     2.62537e-01     6.72516e-02    ;  uncertainty sigma = 0.000016, epsilon = 0.000882
 h33bf                                  1      0.0000       0.00000       A     2.62555e-01     6.72681e-02    ;  uncertainty sigma = 0.000018, epsilon = 0.000629
 h34bf                                  1      0.0000       0.00000       A     2.53628e-01     6.69333e-02    ;  uncertainty sigma = 0.000020, epsilon = 0.000763
 h35bf                                  1      0.0000       0.00000       A     2.53628e-01     6.69333e-02    ;  uncertainty sigma = 0.000020, epsilon = 0.000763
 h36bf                                  1      0.0000       0.00000       A     2.62563e-01     6.70733e-02    ;  uncertainty sigma = 0.000010, epsilon = 0.000583
 h37bf                                  1      0.0000       0.00000       A     2.62569e-01     6.69121e-02    ;  uncertainty sigma = 0.000009, epsilon = 0.000334
 h38bf                                  1      0.0000       0.00000       A     2.62578e-01     6.73015e-02    ;  uncertainty sigma = 0.000018, epsilon = 0.000492
 h39bf                                  1      0.0000       0.00000       A     2.62543e-01     6.72782e-02    ;  uncertainty sigma = 0.000012, epsilon = 0.000446
 h40bf                                  1      0.0000       0.00000       A     2.53669e-01     6.69808e-02    ;  uncertainty sigma = 0.000019, epsilon = 0.000693
 h41bf                                  1      0.0000       0.00000       A     2.42192e-01     8.67346e-02    ;  uncertainty sigma = 0.000017, epsilon = 0.000545
 h42bf                                  1      0.0000       0.00000       A     2.42192e-01     8.67346e-02    ;  uncertainty sigma = 0.000017, epsilon = 0.000545
 h43bf                                  1      0.0000       0.00000       A     2.42192e-01     8.67346e-02    ;  uncertainty sigma = 0.000017, epsilon = 0.000545
 h44bf                                  1      0.0000       0.00000       A     2.62533e-01     6.70950e-02    ;  uncertainty sigma = 0.000019, epsilon = 0.000754
 h45bf                                  1      0.0000       0.00000       A     2.53633e-01     6.70304e-02    ;  uncertainty sigma = 0.000014, epsilon = 0.000494
 h46bf                                  1      0.0000       0.00000       A     2.53627e-01     6.68995e-02    ;  uncertainty sigma = 0.000041, epsilon = 0.000816
 h47bf                                  1      0.0000       0.00000       A     2.42167e-01     8.68275e-02    ;  uncertainty sigma = 0.000012, epsilon = 0.000620
 h48bf                                  1      0.0000       0.00000       A     2.42167e-01     8.68275e-02    ;  uncertainty sigma = 0.000012, epsilon = 0.000620
 h49bf                                  1      0.0000       0.00000       A     2.42167e-01     8.68275e-02    ;  uncertainty sigma = 0.000012, epsilon = 0.000620
 h50bf                                  1      0.0000       0.00000       A     2.42176e-01     8.66940e-02    ;  uncertainty sigma = 0.000017, epsilon = 0.000721
 h51bf                                  1      0.0000       0.00000       A     2.42176e-01     8.66940e-02    ;  uncertainty sigma = 0.000017, epsilon = 0.000721
 h52bf                                  1      0.0000       0.00000       A     2.42176e-01     8.66940e-02    ;  uncertainty sigma = 0.000017, epsilon = 0.000721

[ moleculetype ]
;name             nrexcl
 MOL                   3

[ atoms ]
;       nr            type      resi   res      atom      cgnr      charge          mass ; qtot
         1            c0bf         1   UNL        c0         1    -0.22772       12.0110 ; qtot   -0.228
         2            c1bf         1   UNL        c1         2     0.19212       12.0110 ; qtot   -0.036
         3            c2bf         1   UNL        c2         3    -0.16099       12.0110 ; qtot   -0.197
         4            c3bf         1   UNL        c3         4    -0.02961       12.0110 ; qtot   -0.226
         5            c4bf         1   UNL        c4         5     0.31904       12.0110 ; qtot    0.093
         6            c5bf         1   UNL        c5         6     0.28063       12.0110 ; qtot    0.373
         7            n6bf         1   UNL        n6         7    -0.61815       14.0070 ; qtot   -0.245
         8            c7bf         1   UNL        c7         8     0.29560       12.0110 ; qtot    0.051
         9            c8bf         1   UNL        c8         9     0.29621       12.0110 ; qtot    0.347
        10            n9bf         1   UNL        n9        10    -0.62613       14.0070 ; qtot   -0.279
        11           c10bf         1   UNL       c10        11    -0.02365       12.0110 ; qtot   -0.303
        12           c11bf         1   UNL       c11        12    -0.13841       12.0110 ; qtot   -0.441
        13           c12bf         1   UNL       c12        13    -0.08699       12.0110 ; qtot   -0.528
        14           c13bf         1   UNL       c13        14    -0.12505       12.0110 ; qtot   -0.653
        15           c14bf         1   UNL       c14        15    -0.05127       12.0110 ; qtot   -0.704
        16           c15bf         1   UNL       c15        16    -0.09144       12.0110 ; qtot   -0.796
        17           c16bf         1   UNL       c16        17    -0.19068       12.0110 ; qtot   -0.986
        18           c17bf         1   UNL       c17        18    -0.10251       12.0110 ; qtot   -1.089
        19           n18bf         1   UNL       n18        19    -0.07889       14.0070 ; qtot   -1.168
        20           n19bf         1   UNL       n19        20    -0.56559       14.0070 ; qtot   -1.733
        21           c20bf         1   UNL       c20        21     0.03587       12.0110 ; qtot   -1.698
        22           c21bf         1   UNL       c21        22     0.10616       12.0110 ; qtot   -1.591
        23           c22bf         1   UNL       c22        23    -0.19497       12.0110 ; qtot   -1.786
        24           c23bf         1   UNL       c23        24    -0.15444       12.0110 ; qtot   -1.941
        25           c24bf         1   UNL       c24        25     0.37038       12.0110 ; qtot   -1.570
        26           n25bf         1   UNL       n25        26    -0.61618       14.0070 ; qtot   -2.187
        27           c26bf         1   UNL       c26        27     0.36238       12.0110 ; qtot   -1.824
        28           s27bf         1   UNL       s27        28     1.01693       32.0670 ; qtot   -0.807
        29           o28bf         1   UNL       o28        29    -0.57977       15.9990 ; qtot   -1.387
        30           o29bf         1   UNL       o29        30    -0.57977       15.9990 ; qtot   -1.967
        31           c30bf         1   UNL       c30        31    -0.18447       12.0110 ; qtot   -2.151
        32           c31bf         1   UNL       c31        32     0.21680       12.0110 ; qtot   -1.935
        33           h32bf         1   UNL       h32        33     0.15588        1.0080 ; qtot   -1.779
        34           h33bf         1   UNL       h33        34     0.14417        1.0080 ; qtot   -1.635
        35           h34bf         1   UNL       h34        35     0.03380        1.0080 ; qtot   -1.601
        36           h35bf         1   UNL       h35        36     0.03331        1.0080 ; qtot   -1.567
        37           h36bf         1   UNL       h36        37     0.13697        1.0080 ; qtot   -1.430
        38           h37bf         1   UNL       h37        38     0.13662        1.0080 ; qtot   -1.294
        39           h38bf         1   UNL       h38        39     0.13971        1.0080 ; qtot   -1.154
        40           h39bf         1   UNL       h39        40     0.15551        1.0080 ; qtot   -0.999
        41           h40bf         1   UNL       h40        41     0.16110        1.0080 ; qtot   -0.837
        42           h41bf         1   UNL       h41        42     0.04975        1.0080 ; qtot   -0.788
        43           h42bf         1   UNL       h42        43     0.04975        1.0080 ; qtot   -0.738
        44           h43bf         1   UNL       h43        44     0.04975        1.0080 ; qtot   -0.688
        45           h44bf         1   UNL       h44        45     0.17108        1.0080 ; qtot   -0.517
        46           h45bf         1   UNL       h45        46     0.03424        1.0080 ; qtot   -0.483
        47           h46bf         1   UNL       h46        47     0.03958        1.0080 ; qtot   -0.443
        48           h47bf         1   UNL       h47        48     0.10378        1.0080 ; qtot   -0.340
        49           h48bf         1   UNL       h48        49     0.10378        1.0080 ; qtot   -0.236
        50           h49bf         1   UNL       h49        50     0.10378        1.0080 ; qtot   -0.132
        51           h50bf         1   UNL       h50        51     0.04400        1.0080 ; qtot   -0.088
        52           h51bf         1   UNL       h51        52     0.04400        1.0080 ; qtot   -0.044
        53           h52bf         1   UNL       h52        53     0.04400        1.0080 ; qtot   -0.000

[ bonds ]
;       ai        aj funct               r               k
         1         2     1        0.138802   363308.845020    ;  uncertainty r = 0.000078, k = 8.635393
         1         5     1        0.141589   389706.835889    ;  uncertainty r = 0.000121, k = 15.264837
         1        33     1        0.108727   340095.663672    ;  uncertainty r = 0.000040, k = 0.524815
         2         3     1        0.141980   333352.053662    ;  uncertainty r = 0.000211, k = 12.456585
         2        20     1        0.140936   351119.114453    ;  uncertainty r = 0.000255, k = 18.248590
         3         4     1        0.138035   345826.676221    ;  uncertainty r = 0.000120, k = 12.781871
         3        34     1        0.108813   338711.501270    ;  uncertainty r = 0.000015, k = 2.776313
         4         6     1        0.142970   311590.554834    ;  uncertainty r = 0.000166, k = 16.402767
         4        11     1        0.148126   284177.719238    ;  uncertainty r = 0.000124, k = 14.960664
         5         6     1        0.142941   298707.619434    ;  uncertainty r = 0.000062, k = 14.653067
         5        10     1        0.136369   357411.713574    ;  uncertainty r = 0.000059, k = 6.540131
         6         7     1        0.135767   353109.910889    ;  uncertainty r = 0.000088, k = 12.675249
         7         8     1        0.131584   437137.956152    ;  uncertainty r = 0.000061, k = 11.801030
         8         9     1        0.141378   325245.374902    ;  uncertainty r = 0.000067, k = 16.241067
         8        35     1        0.109180   341408.015723    ;  uncertainty r = 0.000031, k = 1.111543
         9        10     1        0.131606   448634.967090    ;  uncertainty r = 0.000067, k = 6.059784
         9        36     1        0.109175   341608.175586    ;  uncertainty r = 0.000026, k = 2.358932
        11        12     1        0.141773   332885.056543    ;  uncertainty r = 0.000129, k = 5.382996
        11        14     1        0.139578   348941.182080    ;  uncertainty r = 0.000096, k = 3.247029
        12        13     1        0.138795   364168.909326    ;  uncertainty r = 0.000031, k = 1.854519
        12        37     1        0.108772   335281.433350    ;  uncertainty r = 0.000023, k = 2.010175
        13        16     1        0.140496   366588.397217    ;  uncertainty r = 0.000029, k = 1.524532
        13        38     1        0.108842   335262.612500    ;  uncertainty r = 0.000021, k = 1.243220
        14        15     1        0.139638   360882.589795    ;  uncertainty r = 0.000073, k = 8.112548
        14        39     1        0.108815   335784.335645    ;  uncertainty r = 0.000035, k = 1.319592
        15        16     1        0.142478   370413.039014    ;  uncertainty r = 0.000021, k = 8.656161
        15        19     1        0.138409   299089.858887    ;  uncertainty r = 0.000058, k = 4.369580
        16        17     1        0.143851   263887.949561    ;  uncertainty r = 0.000049, k = 9.849674
        17        18     1        0.137643   438880.659570    ;  uncertainty r = 0.000039, k = 2.390663
        17        40     1        0.108258   339903.752295    ;  uncertainty r = 0.000020, k = 1.257357
        18        19     1        0.138800   299198.085156    ;  uncertainty r = 0.000053, k = 11.566371
        18        41     1        0.108278   339863.020605    ;  uncertainty r = 0.000024, k = 2.230051
        19        21     1        0.145040   254644.665137    ;  uncertainty r = 0.000030, k = 4.755567
        20        22     1        0.141996   330523.588965    ;  uncertainty r = 0.000284, k = 23.903233
        20        32     1        0.146160   245680.016113    ;  uncertainty r = 0.000126, k = 11.968215
        21        42     1        0.109426   310040.631055    ;  uncertainty r = 0.000012, k = 1.344889
        21        43     1        0.109426   310040.631055    ;  uncertainty r = 0.000012, k = 1.344889
        21        44     1        0.109426   310040.631055    ;  uncertainty r = 0.000012, k = 1.344889
        22        23     1        0.140273   341784.585938    ;  uncertainty r = 0.000093, k = 29.310083
        22        27     1        0.140393   325135.412109    ;  uncertainty r = 0.000119, k = 15.884603
        23        24     1        0.138673   369745.882031    ;  uncertainty r = 0.000183, k = 17.560874
        23        28     1        0.180790   139927.092236    ;  uncertainty r = 0.000092, k = 23.967656
        24        25     1        0.139381   362931.840674    ;  uncertainty r = 0.000075, k = 6.779939
        24        45     1        0.108609   332168.587402    ;  uncertainty r = 0.000046, k = 1.586484
        25        26     1        0.133699   401253.976172    ;  uncertainty r = 0.000117, k = 5.365125
        25        46     1        0.108994   339519.240039    ;  uncertainty r = 0.000025, k = 1.411838
        26        27     1        0.133027   386728.596045    ;  uncertainty r = 0.000169, k = 10.780904
        27        47     1        0.108902   335491.093018    ;  uncertainty r = 0.000029, k = 3.397394
        28        29     1        0.147587   506142.085840    ;  uncertainty r = 0.000080, k = 5.411632
        28        30     1        0.147587   506142.085840    ;  uncertainty r = 0.000080, k = 5.411632
        28        31     1        0.180963   172479.398779    ;  uncertainty r = 0.000083, k = 8.824888
        31        48     1        0.109286   321567.954541    ;  uncertainty r = 0.000031, k = 1.364985
        31        49     1        0.109286   321567.954541    ;  uncertainty r = 0.000031, k = 1.364985
        31        50     1        0.109286   321567.954541    ;  uncertainty r = 0.000031, k = 1.364985
        32        51     1        0.109541   308807.112061    ;  uncertainty r = 0.000026, k = 2.656398
        32        52     1        0.109541   308807.112061    ;  uncertainty r = 0.000026, k = 2.656398
        32        53     1        0.109541   308807.086523    ;  uncertainty r = 0.000026, k = 2.656393

[ angles ]
;       ai        aj        ak funct           theta             cth
         1         2         3     1      121.095932      376.847356    ;  uncertainty theta = 0.006824, k = 0.218414
         1         2        20     1      121.376770      455.572391    ;  uncertainty theta = 0.002848, k = 0.171886
         1         5         6     1      119.704994      395.482232    ;  uncertainty theta = 0.004639, k = 0.231457
         1         5        10     1      122.238060      523.084783    ;  uncertainty theta = 0.003238, k = 0.208180
         2         1         5     1      119.362488      517.100098    ;  uncertainty theta = 0.003369, k = 0.143834
         2         1        33     1      121.378281      266.298199    ;  uncertainty theta = 0.003461, k = 0.142750
         2         3         4     1      123.292130      523.636289    ;  uncertainty theta = 0.004955, k = 0.196876
         2         3        34     1      119.161728      281.586181    ;  uncertainty theta = 0.004069, k = 0.098264
         2        20        22     1      112.838829      402.637060    ;  uncertainty theta = 0.004282, k = 0.150488
         2        20        32     1      113.831726      434.868882    ;  uncertainty theta = 0.008825, k = 0.110832
         3         2        20     1      119.918777      450.118941    ;  uncertainty theta = 0.005126, k = 0.117024
         3         4         6     1      121.627213      450.016825    ;  uncertainty theta = 0.004959, k = 0.214384
         3         4        11     1      121.185623      417.290923    ;  uncertainty theta = 0.002083, k = 0.139985
         4         3        34     1      118.102989      276.193095    ;  uncertainty theta = 0.003124, k = 0.111323
         4         6         5     1      120.675926      391.868508    ;  uncertainty theta = 0.005431, k = 0.138594
         4         6         7     1      118.153671      465.273715    ;  uncertainty theta = 0.004078, k = 0.241875
         4        11        12     1      119.929794      397.839626    ;  uncertainty theta = 0.002940, k = 0.100339
         4        11        14     1      119.839127      387.381127    ;  uncertainty theta = 0.001955, k = 0.193422
         5         1        33     1      120.135658      276.760370    ;  uncertainty theta = 0.002719, k = 0.106308
         5         6         7     1      119.641235      514.650578    ;  uncertainty theta = 0.003549, k = 0.078609
         5        10         9     1      114.460716      489.223023    ;  uncertainty theta = 0.002146, k = 0.145254
         6         4        11     1      119.348984      395.802818    ;  uncertainty theta = 0.004415, k = 0.264000
         6         5        10     1      119.220680      554.172958    ;  uncertainty theta = 0.007682, k = 0.101573
         6         7         8     1      116.502525      472.887605    ;  uncertainty theta = 0.004302, k = 0.130226
         7         8         9     1      121.240555      622.447314    ;  uncertainty theta = 0.002919, k = 0.205880
         7         8        35     1      116.813492      347.959523    ;  uncertainty theta = 0.001638, k = 0.087624
         8         9        10     1      120.931259      612.842998    ;  uncertainty theta = 0.002470, k = 0.239696
         8         9        36     1      121.868530      283.534439    ;  uncertainty theta = 0.002376, k = 0.096063
         9         8        35     1      121.994606      282.804174    ;  uncertainty theta = 0.002439, k = 0.090842
        10         9        36     1      116.754013      350.159800    ;  uncertainty theta = 0.001533, k = 0.075385
        11        12        13     1      122.513977      519.825227    ;  uncertainty theta = 0.002504, k = 0.082970
        11        12        37     1      118.705055      283.822243    ;  uncertainty theta = 0.003481, k = 0.052326
        11        14        15     1      118.386093      529.920716    ;  uncertainty theta = 0.003401, k = 0.180792
        11        14        39     1      120.176918      276.179337    ;  uncertainty theta = 0.003371, k = 0.099806
        12        11        14     1      122.892189      427.495488    ;  uncertainty theta = 0.004657, k = 0.054030
        12        13        16     1      119.126968      545.225329    ;  uncertainty theta = 0.002014, k = 0.075473
        12        13        38     1      120.552231      281.882188    ;  uncertainty theta = 0.001756, k = 0.032676
        13        12        37     1      119.644821      296.182906    ;  uncertainty theta = 0.002811, k = 0.056213
        13        16        15     1      116.316528      401.555212    ;  uncertainty theta = 0.003524, k = 0.104666
        13        16        17     1      133.137314      372.613048    ;  uncertainty theta = 0.003601, k = 0.161997
        14        15        16     1      122.096420      362.937197    ;  uncertainty theta = 0.001381, k = 0.132828
        14        15        19     1      127.554398      386.261612    ;  uncertainty theta = 0.001561, k = 0.197526
        15        14        39     1      122.049515      289.470445    ;  uncertainty theta = 0.001404, k = 0.108597
        15        16        17     1      106.331848      697.004628    ;  uncertainty theta = 0.002119, k = 0.268284
        15        19        18     1      107.260864      818.300726    ;  uncertainty theta = 0.002708, k = 0.112517
        15        19        21     1      120.714661      413.315913    ;  uncertainty theta = 0.003757, k = 0.146507
        16        13        38     1      121.660202      297.421073    ;  uncertainty theta = 0.001725, k = 0.098896
        16        15        19     1      108.699356      659.259248    ;  uncertainty theta = 0.001396, k = 0.199015
        16        17        18     1      106.600060      811.238758    ;  uncertainty theta = 0.002477, k = 0.071833
        16        17        40     1      125.357811      254.842571    ;  uncertainty theta = 0.003088, k = 0.059341
        17        18        19     1      111.357628      756.000331    ;  uncertainty theta = 0.002253, k = 0.100899
        17        18        41     1      128.154099      239.476972    ;  uncertainty theta = 0.003447, k = 0.106541
        18        17        40     1      123.663986      251.202927    ;  uncertainty theta = 0.003182, k = 0.069918
        18        19        21     1      121.539627      391.310362    ;  uncertainty theta = 0.002440, k = 0.111857
        19        18        41     1      117.041054      288.340843    ;  uncertainty theta = 0.001716, k = 0.115275
        19        21        42     1      109.087296      471.938965    ;  uncertainty theta = 0.000901, k = 0.078971
        19        21        43     1      109.087296      471.938965    ;  uncertainty theta = 0.000901, k = 0.078971
        19        21        44     1      109.087296      471.938965    ;  uncertainty theta = 0.000901, k = 0.078971
        20        22        23     1      120.428665      433.465969    ;  uncertainty theta = 0.005694, k = 0.299723
        20        22        27     1      120.549240      421.948062    ;  uncertainty theta = 0.005551, k = 0.232653
        20        32        51     1      108.982590      455.068735    ;  uncertainty theta = 0.000945, k = 0.027964
        20        32        52     1      108.982590      455.068735    ;  uncertainty theta = 0.000945, k = 0.027964
        20        32        53     1      108.982590      455.068735    ;  uncertainty theta = 0.000945, k = 0.027964
        22        20        32     1      113.865089      405.193899    ;  uncertainty theta = 0.005592, k = 0.295984
        22        23        24     1      124.300621      412.471464    ;  uncertainty theta = 0.008369, k = 0.166404
        22        23        28     1      117.289246      345.388319    ;  uncertainty theta = 0.009180, k = 0.544874
        22        27        26     1      125.876633      664.707591    ;  uncertainty theta = 0.003670, k = 0.326023
        22        27        47     1      118.206505      264.061580    ;  uncertainty theta = 0.007031, k = 0.147162
        23        22        27     1      120.643509      377.226327    ;  uncertainty theta = 0.008471, k = 0.276310
        23        24        25     1      117.666061      468.148141    ;  uncertainty theta = 0.001274, k = 0.157563
        23        24        45     1      120.056908      256.937588    ;  uncertainty theta = 0.006024, k = 0.145634
        23        28        29     1      112.142761      564.237516    ;  uncertainty theta = 0.003787, k = 0.140930
        23        28        30     1      112.142761      564.237516    ;  uncertainty theta = 0.003787, k = 0.140930
        23        28        31     1      104.043228      601.214676    ;  uncertainty theta = 0.003720, k = 0.087793
        24        23        28     1      116.924110      351.687239    ;  uncertainty theta = 0.012758, k = 0.204486
        24        25        26     1      122.789505      667.841441    ;  uncertainty theta = 0.000891, k = 0.122181
        24        25        46     1      120.077957      277.361162    ;  uncertainty theta = 0.001856, k = 0.059092
        25        24        45     1      122.169754      280.485277    ;  uncertainty theta = 0.004096, k = 0.103508
        25        26        27     1      116.861191      442.238732    ;  uncertainty theta = 0.001997, k = 0.180180
        26        25        46     1      116.797974      337.022681    ;  uncertainty theta = 0.001002, k = 0.068622
        26        27        47     1      116.801468      342.411522    ;  uncertainty theta = 0.002918, k = 0.185428
        28        31        48     1      106.892319      365.712155    ;  uncertainty theta = 0.001603, k = 0.030089
        28        31        49     1      106.892319      365.712155    ;  uncertainty theta = 0.001603, k = 0.030089
        28        31        50     1      106.892319      365.712155    ;  uncertainty theta = 0.001603, k = 0.030089
        29        28        30     1      123.813477      844.166881    ;  uncertainty theta = 0.001892, k = 0.068673
        29        28        31     1      112.824661      744.141535    ;  uncertainty theta = 0.002480, k = 0.153181
        30        28        31     1      112.824661      744.141535    ;  uncertainty theta = 0.002480, k = 0.153181
        42        21        43     1      107.317055      322.193856    ;  uncertainty theta = 0.001017, k = 0.038184
        42        21        44     1      107.317055      322.193856    ;  uncertainty theta = 0.001017, k = 0.038184
        43        21        44     1      107.317055      322.193856    ;  uncertainty theta = 0.001017, k = 0.038184
        48        31        49     1      108.843689      296.191748    ;  uncertainty theta = 0.002069, k = 0.023129
        48        31        50     1      108.843689      296.191748    ;  uncertainty theta = 0.002069, k = 0.023129
        49        31        50     1      108.843689      296.191748    ;  uncertainty theta = 0.002069, k = 0.023129
        51        32        52     1      106.905807      331.850172    ;  uncertainty theta = 0.003044, k = 0.096709
        51        32        53     1      106.905807      331.850172    ;  uncertainty theta = 0.003044, k = 0.096709
        52        32        53     1      106.905807      331.850172    ;  uncertainty theta = 0.003044, k = 0.096709

[ dihedrals ] ; propers for gromacs 4.5 or higher, use funct 9
;       ai        aj        ak        al funct           phase               k        pn
         1         2         3         4     9        0.000000       -0.004802         1    ;  uncertainty k = 0.383709
         1         2         3         4     9      180.000000        5.935759         2    ;  uncertainty k = 1.008959
         1         2         3         4     9        0.000000        0.246376         3    ;  uncertainty k = 0.262948
         1         2         3         4     9      180.000000        1.346612         4    ;  uncertainty k = 0.299650
         1         2         3        34     9        0.000000        0.251398         1    ;  uncertainty k = 0.404323
         1         2         3        34     9      180.000000        6.090608         2    ;  uncertainty k = 0.765888
         1         2         3        34     9        0.000000        1.268669         3    ;  uncertainty k = 0.179239
         1         2         3        34     9      180.000000        1.543716         4    ;  uncertainty k = 0.223100
         1         2        20        22     9        0.000000        1.306576         1    ;  uncertainty k = 0.655297
         1         2        20        22     9      180.000000        5.128716         2    ;  uncertainty k = 0.491005
         1         2        20        22     9        0.000000        0.177101         3    ;  uncertainty k = 0.294188
         1         2        20        22     9      180.000000       -0.074644         4    ;  uncertainty k = 0.091911
         1         2        20        32     9        0.000000        1.580476         1    ;  uncertainty k = 0.929193
         1         2        20        32     9      180.000000        6.654975         2    ;  uncertainty k = 0.181055
         1         2        20        32     9        0.000000        0.156535         3    ;  uncertainty k = 0.331860
         1         2        20        32     9      180.000000        0.180067         4    ;  uncertainty k = 0.098408
         1         5         6         4     9        0.000000       -0.641650         1    ;  uncertainty k = 0.560558
         1         5         6         4     9      180.000000        4.586156         2    ;  uncertainty k = 1.491702
         1         5         6         4     9        0.000000        0.301216         3    ;  uncertainty k = 0.288539
         1         5         6         4     9      180.000000        1.220207         4    ;  uncertainty k = 0.328380
         1         5         6         7     9        0.000000        0.084014         1    ;  uncertainty k = 0.183959
         1         5         6         7     9      180.000000        5.983563         2    ;  uncertainty k = 1.166084
         1         5         6         7     9        0.000000        0.088083         3    ;  uncertainty k = 0.173895
         1         5         6         7     9      180.000000        1.345064         4    ;  uncertainty k = 0.416890
         1         5        10         9     9        0.000000        0.544157         1    ;  uncertainty k = 1.090770
         1         5        10         9     9      180.000000       12.568578         2    ;  uncertainty k = 0.363700
         1         5        10         9     9        0.000000        2.225830         3    ;  uncertainty k = 0.374008
         1         5        10         9     9      180.000000        1.387570         4    ;  uncertainty k = 0.252122
         2         1         5         6     9        0.000000        0.046718         1    ;  uncertainty k = 0.492298
         2         1         5         6     9      180.000000        7.742164         2    ;  uncertainty k = 0.862656
         2         1         5         6     9        0.000000        0.052059         3    ;  uncertainty k = 0.416416
         2         1         5         6     9      180.000000        1.281358         4    ;  uncertainty k = 0.326837
         2         1         5        10     9        0.000000        0.090833         1    ;  uncertainty k = 0.409946
         2         1         5        10     9      180.000000       10.219011         2    ;  uncertainty k = 0.312514
         2         1         5        10     9        0.000000        0.588735         3    ;  uncertainty k = 0.440347
         2         1         5        10     9      180.000000        1.372396         4    ;  uncertainty k = 0.267335
         2         3         4         6     9        0.000000        0.069263         1    ;  uncertainty k = 0.414200
         2         3         4         6     9      180.000000       12.372053         2    ;  uncertainty k = 0.300910
         2         3         4         6     9        0.000000        0.468291         3    ;  uncertainty k = 0.200278
         2         3         4         6     9      180.000000        1.371844         4    ;  uncertainty k = 0.247870
         2         3         4        11     9        0.000000        0.123162         1    ;  uncertainty k = 0.228281
         2         3         4        11     9      180.000000       10.796310         2    ;  uncertainty k = 0.443958
         2         3         4        11     9        0.000000        1.318586         3    ;  uncertainty k = 0.399989
         2         3         4        11     9      180.000000        1.746022         4    ;  uncertainty k = 0.297161
         2        20        22        23     9        0.000000        1.110049         1    ;  uncertainty k = 1.844504
         2        20        22        23     9      180.000000        7.866932         2    ;  uncertainty k = 0.622212
         2        20        22        23     9        0.000000        0.234884         3    ;  uncertainty k = 0.711599
         2        20        22        23     9      180.000000        0.206294         4    ;  uncertainty k = 0.283738
         2        20        22        27     9        0.000000        3.658707         1    ;  uncertainty k = 1.708429
         2        20        22        27     9      180.000000        5.478996         2    ;  uncertainty k = 0.456758
         2        20        22        27     9        0.000000        0.210400         3    ;  uncertainty k = 0.201505
         2        20        22        27     9      180.000000        0.049568         4    ;  uncertainty k = 0.086869
         2        20        32        51     9        0.000000        0.011256         1    ;  uncertainty k = 0.403657
         2        20        32        51     9      180.000000       -1.428006         2    ;  uncertainty k = 0.064663
         2        20        32        51     9        0.000000        0.611258         3    ;  uncertainty k = 0.079570
         2        20        32        51     9      180.000000        0.268714         4    ;  uncertainty k = 0.110745
         2        20        32        52     9        0.000000        0.011256         1    ;  uncertainty k = 0.403657
         2        20        32        52     9      180.000000       -1.428006         2    ;  uncertainty k = 0.064663
         2        20        32        52     9        0.000000        0.611258         3    ;  uncertainty k = 0.079570
         2        20        32        52     9      180.000000        0.268714         4    ;  uncertainty k = 0.110745
         2        20        32        53     9        0.000000        0.011256         1    ;  uncertainty k = 0.403657
         2        20        32        53     9      180.000000       -1.428006         2    ;  uncertainty k = 0.064663
         2        20        32        53     9        0.000000        0.611258         3    ;  uncertainty k = 0.079570
         2        20        32        53     9      180.000000        0.268714         4    ;  uncertainty k = 0.110745
         3         2         1         5     9        0.000000       -0.267009         1    ;  uncertainty k = 0.689606
         3         2         1         5     9      180.000000        9.663960         2    ;  uncertainty k = 0.249059
         3         2         1         5     9        0.000000        0.324794         3    ;  uncertainty k = 0.514299
         3         2         1         5     9      180.000000        1.281916         4    ;  uncertainty k = 0.330300
         3         2         1        33     9        0.000000        0.353210         1    ;  uncertainty k = 0.449368
         3         2         1        33     9      180.000000        7.230489         2    ;  uncertainty k = 0.600791
         3         2         1        33     9        0.000000        1.443689         3    ;  uncertainty k = 0.214724
         3         2         1        33     9      180.000000        1.693744         4    ;  uncertainty k = 0.162153
         3         2        20        22     9        0.000000        1.294317         1    ;  uncertainty k = 0.568505
         3         2        20        22     9      180.000000        5.155755         2    ;  uncertainty k = 0.551087
         3         2        20        22     9        0.000000        0.607858         3    ;  uncertainty k = 0.256336
         3         2        20        22     9      180.000000       -0.000976         4    ;  uncertainty k = 0.100972
         3         2        20        32     9        0.000000        2.072489         1    ;  uncertainty k = 0.807321
         3         2        20        32     9      180.000000        6.601229         2    ;  uncertainty k = 0.188701
         3         2        20        32     9        0.000000        0.532908         3    ;  uncertainty k = 0.289025
         3         2        20        32     9      180.000000        0.178923         4    ;  uncertainty k = 0.070504
         3         4         6         5     9        0.000000       -0.069972         1    ;  uncertainty k = 0.444878
         3         4         6         5     9      180.000000        5.718517         2    ;  uncertainty k = 0.933258
         3         4         6         5     9        0.000000       -0.010459         3    ;  uncertainty k = 0.241504
         3         4         6         5     9      180.000000        1.001514         4    ;  uncertainty k = 0.332178
         3         4         6         7     9        0.000000        0.245754         1    ;  uncertainty k = 0.505151
         3         4         6         7     9      180.000000        6.893262         2    ;  uncertainty k = 0.681610
         3         4         6         7     9        0.000000        0.320939         3    ;  uncertainty k = 0.303118
         3         4         6         7     9      180.000000        1.155491         4    ;  uncertainty k = 0.329101
         3         4        11        12     9        0.000000       -0.290586         1    ;  uncertainty k = 0.370366
         3         4        11        12     9      180.000000        5.794415         2    ;  uncertainty k = 0.127407
         3         4        11        12     9        0.000000        0.321815         3    ;  uncertainty k = 0.194156
         3         4        11        12     9      180.000000        0.607924         4    ;  uncertainty k = 0.092437
         3         4        11        14     9        0.000000       -0.454266         1    ;  uncertainty k = 0.390558
         3         4        11        14     9      180.000000        5.508298         2    ;  uncertainty k = 0.175457
         3         4        11        14     9        0.000000        0.483195         3    ;  uncertainty k = 0.117962
         3         4        11        14     9      180.000000        0.534667         4    ;  uncertainty k = 0.096181
         4         3         2        20     9        0.000000        0.460746         1    ;  uncertainty k = 0.346202
         4         3         2        20     9      180.000000        7.950308         2    ;  uncertainty k = 0.694727
         4         3         2        20     9        0.000000        1.036883         3    ;  uncertainty k = 0.270518
         4         3         2        20     9      180.000000        1.622534         4    ;  uncertainty k = 0.223341
         4         6         5        10     9        0.000000       -0.250694         1    ;  uncertainty k = 0.748031
         4         6         5        10     9      180.000000        5.072250         2    ;  uncertainty k = 1.105528
         4         6         5        10     9        0.000000        0.137664         3    ;  uncertainty k = 0.377536
         4         6         5        10     9      180.000000        1.334470         4    ;  uncertainty k = 0.215029
         4         6         7         8     9        0.000000       -0.283374         1    ;  uncertainty k = 0.565684
         4         6         7         8     9      180.000000       12.419450         2    ;  uncertainty k = 0.554985
         4         6         7         8     9        0.000000        2.054506         3    ;  uncertainty k = 0.348470
         4         6         7         8     9      180.000000        1.329690         4    ;  uncertainty k = 0.164772
         4        11        12        13     9        0.000000        0.088528         1    ;  uncertainty k = 0.312015
         4        11        12        13     9      180.000000        7.706520         2    ;  uncertainty k = 0.665484
         4        11        12        13     9        0.000000        1.139839         3    ;  uncertainty k = 0.433633
         4        11        12        13     9      180.000000        1.837323         4    ;  uncertainty k = 0.129812
         4        11        12        37     9        0.000000       -0.193287         1    ;  uncertainty k = 0.083323
         4        11        12        37     9      180.000000        7.289006         2    ;  uncertainty k = 0.454592
         4        11        12        37     9        0.000000        0.819977         3    ;  uncertainty k = 0.194501
         4        11        12        37     9      180.000000        1.136515         4    ;  uncertainty k = 0.176503
         4        11        14        15     9        0.000000       -0.027793         1    ;  uncertainty k = 0.489358
         4        11        14        15     9      180.000000       10.587263         2    ;  uncertainty k = 0.747348
         4        11        14        15     9        0.000000        1.448334         3    ;  uncertainty k = 0.242552
         4        11        14        15     9      180.000000        1.677797         4    ;  uncertainty k = 0.259759
         4        11        14        39     9        0.000000       -0.223546         1    ;  uncertainty k = 0.220854
         4        11        14        39     9      180.000000        7.804593         2    ;  uncertainty k = 0.222166
         4        11        14        39     9        0.000000        0.855780         3    ;  uncertainty k = 0.211979
         4        11        14        39     9      180.000000        1.176134         4    ;  uncertainty k = 0.100201
         5         1         2        20     9        0.000000        0.025876         1    ;  uncertainty k = 0.533920
         5         1         2        20     9      180.000000       10.873072         2    ;  uncertainty k = 0.528696
         5         1         2        20     9        0.000000        1.051842         3    ;  uncertainty k = 0.124147
         5         1         2        20     9      180.000000        1.628157         4    ;  uncertainty k = 0.139863
         5         6         4        11     9        0.000000        0.169780         1    ;  uncertainty k = 0.742302
         5         6         4        11     9      180.000000        5.051164         2    ;  uncertainty k = 0.514663
         5         6         4        11     9        0.000000        1.071464         3    ;  uncertainty k = 0.258577
         5         6         4        11     9      180.000000        1.258501         4    ;  uncertainty k = 0.338681
         5         6         7         8     9        0.000000       -0.083519         1    ;  uncertainty k = 0.878829
         5         6         7         8     9      180.000000       11.594970         2    ;  uncertainty k = 0.619672
         5         6         7         8     9        0.000000        1.460994         3    ;  uncertainty k = 0.317850
         5         6         7         8     9      180.000000        1.326146         4    ;  uncertainty k = 0.328744
         5        10         9         8     9        0.000000        0.011853         1    ;  uncertainty k = 0.135643
         5        10         9         8     9      180.000000       17.267479         2    ;  uncertainty k = 0.207972
         5        10         9         8     9        0.000000        0.867313         3    ;  uncertainty k = 0.641115
         5        10         9         8     9      180.000000        1.516979         4    ;  uncertainty k = 0.238913
         5        10         9        36     9        0.000000        0.406697         1    ;  uncertainty k = 0.508051
         5        10         9        36     9      180.000000       19.162394         2    ;  uncertainty k = 0.453687
         5        10         9        36     9        0.000000        2.361055         3    ;  uncertainty k = 0.573534
         5        10         9        36     9      180.000000        1.378442         4    ;  uncertainty k = 0.335481
         6         4         3        34     9        0.000000        0.106467         1    ;  uncertainty k = 0.208943
         6         4         3        34     9      180.000000        9.682864         2    ;  uncertainty k = 0.313321
         6         4         3        34     9        0.000000        1.464657         3    ;  uncertainty k = 0.119891
         6         4         3        34     9      180.000000        1.653733         4    ;  uncertainty k = 0.210260
         6         4        11        12     9        0.000000        0.365195         1    ;  uncertainty k = 0.693693
         6         4        11        12     9      180.000000        5.167078         2    ;  uncertainty k = 0.341180
         6         4        11        12     9        0.000000        0.450502         3    ;  uncertainty k = 0.378051
         6         4        11        12     9      180.000000        0.735867         4    ;  uncertainty k = 0.071484
         6         4        11        14     9        0.000000       -0.107772         1    ;  uncertainty k = 0.623673
         6         4        11        14     9      180.000000        5.081587         2    ;  uncertainty k = 0.335679
         6         4        11        14     9        0.000000        0.257650         3    ;  uncertainty k = 0.374430
         6         4        11        14     9      180.000000        0.716174         4    ;  uncertainty k = 0.132223
         6         5         1        33     9        0.000000       -0.144449         1    ;  uncertainty k = 0.466544
         6         5         1        33     9      180.000000        5.857355         2    ;  uncertainty k = 0.701407
         6         5         1        33     9        0.000000        1.181007         3    ;  uncertainty k = 0.075642
         6         5         1        33     9      180.000000        1.235107         4    ;  uncertainty k = 0.318691
         6         5        10         9     9        0.000000       -0.080853         1    ;  uncertainty k = 1.346811
         6         5        10         9     9      180.000000       10.126531         2    ;  uncertainty k = 0.653744
         6         5        10         9     9        0.000000        1.273705         3    ;  uncertainty k = 0.517106
         6         5        10         9     9      180.000000        1.283804         4    ;  uncertainty k = 0.224610
         6         7         8         9     9        0.000000        0.020377         1    ;  uncertainty k = 0.368422
         6         7         8         9     9      180.000000       16.581266         2    ;  uncertainty k = 0.335688
         6         7         8         9     9        0.000000        0.829256         3    ;  uncertainty k = 0.750676
         6         7         8         9     9      180.000000        1.566270         4    ;  uncertainty k = 0.253962
         6         7         8        35     9        0.000000        0.275900         1    ;  uncertainty k = 0.531876
         6         7         8        35     9      180.000000       18.156242         2    ;  uncertainty k = 0.522836
         6         7         8        35     9        0.000000        2.344022         3    ;  uncertainty k = 0.655907
         6         7         8        35     9      180.000000        1.633482         4    ;  uncertainty k = 0.415921
         7         6         4        11     9        0.000000        0.239920         1    ;  uncertainty k = 1.277910
         7         6         4        11     9      180.000000        7.226335         2    ;  uncertainty k = 0.756886
         7         6         4        11     9        0.000000        0.768003         3    ;  uncertainty k = 0.523490
         7         6         4        11     9      180.000000        1.179024         4    ;  uncertainty k = 0.261927
         7         6         5        10     9        0.000000       -0.419710         1    ;  uncertainty k = 0.913827
         7         6         5        10     9      180.000000        7.103650         2    ;  uncertainty k = 0.711356
         7         6         5        10     9        0.000000        0.090482         3    ;  uncertainty k = 0.316990
         7         6         5        10     9      180.000000        1.336084         4    ;  uncertainty k = 0.345564
         7         8         9        10     9        0.000000       -0.202866         1    ;  uncertainty k = 0.782206
         7         8         9        10     9      180.000000       12.112991         2    ;  uncertainty k = 0.805807
         7         8         9        10     9        0.000000       -1.599825         3    ;  uncertainty k = 0.569696
         7         8         9        10     9      180.000000        0.918172         4    ;  uncertainty k = 0.463986
         7         8         9        36     9        0.000000        0.036887         1    ;  uncertainty k = 0.700692
         7         8         9        36     9      180.000000        6.513920         2    ;  uncertainty k = 1.135261
         7         8         9        36     9        0.000000        0.521732         3    ;  uncertainty k = 0.385188
         7         8         9        36     9      180.000000        1.117821         4    ;  uncertainty k = 0.330142
        10         5         1        33     9        0.000000        0.129729         1    ;  uncertainty k = 0.203812
        10         5         1        33     9      180.000000        8.249904         2    ;  uncertainty k = 0.425303
        10         5         1        33     9        0.000000        0.983314         3    ;  uncertainty k = 0.364607
        10         5         1        33     9      180.000000        1.228889         4    ;  uncertainty k = 0.296526
        10         9         8        35     9        0.000000       -0.033262         1    ;  uncertainty k = 0.634830
        10         9         8        35     9      180.000000        6.504272         2    ;  uncertainty k = 1.136878
        10         9         8        35     9        0.000000        0.521238         3    ;  uncertainty k = 0.433609
        10         9         8        35     9      180.000000        1.070757         4    ;  uncertainty k = 0.343719
        11         4         3        34     9        0.000000        0.185769         1    ;  uncertainty k = 0.247037
        11         4         3        34     9      180.000000        8.489176         2    ;  uncertainty k = 0.249530
        11         4         3        34     9        0.000000        0.998959         3    ;  uncertainty k = 0.182797
        11         4         3        34     9      180.000000        1.405936         4    ;  uncertainty k = 0.305505
        11        12        13        16     9        0.000000       -0.088237         1    ;  uncertainty k = 0.303401
        11        12        13        16     9      180.000000       16.637935         2    ;  uncertainty k = 0.333977
        11        12        13        16     9        0.000000       -0.360479         3    ;  uncertainty k = 0.532645
        11        12        13        16     9      180.000000        0.692098         4    ;  uncertainty k = 0.430868
        11        12        13        38     9        0.000000       -0.068872         1    ;  uncertainty k = 0.208187
        11        12        13        38     9      180.000000        8.826761         2    ;  uncertainty k = 0.512391
        11        12        13        38     9        0.000000        1.364385         3    ;  uncertainty k = 0.219987
        11        12        13        38     9      180.000000        1.899722         4    ;  uncertainty k = 0.318557
        11        14        15        16     9        0.000000       -0.149024         1    ;  uncertainty k = 0.543451
        11        14        15        16     9      180.000000       12.121193         2    ;  uncertainty k = 0.115800
        11        14        15        16     9        0.000000       -0.939443         3    ;  uncertainty k = 0.507589
        11        14        15        16     9      180.000000        0.860046         4    ;  uncertainty k = 0.197235
        11        14        15        19     9        0.000000        0.212529         1    ;  uncertainty k = 0.147666
        11        14        15        19     9      180.000000       10.459763         2    ;  uncertainty k = 0.471484
        11        14        15        19     9        0.000000        1.021284         3    ;  uncertainty k = 0.274552
        11        14        15        19     9      180.000000        1.335798         4    ;  uncertainty k = 0.221198
        12        11        14        15     9        0.000000       -0.053115         1    ;  uncertainty k = 0.278158
        12        11        14        15     9      180.000000       13.312170         2    ;  uncertainty k = 0.270025
        12        11        14        15     9        0.000000       -0.017985         3    ;  uncertainty k = 0.385054
        12        11        14        15     9      180.000000        0.899869         4    ;  uncertainty k = 0.336493
        12        11        14        39     9        0.000000        0.324286         1    ;  uncertainty k = 0.275976
        12        11        14        39     9      180.000000        7.772422         2    ;  uncertainty k = 0.500279
        12        11        14        39     9        0.000000        1.473056         3    ;  uncertainty k = 0.166957
        12        11        14        39     9      180.000000        1.643832         4    ;  uncertainty k = 0.220962
        12        13        16        15     9        0.000000        0.015179         1    ;  uncertainty k = 0.183013
        12        13        16        15     9      180.000000       13.267788         2    ;  uncertainty k = 0.263041
        12        13        16        15     9        0.000000       -1.677048         3    ;  uncertainty k = 0.342200
        12        13        16        15     9      180.000000        0.680123         4    ;  uncertainty k = 0.245766
        12        13        16        17     9        0.000000        0.168081         1    ;  uncertainty k = 0.172640
        12        13        16        17     9      180.000000        8.937069         2    ;  uncertainty k = 0.347169
        12        13        16        17     9        0.000000        0.640838         3    ;  uncertainty k = 0.199488
        12        13        16        17     9      180.000000        1.231015         4    ;  uncertainty k = 0.108242
        13        12        11        14     9        0.000000       -0.234353         1    ;  uncertainty k = 0.151821
        13        12        11        14     9      180.000000       10.060344         2    ;  uncertainty k = 0.243332
        13        12        11        14     9        0.000000       -0.319786         3    ;  uncertainty k = 0.496922
        13        12        11        14     9      180.000000        0.990976         4    ;  uncertainty k = 0.258596
        13        16        15        14     9        0.000000       -0.563658         1    ;  uncertainty k = 1.052576
        13        16        15        14     9      180.000000        7.918710         2    ;  uncertainty k = 0.880080
        13        16        15        14     9        0.000000        0.146189         3    ;  uncertainty k = 0.303935
        13        16        15        14     9      180.000000        0.889831         4    ;  uncertainty k = 0.388926
        13        16        15        19     9        0.000000        0.176056         1    ;  uncertainty k = 0.453596
        13        16        15        19     9      180.000000        8.243113         2    ;  uncertainty k = 0.257976
        13        16        15        19     9        0.000000       -0.059609         3    ;  uncertainty k = 0.396357
        13        16        15        19     9      180.000000        1.309643         4    ;  uncertainty k = 0.308186
        13        16        17        18     9        0.000000        0.511305         1    ;  uncertainty k = 0.793984
        13        16        17        18     9      180.000000        6.744679         2    ;  uncertainty k = 0.997873
        13        16        17        18     9        0.000000        0.274717         3    ;  uncertainty k = 0.537264
        13        16        17        18     9      180.000000        1.010143         4    ;  uncertainty k = 0.225695
        13        16        17        40     9        0.000000        0.606453         1    ;  uncertainty k = 0.850022
        13        16        17        40     9      180.000000        4.093390         2    ;  uncertainty k = 0.848756
        13        16        17        40     9        0.000000        1.375301         3    ;  uncertainty k = 0.426874
        13        16        17        40     9      180.000000        0.101118         4    ;  uncertainty k = 0.145411
        14        11        12        37     9        0.000000        0.170680         1    ;  uncertainty k = 0.094348
        14        11        12        37     9      180.000000        6.588587         2    ;  uncertainty k = 0.576707
        14        11        12        37     9        0.000000        1.389950         3    ;  uncertainty k = 0.140404
        14        11        12        37     9      180.000000        1.590416         4    ;  uncertainty k = 0.228049
        14        15        16        17     9        0.000000        0.110683         1    ;  uncertainty k = 0.560069
        14        15        16        17     9      180.000000        7.680716         2    ;  uncertainty k = 0.276652
        14        15        16        17     9        0.000000        0.240823         3    ;  uncertainty k = 0.430528
        14        15        16        17     9      180.000000        1.182835         4    ;  uncertainty k = 0.239317
        14        15        19        18     9        0.000000        1.096033         1    ;  uncertainty k = 1.298951
        14        15        19        18     9      180.000000        6.112340         2    ;  uncertainty k = 0.742501
        14        15        19        18     9        0.000000        0.700126         3    ;  uncertainty k = 0.193201
        14        15        19        18     9      180.000000        0.290744         4    ;  uncertainty k = 0.152037
        14        15        19        21     9        0.000000        0.381171         1    ;  uncertainty k = 1.813554
        14        15        19        21     9      180.000000        2.830187         2    ;  uncertainty k = 0.478377
        14        15        19        21     9        0.000000        0.849606         3    ;  uncertainty k = 0.419853
        14        15        19        21     9      180.000000        0.083786         4    ;  uncertainty k = 0.135735
        15        16        13        38     9        0.000000        0.124387         1    ;  uncertainty k = 0.373034
        15        16        13        38     9      180.000000        7.210887         2    ;  uncertainty k = 0.881417
        15        16        13        38     9        0.000000        1.401519         3    ;  uncertainty k = 0.369643
        15        16        13        38     9      180.000000        1.163098         4    ;  uncertainty k = 0.413706
        15        16        17        18     9        0.000000        0.450027         1    ;  uncertainty k = 0.908073
        15        16        17        18     9      180.000000       13.173235         2    ;  uncertainty k = 0.776587
        15        16        17        18     9        0.000000      -10.991006         3    ;  uncertainty k = 2.573421
        15        16        17        18     9      180.000000        1.867148         4    ;  uncertainty k = 0.661434
        15        16        17        40     9        0.000000        0.023374         1    ;  uncertainty k = 0.592172
        15        16        17        40     9      180.000000        8.114225         2    ;  uncertainty k = 0.620356
        15        16        17        40     9        0.000000        1.336432         3    ;  uncertainty k = 0.600040
        15        16        17        40     9      180.000000        0.332209         4    ;  uncertainty k = 0.200949
        15        19        18        17     9        0.000000       -0.256602         1    ;  uncertainty k = 0.388703
        15        19        18        17     9      180.000000       15.681418         2    ;  uncertainty k = 0.602078
        15        19        18        17     9        0.000000       -6.396111         3    ;  uncertainty k = 1.656550
        15        19        18        17     9      180.000000        0.936026         4    ;  uncertainty k = 0.391999
        15        19        18        41     9        0.000000        1.176326         1    ;  uncertainty k = 0.849237
        15        19        18        41     9      180.000000        7.035330         2    ;  uncertainty k = 0.660686
        15        19        18        41     9        0.000000        1.598165         3    ;  uncertainty k = 0.299780
        15        19        18        41     9      180.000000        0.164807         4    ;  uncertainty k = 0.100188
        15        19        21        42     9        0.000000       -0.408568         1    ;  uncertainty k = 0.246905
        15        19        21        42     9      180.000000       -1.317196         2    ;  uncertainty k = 0.168942
        15        19        21        42     9        0.000000        1.090647         3    ;  uncertainty k = 0.080702
        15        19        21        42     9      180.000000        0.217211         4    ;  uncertainty k = 0.045154
        15        19        21        43     9        0.000000       -0.408568         1    ;  uncertainty k = 0.246905
        15        19        21        43     9      180.000000       -1.317196         2    ;  uncertainty k = 0.168942
        15        19        21        43     9        0.000000        1.090647         3    ;  uncertainty k = 0.080702
        15        19        21        43     9      180.000000        0.217211         4    ;  uncertainty k = 0.045154
        15        19        21        44     9        0.000000       -0.408568         1    ;  uncertainty k = 0.246905
        15        19        21        44     9      180.000000       -1.317196         2    ;  uncertainty k = 0.168942
        15        19        21        44     9        0.000000        1.090647         3    ;  uncertainty k = 0.080702
        15        19        21        44     9      180.000000        0.217211         4    ;  uncertainty k = 0.045154
        16        13        12        37     9        0.000000       -0.025946         1    ;  uncertainty k = 0.303009
        16        13        12        37     9      180.000000       11.299048         2    ;  uncertainty k = 0.337051
        16        13        12        37     9        0.000000        1.440131         3    ;  uncertainty k = 0.287190
        16        13        12        37     9      180.000000        1.704245         4    ;  uncertainty k = 0.284573
        16        15        14        39     9        0.000000        0.113361         1    ;  uncertainty k = 0.441545
        16        15        14        39     9      180.000000        6.764952         2    ;  uncertainty k = 0.865473
        16        15        14        39     9        0.000000        1.346687         3    ;  uncertainty k = 0.169660
        16        15        14        39     9      180.000000        1.338700         4    ;  uncertainty k = 0.261595
        16        15        19        18     9        0.000000        0.268811         1    ;  uncertainty k = 0.833799
        16        15        19        18     9      180.000000       14.131316         2    ;  uncertainty k = 0.606105
        16        15        19        18     9        0.000000       -6.512747         3    ;  uncertainty k = 1.135818
        16        15        19        18     9      180.000000        0.929198         4    ;  uncertainty k = 0.439288
        16        15        19        21     9        0.000000        2.277569         1    ;  uncertainty k = 0.770886
        16        15        19        21     9      180.000000        5.178088         2    ;  uncertainty k = 0.354898
        16        15        19        21     9        0.000000        1.568715         3    ;  uncertainty k = 0.279168
        16        15        19        21     9      180.000000        0.176309         4    ;  uncertainty k = 0.114600
        16        17        18        19     9        0.000000       -0.277607         1    ;  uncertainty k = 0.238564
        16        17        18        19     9      180.000000       22.092014         2    ;  uncertainty k = 0.248817
        16        17        18        19     9        0.000000       -6.461113         3    ;  uncertainty k = 0.282795
        16        17        18        19     9      180.000000        1.349535         4    ;  uncertainty k = 0.401228
        16        17        18        41     9        0.000000       -0.004714         1    ;  uncertainty k = 0.396226
        16        17        18        41     9      180.000000       12.360945         2    ;  uncertainty k = 0.135928
        16        17        18        41     9        0.000000        1.866097         3    ;  uncertainty k = 0.177332
        16        17        18        41     9      180.000000        0.972890         4    ;  uncertainty k = 0.182999
        17        16        13        38     9        0.000000        0.105499         1    ;  uncertainty k = 0.553991
        17        16        13        38     9      180.000000        5.639369         2    ;  uncertainty k = 0.488478
        17        16        13        38     9        0.000000        1.044664         3    ;  uncertainty k = 0.341162
        17        16        13        38     9      180.000000        0.711452         4    ;  uncertainty k = 0.362067
        17        16        15        19     9        0.000000       -0.248706         1    ;  uncertainty k = 0.120972
        17        16        15        19     9      180.000000       12.895532         2    ;  uncertainty k = 0.840948
        17        16        15        19     9        0.000000       -3.668924         3    ;  uncertainty k = 1.019109
        17        16        15        19     9      180.000000        1.520072         4    ;  uncertainty k = 0.794284
        17        18        19        21     9        0.000000        1.377314         1    ;  uncertainty k = 0.855302
        17        18        19        21     9      180.000000        8.854296         2    ;  uncertainty k = 0.336077
        17        18        19        21     9        0.000000        1.850755         3    ;  uncertainty k = 0.421572
        17        18        19        21     9      180.000000        0.005711         4    ;  uncertainty k = 0.191906
        18        19        21        42     9        0.000000        0.012373         1    ;  uncertainty k = 0.156207
        18        19        21        42     9      180.000000       -1.304491         2    ;  uncertainty k = 0.215975
        18        19        21        42     9        0.000000        0.598725         3    ;  uncertainty k = 0.126338
        18        19        21        42     9      180.000000        0.181531         4    ;  uncertainty k = 0.051525
        18        19        21        43     9        0.000000        0.012373         1    ;  uncertainty k = 0.156207
        18        19        21        43     9      180.000000       -1.304491         2    ;  uncertainty k = 0.215975
        18        19        21        43     9        0.000000        0.598725         3    ;  uncertainty k = 0.126338
        18        19        21        43     9      180.000000        0.181531         4    ;  uncertainty k = 0.051525
        18        19        21        44     9        0.000000        0.012373         1    ;  uncertainty k = 0.156207
        18        19        21        44     9      180.000000       -1.304491         2    ;  uncertainty k = 0.215975
        18        19        21        44     9        0.000000        0.598725         3    ;  uncertainty k = 0.126338
        18        19        21        44     9      180.000000        0.181531         4    ;  uncertainty k = 0.051525
        19        15        14        39     9        0.000000        0.243928         1    ;  uncertainty k = 0.292557
        19        15        14        39     9      180.000000        5.709932         2    ;  uncertainty k = 0.412053
        19        15        14        39     9        0.000000        1.177664         3    ;  uncertainty k = 0.438420
        19        15        14        39     9      180.000000        0.924568         4    ;  uncertainty k = 0.367001
        19        18        17        40     9        0.000000        0.281181         1    ;  uncertainty k = 0.777507
        19        18        17        40     9      180.000000       14.368324         2    ;  uncertainty k = 0.563599
        19        18        17        40     9        0.000000        1.716576         3    ;  uncertainty k = 0.616570
        19        18        17        40     9      180.000000        0.925073         4    ;  uncertainty k = 0.423264
        20         2         1        33     9        0.000000       -0.066612         1    ;  uncertainty k = 0.411432
        20         2         1        33     9      180.000000        8.593185         2    ;  uncertainty k = 0.705225
        20         2         1        33     9        0.000000        0.773715         3    ;  uncertainty k = 0.148753
        20         2         1        33     9      180.000000        1.197839         4    ;  uncertainty k = 0.183972
        20         2         3        34     9        0.000000        0.122615         1    ;  uncertainty k = 0.741685
        20         2         3        34     9      180.000000        7.770333         2    ;  uncertainty k = 0.791124
        20         2         3        34     9        0.000000        0.721475         3    ;  uncertainty k = 0.170804
        20         2         3        34     9      180.000000        1.187366         4    ;  uncertainty k = 0.166659
        20        22        23        24     9        0.000000        0.577633         1    ;  uncertainty k = 0.295959
        20        22        23        24     9      180.000000        8.402114         2    ;  uncertainty k = 0.408396
        20        22        23        24     9        0.000000        1.200837         3    ;  uncertainty k = 0.437835
        20        22        23        24     9      180.000000        1.674433         4    ;  uncertainty k = 0.227353
        20        22        23        28     9        0.000000       -0.541629         1    ;  uncertainty k = 0.223079
        20        22        23        28     9      180.000000        8.040203         2    ;  uncertainty k = 0.656902
        20        22        23        28     9        0.000000        0.958746         3    ;  uncertainty k = 0.476893
        20        22        23        28     9      180.000000        1.236430         4    ;  uncertainty k = 0.427374
        20        22        27        26     9        0.000000        0.132648         1    ;  uncertainty k = 0.283806
        20        22        27        26     9      180.000000        9.766881         2    ;  uncertainty k = 0.554567
        20        22        27        26     9        0.000000        0.813511         3    ;  uncertainty k = 0.251564
        20        22        27        26     9      180.000000        1.640454         4    ;  uncertainty k = 0.230379
        20        22        27        47     9        0.000000        0.318010         1    ;  uncertainty k = 0.307891
        20        22        27        47     9      180.000000        7.070255         2    ;  uncertainty k = 0.990341
        20        22        27        47     9        0.000000        0.839016         3    ;  uncertainty k = 0.205300
        20        22        27        47     9      180.000000        1.396655         4    ;  uncertainty k = 0.341783
        21        19        18        41     9        0.000000       -0.357950         1    ;  uncertainty k = 0.336354
        21        19        18        41     9      180.000000        2.701717         2    ;  uncertainty k = 0.518907
        21        19        18        41     9        0.000000        1.060504         3    ;  uncertainty k = 0.337396
        21        19        18        41     9      180.000000        0.096607         4    ;  uncertainty k = 0.212503
        22        20        32        51     9        0.000000        0.394408         1    ;  uncertainty k = 0.380200
        22        20        32        51     9      180.000000       -1.957008         2    ;  uncertainty k = 0.399874
        22        20        32        51     9        0.000000        0.433303         3    ;  uncertainty k = 0.254185
        22        20        32        51     9      180.000000        0.259374         4    ;  uncertainty k = 0.112213
        22        20        32        52     9        0.000000        0.394408         1    ;  uncertainty k = 0.380200
        22        20        32        52     9      180.000000       -1.957008         2    ;  uncertainty k = 0.399874
        22        20        32        52     9        0.000000        0.433303         3    ;  uncertainty k = 0.254185
        22        20        32        52     9      180.000000        0.259374         4    ;  uncertainty k = 0.112213
        22        20        32        53     9        0.000000        0.394408         1    ;  uncertainty k = 0.380200
        22        20        32        53     9      180.000000       -1.957008         2    ;  uncertainty k = 0.399874
        22        20        32        53     9        0.000000        0.433303         3    ;  uncertainty k = 0.254185
        22        20        32        53     9      180.000000        0.259374         4    ;  uncertainty k = 0.112213
        22        23        24        25     9        0.000000       -0.252300         1    ;  uncertainty k = 0.171948
        22        23        24        25     9      180.000000       10.976708         2    ;  uncertainty k = 0.428950
        22        23        24        25     9        0.000000       -0.246955         3    ;  uncertainty k = 0.444534
        22        23        24        25     9      180.000000        1.096022         4    ;  uncertainty k = 0.247679
        22        23        24        45     9        0.000000        0.104384         1    ;  uncertainty k = 0.292415
        22        23        24        45     9      180.000000        7.597289         2    ;  uncertainty k = 0.546572
        22        23        24        45     9        0.000000        1.215488         3    ;  uncertainty k = 0.303893
        22        23        24        45     9      180.000000        1.638184         4    ;  uncertainty k = 0.077525
        22        23        28        29     9        0.000000       -3.860239         1    ;  uncertainty k = 2.804649
        22        23        28        29     9      180.000000       -0.174277         2    ;  uncertainty k = 0.748778
        22        23        28        29     9        0.000000        0.920842         3    ;  uncertainty k = 0.454258
        22        23        28        29     9      180.000000        0.085960         4    ;  uncertainty k = 0.281557
        22        23        28        30     9        0.000000       -3.860239         1    ;  uncertainty k = 2.804649
        22        23        28        30     9      180.000000       -0.174277         2    ;  uncertainty k = 0.748778
        22        23        28        30     9        0.000000        0.920842         3    ;  uncertainty k = 0.454258
        22        23        28        30     9      180.000000        0.085960         4    ;  uncertainty k = 0.281557
        22        23        28        31     9        0.000000        7.442961         1    ;  uncertainty k = 0.492501
        22        23        28        31     9      180.000000       -1.682908         2    ;  uncertainty k = 0.241473
        22        23        28        31     9        0.000000        0.350584         3    ;  uncertainty k = 0.507109
        22        23        28        31     9      180.000000        0.528337         4    ;  uncertainty k = 0.147208
        22        27        26        25     9        0.000000       -0.092500         1    ;  uncertainty k = 0.302996
        22        27        26        25     9      180.000000       15.369388         2    ;  uncertainty k = 0.197195
        22        27        26        25     9        0.000000        0.989686         3    ;  uncertainty k = 0.639131
        22        27        26        25     9      180.000000        1.502105         4    ;  uncertainty k = 0.237491
        23        22        20        32     9        0.000000        0.260370         1    ;  uncertainty k = 2.251202
        23        22        20        32     9      180.000000        8.260570         2    ;  uncertainty k = 0.679479
        23        22        20        32     9        0.000000       -0.112630         3    ;  uncertainty k = 0.597232
        23        22        20        32     9      180.000000        0.299443         4    ;  uncertainty k = 0.322948
        23        22        27        26     9        0.000000       -0.321414         1    ;  uncertainty k = 0.449649
        23        22        27        26     9      180.000000        7.005862         2    ;  uncertainty k = 0.763722
        23        22        27        26     9        0.000000        0.329571         3    ;  uncertainty k = 0.698360
        23        22        27        26     9      180.000000        1.465385         4    ;  uncertainty k = 0.252741
        23        22        27        47     9        0.000000       -0.061917         1    ;  uncertainty k = 0.325379
        23        22        27        47     9      180.000000        4.685429         2    ;  uncertainty k = 0.822208
        23        22        27        47     9        0.000000        1.078574         3    ;  uncertainty k = 0.236821
        23        22        27        47     9      180.000000        1.457593         4    ;  uncertainty k = 0.239452
        23        24        25        26     9        0.000000       -0.178112         1    ;  uncertainty k = 0.402499
        23        24        25        26     9      180.000000       13.169014         2    ;  uncertainty k = 0.580639
        23        24        25        26     9        0.000000       -1.163253         3    ;  uncertainty k = 1.085707
        23        24        25        26     9      180.000000        1.027131         4    ;  uncertainty k = 0.151145
        23        24        25        46     9        0.000000       -0.094968         1    ;  uncertainty k = 0.468111
        23        24        25        46     9      180.000000        6.455576         2    ;  uncertainty k = 0.389218
        23        24        25        46     9        0.000000        1.020865         3    ;  uncertainty k = 0.231286
        23        24        25        46     9      180.000000        1.465763         4    ;  uncertainty k = 0.185083
        23        28        31        48     9        0.000000        3.005256         1    ;  uncertainty k = 1.060431
        23        28        31        48     9      180.000000       -2.914175         2    ;  uncertainty k = 0.884199
        23        28        31        48     9        0.000000        0.028336         3    ;  uncertainty k = 0.087398
        23        28        31        48     9      180.000000       -0.016036         4    ;  uncertainty k = 0.192638
        23        28        31        49     9        0.000000        3.005256         1    ;  uncertainty k = 1.060431
        23        28        31        49     9      180.000000       -2.914175         2    ;  uncertainty k = 0.884199
        23        28        31        49     9        0.000000        0.028336         3    ;  uncertainty k = 0.087398
        23        28        31        49     9      180.000000       -0.016036         4    ;  uncertainty k = 0.192638
        23        28        31        50     9        0.000000        3.005256         1    ;  uncertainty k = 1.060431
        23        28        31        50     9      180.000000       -2.914175         2    ;  uncertainty k = 0.884199
        23        28        31        50     9        0.000000        0.028336         3    ;  uncertainty k = 0.087398
        23        28        31        50     9      180.000000       -0.016036         4    ;  uncertainty k = 0.192638
        24        23        22        27     9        0.000000       -0.909269         1    ;  uncertainty k = 1.201523
        24        23        22        27     9      180.000000        5.296048         2    ;  uncertainty k = 1.469413
        24        23        22        27     9        0.000000        0.243146         3    ;  uncertainty k = 0.475479
        24        23        22        27     9      180.000000        1.277514         4    ;  uncertainty k = 0.332230
        24        23        28        29     9        0.000000       -1.965387         1    ;  uncertainty k = 0.822418
        24        23        28        29     9      180.000000        0.131926         2    ;  uncertainty k = 0.532623
        24        23        28        29     9        0.000000       -0.053984         3    ;  uncertainty k = 0.171493
        24        23        28        29     9      180.000000        0.025044         4    ;  uncertainty k = 0.259581
        24        23        28        30     9        0.000000       -1.965387         1    ;  uncertainty k = 0.822418
        24        23        28        30     9      180.000000        0.131926         2    ;  uncertainty k = 0.532623
        24        23        28        30     9        0.000000       -0.053984         3    ;  uncertainty k = 0.171493
        24        23        28        30     9      180.000000        0.025044         4    ;  uncertainty k = 0.259581
        24        23        28        31     9        0.000000        2.190562         1    ;  uncertainty k = 1.606299
        24        23        28        31     9      180.000000        0.039161         2    ;  uncertainty k = 0.224245
        24        23        28        31     9        0.000000       -0.241808         3    ;  uncertainty k = 0.273066
        24        23        28        31     9      180.000000        0.468673         4    ;  uncertainty k = 0.210767
        24        25        26        27     9        0.000000       -0.522622         1    ;  uncertainty k = 0.512754
        24        25        26        27     9      180.000000       15.710703         2    ;  uncertainty k = 0.457544
        24        25        26        27     9        0.000000        0.937908         3    ;  uncertainty k = 0.783529
        24        25        26        27     9      180.000000        1.290159         4    ;  uncertainty k = 0.124674
        25        24        23        28     9        0.000000        0.527687         1    ;  uncertainty k = 0.954093
        25        24        23        28     9      180.000000        9.054044         2    ;  uncertainty k = 0.701411
        25        24        23        28     9        0.000000        1.532902         3    ;  uncertainty k = 0.508610
        25        24        23        28     9      180.000000        1.867886         4    ;  uncertainty k = 0.138653
        25        26        27        47     9        0.000000        0.408653         1    ;  uncertainty k = 0.340405
        25        26        27        47     9      180.000000       16.043351         2    ;  uncertainty k = 0.430915
        25        26        27        47     9        0.000000        2.323712         3    ;  uncertainty k = 0.341566
        25        26        27        47     9      180.000000        1.541098         4    ;  uncertainty k = 0.450157
        26        25        24        45     9        0.000000       -0.074931         1    ;  uncertainty k = 0.357177
        26        25        24        45     9      180.000000        9.165091         2    ;  uncertainty k = 0.876896
        26        25        24        45     9        0.000000        0.999804         3    ;  uncertainty k = 0.348982
        26        25        24        45     9      180.000000        1.665016         4    ;  uncertainty k = 0.192681
        27        22        20        32     9        0.000000        2.311801         1    ;  uncertainty k = 1.456418
        27        22        20        32     9      180.000000        6.080327         2    ;  uncertainty k = 0.347647
        27        22        20        32     9        0.000000        0.089124         3    ;  uncertainty k = 0.519566
        27        22        20        32     9      180.000000        0.299636         4    ;  uncertainty k = 0.094195
        27        22        23        28     9        0.000000        1.084890         1    ;  uncertainty k = 0.677744
        27        22        23        28     9      180.000000        5.147817         2    ;  uncertainty k = 0.987062
        27        22        23        28     9        0.000000        1.257556         3    ;  uncertainty k = 0.458613
        27        22        23        28     9      180.000000        1.541185         4    ;  uncertainty k = 0.268407
        27        26        25        46     9        0.000000        0.146434         1    ;  uncertainty k = 0.588178
        27        26        25        46     9      180.000000       15.702327         2    ;  uncertainty k = 0.502827
        27        26        25        46     9        0.000000        2.050309         3    ;  uncertainty k = 0.491238
        27        26        25        46     9      180.000000        1.404657         4    ;  uncertainty k = 0.388775
        28        23        24        45     9        0.000000       -0.500427         1    ;  uncertainty k = 0.615637
        28        23        24        45     9      180.000000        6.979686         2    ;  uncertainty k = 0.405629
        28        23        24        45     9        0.000000        0.743471         3    ;  uncertainty k = 0.212802
        28        23        24        45     9      180.000000        1.294782         4    ;  uncertainty k = 0.166045
        29        28        31        48     9        0.000000       -0.014960         1    ;  uncertainty k = 0.487811
        29        28        31        48     9      180.000000       -0.312416         2    ;  uncertainty k = 0.301145
        29        28        31        48     9        0.000000        0.791316         3    ;  uncertainty k = 0.022227
        29        28        31        48     9      180.000000        0.021872         4    ;  uncertainty k = 0.080837
        29        28        31        49     9        0.000000       -0.014960         1    ;  uncertainty k = 0.487811
        29        28        31        49     9      180.000000       -0.312416         2    ;  uncertainty k = 0.301145
        29        28        31        49     9        0.000000        0.791316         3    ;  uncertainty k = 0.022227
        29        28        31        49     9      180.000000        0.021872         4    ;  uncertainty k = 0.080837
        29        28        31        50     9        0.000000       -0.014960         1    ;  uncertainty k = 0.487811
        29        28        31        50     9      180.000000       -0.312416         2    ;  uncertainty k = 0.301145
        29        28        31        50     9        0.000000        0.791316         3    ;  uncertainty k = 0.022227
        29        28        31        50     9      180.000000        0.021872         4    ;  uncertainty k = 0.080837
        30        28        31        48     9        0.000000       -0.014960         1    ;  uncertainty k = 0.487811
        30        28        31        48     9      180.000000       -0.312416         2    ;  uncertainty k = 0.301145
        30        28        31        48     9        0.000000        0.791316         3    ;  uncertainty k = 0.022227
        30        28        31        48     9      180.000000        0.021872         4    ;  uncertainty k = 0.080837
        30        28        31        49     9        0.000000       -0.014960         1    ;  uncertainty k = 0.487811
        30        28        31        49     9      180.000000       -0.312416         2    ;  uncertainty k = 0.301145
        30        28        31        49     9        0.000000        0.791316         3    ;  uncertainty k = 0.022227
        30        28        31        49     9      180.000000        0.021872         4    ;  uncertainty k = 0.080837
        30        28        31        50     9        0.000000       -0.014960         1    ;  uncertainty k = 0.487811
        30        28        31        50     9      180.000000       -0.312416         2    ;  uncertainty k = 0.301145
        30        28        31        50     9        0.000000        0.791316         3    ;  uncertainty k = 0.022227
        30        28        31        50     9      180.000000        0.021872         4    ;  uncertainty k = 0.080837
        35         8         9        36     9        0.000000       -0.152652         1    ;  uncertainty k = 0.805688
        35         8         9        36     9      180.000000        5.398109         2    ;  uncertainty k = 0.723628
        35         8         9        36     9        0.000000        0.147471         3    ;  uncertainty k = 0.248173
        35         8         9        36     9      180.000000        0.216442         4    ;  uncertainty k = 0.153410
        37        12        13        38     9        0.000000       -0.116208         1    ;  uncertainty k = 0.085773
        37        12        13        38     9      180.000000        7.987768         2    ;  uncertainty k = 0.371552
        37        12        13        38     9        0.000000       -0.214199         3    ;  uncertainty k = 0.235185
        37        12        13        38     9      180.000000        0.260529         4    ;  uncertainty k = 0.235509
        40        17        18        41     9        0.000000       -0.013045         1    ;  uncertainty k = 0.452147
        40        17        18        41     9      180.000000        5.800985         2    ;  uncertainty k = 0.791053
        40        17        18        41     9        0.000000        1.154438         3    ;  uncertainty k = 0.426920
        40        17        18        41     9      180.000000        0.344798         4    ;  uncertainty k = 0.119750
        45        24        25        46     9        0.000000       -0.392009         1    ;  uncertainty k = 0.514464
        45        24        25        46     9      180.000000        6.649601         2    ;  uncertainty k = 0.312724
        45        24        25        46     9        0.000000       -0.112152         3    ;  uncertainty k = 0.217889
        45        24        25        46     9      180.000000        0.277112         4    ;  uncertainty k = 0.148310

[ dihedrals ] ; impropers
;       ai        aj        ak        al funct           phase               k        pn
         1         2         5        33     4      180.000000        3.215001         2    ;  uncertainty k = 0.336681
         1         5        33         2     4      180.000000        3.215001         2    ;  uncertainty k = 0.336681
         1        33         2         5     4      180.000000        3.215001         2    ;  uncertainty k = 0.336681
         2         1         3        20     4      180.000000       20.828092         2    ;  uncertainty k = 0.075900
         2         3        20         1     4      180.000000       20.828092         2    ;  uncertainty k = 0.075900
         2        20         1         3     4      180.000000       20.828092         2    ;  uncertainty k = 0.075900
         3         2         4        34     4      180.000000        3.698676         2    ;  uncertainty k = 0.454854
         3         4        34         2     4      180.000000        3.698676         2    ;  uncertainty k = 0.454854
         3        34         2         4     4      180.000000        3.698676         2    ;  uncertainty k = 0.454854
         4         3         6        11     4      180.000000       17.641330         2    ;  uncertainty k = 0.099541
         4         6        11         3     4      180.000000       17.641330         2    ;  uncertainty k = 0.099541
         4        11         3         6     4      180.000000       17.641330         2    ;  uncertainty k = 0.099541
         5         1         6        10     4      180.000000       18.172526         2    ;  uncertainty k = 0.043382
         5         6        10         1     4      180.000000       18.172526         2    ;  uncertainty k = 0.043382
         5        10         1         6     4      180.000000       18.172526         2    ;  uncertainty k = 0.043382
         6         4         5         7     4      180.000000       16.692483         2    ;  uncertainty k = 0.090167
         6         5         7         4     4      180.000000       16.692483         2    ;  uncertainty k = 0.090167
         6         7         4         5     4      180.000000       16.692483         2    ;  uncertainty k = 0.090167
         8         7         9        35     4      180.000000       12.058352         2    ;  uncertainty k = 0.155869
         8         9        35         7     4      180.000000       12.058352         2    ;  uncertainty k = 0.155869
         8        35         7         9     4      180.000000       12.058352         2    ;  uncertainty k = 0.155869
         9         8        10        36     4      180.000000       11.948848         2    ;  uncertainty k = 0.101429
         9        10        36         8     4      180.000000       11.948848         2    ;  uncertainty k = 0.101429
         9        36         8        10     4      180.000000       11.948848         2    ;  uncertainty k = 0.101429
        11         4        12        14     4      180.000000       12.784913         2    ;  uncertainty k = 0.170314
        11        12        14         4     4      180.000000       12.784913         2    ;  uncertainty k = 0.170314
        11        14         4        12     4      180.000000       12.784913         2    ;  uncertainty k = 0.170314
        12        11        13        37     4      180.000000        3.145470         2    ;  uncertainty k = 0.234153
        12        13        37        11     4      180.000000        3.145470         2    ;  uncertainty k = 0.234153
        12        37        11        13     4      180.000000        3.145470         2    ;  uncertainty k = 0.234153
        13        12        16        38     4      180.000000        3.905812         2    ;  uncertainty k = 0.125325
        13        16        38        12     4      180.000000        3.905812         2    ;  uncertainty k = 0.125325
        13        38        12        16     4      180.000000        3.905812         2    ;  uncertainty k = 0.125325
        14        11        15        39     4      180.000000        2.774840         2    ;  uncertainty k = 0.245478
        14        15        39        11     4      180.000000        2.774840         2    ;  uncertainty k = 0.245478
        14        39        11        15     4      180.000000        2.774840         2    ;  uncertainty k = 0.245478
        15        14        16        19     4      180.000000        0.447274         2    ;  uncertainty k = 0.540173
        15        16        19        14     4      180.000000        0.447274         2    ;  uncertainty k = 0.540173
        15        19        14        16     4      180.000000        0.447274         2    ;  uncertainty k = 0.540173
        18        17        19        41     4      180.000000        0.796715         2    ;  uncertainty k = 0.335582
        18        19        41        17     4      180.000000        0.796715         2    ;  uncertainty k = 0.335582
        18        41        17        19     4      180.000000        0.796715         2    ;  uncertainty k = 0.335582
        20         2        22        32     4      180.000000        0.251955         2    ;  uncertainty k = 0.563389
        20        22        32         2     4      180.000000        0.251955         2    ;  uncertainty k = 0.563389
        20        32         2        22     4      180.000000        0.251955         2    ;  uncertainty k = 0.563389
        22        20        23        27     4      180.000000       19.909135         2    ;  uncertainty k = 0.146233
        22        23        27        20     4      180.000000       19.909135         2    ;  uncertainty k = 0.146233
        22        27        20        23     4      180.000000       19.909135         2    ;  uncertainty k = 0.146233
        23        22        24        28     4      180.000000        9.330119         2    ;  uncertainty k = 0.299710
        23        24        28        22     4      180.000000        9.330119         2    ;  uncertainty k = 0.299710
        23        28        22        24     4      180.000000        9.330119         2    ;  uncertainty k = 0.299710
        24        23        25        45     4      180.000000        3.900525         2    ;  uncertainty k = 0.285501
        24        25        45        23     4      180.000000        3.900525         2    ;  uncertainty k = 0.285501
        24        45        23        25     4      180.000000        3.900525         2    ;  uncertainty k = 0.285501
        25        24        26        46     4      180.000000       11.724139         2    ;  uncertainty k = 0.091764
        25        26        46        24     4      180.000000       11.724139         2    ;  uncertainty k = 0.091764
        25        46        24        26     4      180.000000       11.724139         2    ;  uncertainty k = 0.091764
        27        22        26        47     4      180.000000       12.736455         2    ;  uncertainty k = 0.096242
        27        26        47        22     4      180.000000       12.736455         2    ;  uncertainty k = 0.096242
        27        47        22        26     4      180.000000       12.736455         2    ;  uncertainty k = 0.096242

[ pairs ]
;       ai        aj funct
         1         4     1
         1         7     1
         1         9     1
         1        22     1
         1        32     1
         1        34     1
         2         6     1
         2        10     1
         2        11     1
         2        23     1
         2        27     1
         2        51     1
         2        52     1
         2        53     1
         3         5     1
         3         7     1
         3        12     1
         3        14     1
         3        22     1
         3        32     1
         3        33     1
         4         8     1
         4        10     1
         4        13     1
         4        15     1
         4        20     1
         4        37     1
         4        39     1
         5         8     1
         5        11     1
         5        20     1
         5        36     1
         6         9     1
         6        12     1
         6        14     1
         6        33     1
         6        34     1
         6        35     1
         7        10     1
         7        11     1
         7        36     1
        10        33     1
        10        35     1
        11        16     1
        11        19     1
        11        34     1
        11        38     1
        12        15     1
        12        17     1
        12        39     1
        13        14     1
        13        18     1
        13        19     1
        13        40     1
        14        17     1
        14        18     1
        14        21     1
        14        37     1
        15        38     1
        15        40     1
        15        41     1
        15        42     1
        15        43     1
        15        44     1
        16        21     1
        16        37     1
        16        39     1
        16        41     1
        17        21     1
        17        38     1
        18        42     1
        18        43     1
        18        44     1
        19        39     1
        19        40     1
        20        24     1
        20        26     1
        20        28     1
        20        33     1
        20        34     1
        20        47     1
        21        41     1
        22        25     1
        22        29     1
        22        30     1
        22        31     1
        22        45     1
        22        51     1
        22        52     1
        22        53     1
        23        26     1
        23        32     1
        23        46     1
        23        47     1
        23        48     1
        23        49     1
        23        50     1
        24        27     1
        24        29     1
        24        30     1
        24        31     1
        25        28     1
        25        47     1
        26        45     1
        27        28     1
        27        32     1
        27        46     1
        28        45     1
        29        48     1
        29        49     1
        29        50     1
        30        48     1
        30        49     1
        30        50     1
        35        36     1
        37        38     1
        40        41     1
        45        46     1
