; ITP file created by ByteFF-joint-25, 2026-02-17 09:26:57.645875

[ atomtypes ]
;name           bonded.type        at.num        mass        charge   ptype           sigma         epsilon
 c0bf                                   6      0.0000       0.00000       A     3.31509e-01     4.13539e-01    ;  uncertainty sigma = 0.000009, epsilon = 0.000465
 c1bf                                   6      0.0000       0.00000       A     3.31549e-01     4.13719e-01    ;  uncertainty sigma = 0.000013, epsilon = 0.001589
 c2bf                                   6      0.0000       0.00000       A     3.31496e-01     4.13470e-01    ;  uncertainty sigma = 0.000006, epsilon = 0.000742
 c3bf                                   6      0.0000       0.00000       A     3.31488e-01     4.12665e-01    ;  uncertainty sigma = 0.000011, epsilon = 0.000854
 c4bf                                   6      0.0000       0.00000       A     3.31516e-01     4.13470e-01    ;  uncertainty sigma = 0.000011, epsilon = 0.000986
 c5bf                                   6      0.0000       0.00000       A     3.31519e-01     4.13020e-01    ;  uncertainty sigma = 0.000010, epsilon = 0.001115
 n6bf                                   7      0.0000       0.00000       A     3.38415e-01     3.93854e-01    ;  uncertainty sigma = 0.000010, epsilon = 0.001066
 c7bf                                   6      0.0000       0.00000       A     3.31531e-01     4.13178e-01    ;  uncertainty sigma = 0.000013, epsilon = 0.000482
 c8bf                                   6      0.0000       0.00000       A     3.31530e-01     4.13238e-01    ;  uncertainty sigma = 0.000010, epsilon = 0.000599
 n9bf                                   7      0.0000       0.00000       A     3.38414e-01     3.93827e-01    ;  uncertainty sigma = 0.000003, epsilon = 0.000862
 c10bf                                  6      0.0000       0.00000       A     3.31492e-01     4.13019e-01    ;  uncertainty sigma = 0.000020, epsilon = 0.000990
 n11bf                                  7      0.0000       0.00000       A     3.27909e-01     6.48597e-01    ;  uncertainty sigma = 0.000056, epsilon = 0.004468
 c12bf                                  6      0.0000       0.00000       A     3.31520e-01     4.13276e-01    ;  uncertainty sigma = 0.000004, epsilon = 0.000572
 c13bf                                  6      0.0000       0.00000       A     3.31527e-01     4.13211e-01    ;  uncertainty sigma = 0.000005, epsilon = 0.000881
 c14bf                                  6      0.0000       0.00000       A     3.31521e-01     4.13081e-01    ;  uncertainty sigma = 0.000007, epsilon = 0.000493
 c15bf                                  6      0.0000       0.00000       A     3.31522e-01     4.13356e-01    ;  uncertainty sigma = 0.000007, epsilon = 0.000813
 c16bf                                  6      0.0000       0.00000       A     3.31520e-01     4.13329e-01    ;  uncertainty sigma = 0.000004, epsilon = 0.000805
 c17bf                                  6      0.0000       0.00000       A     3.31516e-01     4.13261e-01    ;  uncertainty sigma = 0.000006, epsilon = 0.000450
 c18bf                                  6      0.0000       0.00000       A     3.31521e-01     4.12984e-01    ;  uncertainty sigma = 0.000005, epsilon = 0.000844
 n19bf                                  7      0.0000       0.00000       A     3.20630e-01     8.53726e-01    ;  uncertainty sigma = 0.000021, epsilon = 0.000808
 c20bf                                  6      0.0000       0.00000       A     3.31530e-01     4.12689e-01    ;  uncertainty sigma = 0.000022, epsilon = 0.001579
 c21bf                                  6      0.0000       0.00000       A     3.31557e-01     4.13077e-01    ;  uncertainty sigma = 0.000017, epsilon = 0.000599
 c22bf                                  6      0.0000       0.00000       A     3.31532e-01     4.13838e-01    ;  uncertainty sigma = 0.000018, epsilon = 0.001387
 c23bf                                  6      0.0000       0.00000       A     3.31516e-01     4.13197e-01    ;  uncertainty sigma = 0.000010, epsilon = 0.000578
 n24bf                                  7      0.0000       0.00000       A     3.38413e-01     3.93789e-01    ;  uncertainty sigma = 0.000010, epsilon = 0.000875
 c25bf                                  6      0.0000       0.00000       A     3.31486e-01     4.12930e-01    ;  uncertainty sigma = 0.000023, epsilon = 0.000894
 c26bf                                  6      0.0000       0.00000       A     3.31549e-01     4.13036e-01    ;  uncertainty sigma = 0.000017, epsilon = 0.001357
 o27bf                                  8      0.0000       0.00000       A     3.04796e-01     6.13158e-01    ;  uncertainty sigma = 0.000008, epsilon = 0.000676
 n28bf                                  7      0.0000       0.00000       A     3.26979e-01     4.90202e-01    ;  uncertainty sigma = 0.000022, epsilon = 0.001442
 c29bf                                  6      0.0000       0.00000       A     3.39752e-01     4.50815e-01    ;  uncertainty sigma = 0.000008, epsilon = 0.000628
 c30bf                                  6      0.0000       0.00000       A     3.39777e-01     4.51126e-01    ;  uncertainty sigma = 0.000006, epsilon = 0.000488
 c31bf                                  6      0.0000       0.00000       A     3.39779e-01     4.51109e-01    ;  uncertainty sigma = 0.000007, epsilon = 0.000611
 c32bf                                  6      0.0000       0.00000       A     3.39778e-01     4.50914e-01    ;  uncertainty sigma = 0.000003, epsilon = 0.000836
 o33bf                                  8      0.0000       0.00000       A     3.15613e-01     3.03556e-01    ;  uncertainty sigma = 0.000019, epsilon = 0.001085
 c34bf                                  6      0.0000       0.00000       A     3.39778e-01     4.50914e-01    ;  uncertainty sigma = 0.000003, epsilon = 0.000836
 c35bf                                  6      0.0000       0.00000       A     3.39779e-01     4.51109e-01    ;  uncertainty sigma = 0.000007, epsilon = 0.000611
 h36bf                                  1      0.0000       0.00000       A     2.62540e-01     6.71221e-02    ;  uncertainty sigma = 0.000022, epsilon = 0.000645
 h37bf                                  1      0.0000       0.00000       A     2.62566e-01     6.71158e-02    ;  uncertainty sigma = 0.000015, epsilon = 0.000400
 h38bf                                  1      0.0000       0.00000       A     2.53628e-01     6.69333e-02    ;  uncertainty sigma = 0.000020, epsilon = 0.000763
 h39bf                                  1      0.0000       0.00000       A     2.53628e-01     6.69333e-02    ;  uncertainty sigma = 0.000020, epsilon = 0.000763
 h40bf                                  1      0.0000       0.00000       A     1.10702e-01     4.11300e-02    ;  uncertainty sigma = 0.000124, epsilon = 0.001653
 h41bf                                  1      0.0000       0.00000       A     2.62563e-01     6.70733e-02    ;  uncertainty sigma = 0.000010, epsilon = 0.000583
 h42bf                                  1      0.0000       0.00000       A     2.62569e-01     6.69121e-02    ;  uncertainty sigma = 0.000009, epsilon = 0.000334
 h43bf                                  1      0.0000       0.00000       A     2.62578e-01     6.73015e-02    ;  uncertainty sigma = 0.000018, epsilon = 0.000492
 h44bf                                  1      0.0000       0.00000       A     2.62543e-01     6.72782e-02    ;  uncertainty sigma = 0.000012, epsilon = 0.000446
 h45bf                                  1      0.0000       0.00000       A     2.53669e-01     6.69808e-02    ;  uncertainty sigma = 0.000019, epsilon = 0.000693
 h46bf                                  1      0.0000       0.00000       A     2.62547e-01     6.70763e-02    ;  uncertainty sigma = 0.000010, epsilon = 0.000645
 h47bf                                  1      0.0000       0.00000       A     2.53633e-01     6.70627e-02    ;  uncertainty sigma = 0.000012, epsilon = 0.000390
 h48bf                                  1      0.0000       0.00000       A     2.53634e-01     6.70187e-02    ;  uncertainty sigma = 0.000039, epsilon = 0.000562
 h49bf                                  1      0.0000       0.00000       A     1.10650e-01     4.15746e-02    ;  uncertainty sigma = 0.000058, epsilon = 0.000814
 h50bf                                  1      0.0000       0.00000       A     2.42221e-01     8.66121e-02    ;  uncertainty sigma = 0.000019, epsilon = 0.000629
 h51bf                                  1      0.0000       0.00000       A     2.42192e-01     8.67346e-02    ;  uncertainty sigma = 0.000017, epsilon = 0.000545
 h52bf                                  1      0.0000       0.00000       A     2.42192e-01     8.67346e-02    ;  uncertainty sigma = 0.000017, epsilon = 0.000545
 h53bf                                  1      0.0000       0.00000       A     2.42192e-01     8.67346e-02    ;  uncertainty sigma = 0.000017, epsilon = 0.000545
 h54bf                                  1      0.0000       0.00000       A     2.60023e-01     8.67414e-02    ;  uncertainty sigma = 0.000008, epsilon = 0.000483
 h55bf                                  1      0.0000       0.00000       A     2.60023e-01     8.67414e-02    ;  uncertainty sigma = 0.000008, epsilon = 0.000483
 h56bf                                  1      0.0000       0.00000       A     2.42188e-01     8.67183e-02    ;  uncertainty sigma = 0.000018, epsilon = 0.000739
 h57bf                                  1      0.0000       0.00000       A     2.42188e-01     8.67183e-02    ;  uncertainty sigma = 0.000018, epsilon = 0.000739
 h58bf                                  1      0.0000       0.00000       A     2.42188e-01     8.67183e-02    ;  uncertainty sigma = 0.000018, epsilon = 0.000739
 h59bf                                  1      0.0000       0.00000       A     2.42188e-01     8.67183e-02    ;  uncertainty sigma = 0.000018, epsilon = 0.000739
 h60bf                                  1      0.0000       0.00000       A     2.60023e-01     8.67412e-02    ;  uncertainty sigma = 0.000008, epsilon = 0.000483
 h61bf                                  1      0.0000       0.00000       A     2.60023e-01     8.67412e-02    ;  uncertainty sigma = 0.000008, epsilon = 0.000483

[ moleculetype ]
;name             nrexcl
 MOL                   3

[ atoms ]
;       nr            type      resi   res      atom      cgnr      charge          mass ; qtot
         1            c0bf         1   UNL        c0         1    -0.22749       12.0110 ; qtot   -0.227
         2            c1bf         1   UNL        c1         2     0.18123       12.0110 ; qtot   -0.046
         3            c2bf         1   UNL        c2         3    -0.16302       12.0110 ; qtot   -0.209
         4            c3bf         1   UNL        c3         4    -0.02411       12.0110 ; qtot   -0.233
         5            c4bf         1   UNL        c4         5     0.32361       12.0110 ; qtot    0.090
         6            c5bf         1   UNL        c5         6     0.27545       12.0110 ; qtot    0.366
         7            n6bf         1   UNL        n6         7    -0.61815       14.0070 ; qtot   -0.252
         8            c7bf         1   UNL        c7         8     0.29560       12.0110 ; qtot    0.043
         9            c8bf         1   UNL        c8         9     0.29621       12.0110 ; qtot    0.339
        10            n9bf         1   UNL        n9        10    -0.62862       14.0070 ; qtot   -0.289
        11           c10bf         1   UNL       c10        11    -0.02479       12.0110 ; qtot   -0.314
        12           n11bf         1   UNL       n11        12    -0.65568       14.0070 ; qtot   -0.970
        13           c12bf         1   UNL       c12        13    -0.13841       12.0110 ; qtot   -1.108
        14           c13bf         1   UNL       c13        14    -0.08699       12.0110 ; qtot   -1.195
        15           c14bf         1   UNL       c14        15    -0.12505       12.0110 ; qtot   -1.320
        16           c15bf         1   UNL       c15        16    -0.05127       12.0110 ; qtot   -1.371
        17           c16bf         1   UNL       c16        17    -0.09144       12.0110 ; qtot   -1.463
        18           c17bf         1   UNL       c17        18    -0.19068       12.0110 ; qtot   -1.654
        19           c18bf         1   UNL       c18        19    -0.10251       12.0110 ; qtot   -1.756
        20           n19bf         1   UNL       n19        20    -0.07889       14.0070 ; qtot   -1.835
        21           c20bf         1   UNL       c20        21     0.11256       12.0110 ; qtot   -1.722
        22           c21bf         1   UNL       c21        22    -0.18220       12.0110 ; qtot   -1.905
        23           c22bf         1   UNL       c22        23    -0.18454       12.0110 ; qtot   -2.089
        24           c23bf         1   UNL       c23        24     0.35640       12.0110 ; qtot   -1.733
        25           n24bf         1   UNL       n24        25    -0.61575       14.0070 ; qtot   -2.349
        26           c25bf         1   UNL       c25        26     0.33984       12.0110 ; qtot   -2.009
        27           c26bf         1   UNL       c26        27     0.67858       12.0110 ; qtot   -1.330
        28           o27bf         1   UNL       o27        28    -0.62295       15.9990 ; qtot   -1.953
        29           n28bf         1   UNL       n28        29    -0.56530       14.0070 ; qtot   -2.518
        30           c29bf         1   UNL       c29        30     0.11736       12.0110 ; qtot   -2.401
        31           c30bf         1   UNL       c30        31     0.03587       12.0110 ; qtot   -2.365
        32           c31bf         1   UNL       c31        32    -0.12574       12.0110 ; qtot   -2.491
        33           c32bf         1   UNL       c32        33     0.13265       12.0110 ; qtot   -2.358
        34           o33bf         1   UNL       o33        34    -0.41540       15.9990 ; qtot   -2.774
        35           c34bf         1   UNL       c34        35     0.13265       12.0110 ; qtot   -2.641
        36           c35bf         1   UNL       c35        36    -0.12574       12.0110 ; qtot   -2.767
        37           h36bf         1   UNL       h36        37     0.15776        1.0080 ; qtot   -2.609
        38           h37bf         1   UNL       h37        38     0.14719        1.0080 ; qtot   -2.462
        39           h38bf         1   UNL       h38        39     0.03380        1.0080 ; qtot   -2.428
        40           h39bf         1   UNL       h39        40     0.03331        1.0080 ; qtot   -2.395
        41           h40bf         1   UNL       h40        41     0.47942        1.0080 ; qtot   -1.915
        42           h41bf         1   UNL       h41        42     0.13697        1.0080 ; qtot   -1.778
        43           h42bf         1   UNL       h42        43     0.13662        1.0080 ; qtot   -1.642
        44           h43bf         1   UNL       h43        44     0.13971        1.0080 ; qtot   -1.502
        45           h44bf         1   UNL       h44        45     0.15551        1.0080 ; qtot   -1.346
        46           h45bf         1   UNL       h45        46     0.16110        1.0080 ; qtot   -1.185
        47           h46bf         1   UNL       h46        47     0.15391        1.0080 ; qtot   -1.031
        48           h47bf         1   UNL       h47        48     0.02766        1.0080 ; qtot   -1.004
        49           h48bf         1   UNL       h48        49     0.03379        1.0080 ; qtot   -0.970
        50           h49bf         1   UNL       h49        50     0.32281        1.0080 ; qtot   -0.647
        51           h50bf         1   UNL       h50        51     0.07335        1.0080 ; qtot   -0.574
        52           h51bf         1   UNL       h51        52     0.04975        1.0080 ; qtot   -0.524
        53           h52bf         1   UNL       h52        53     0.04975        1.0080 ; qtot   -0.474
        54           h53bf         1   UNL       h53        54     0.04975        1.0080 ; qtot   -0.425
        55           h54bf         1   UNL       h54        55     0.05978        1.0080 ; qtot   -0.365
        56           h55bf         1   UNL       h55        56     0.05978        1.0080 ; qtot   -0.305
        57           h56bf         1   UNL       h56        57     0.04635        1.0080 ; qtot   -0.259
        58           h57bf         1   UNL       h57        58     0.04635        1.0080 ; qtot   -0.212
        59           h58bf         1   UNL       h58        59     0.04635        1.0080 ; qtot   -0.166
        60           h59bf         1   UNL       h59        60     0.04635        1.0080 ; qtot   -0.120
        61           h60bf         1   UNL       h60        61     0.05978        1.0080 ; qtot   -0.060
        62           h61bf         1   UNL       h61        62     0.05981        1.0080 ; qtot    0.000

[ bonds ]
;       ai        aj funct               r               k
         1         2     1        0.138845   382362.388770    ;  uncertainty r = 0.000130, k = 8.759529
         1         5     1        0.141431   396079.468311    ;  uncertainty r = 0.000094, k = 15.205670
         1        37     1        0.108811   340366.765625    ;  uncertainty r = 0.000031, k = 1.855831
         2         3     1        0.142087   351324.279590    ;  uncertainty r = 0.000215, k = 13.498721
         2        12     1        0.140843   349935.469434    ;  uncertainty r = 0.000219, k = 9.112463
         3         4     1        0.138000   347495.985986    ;  uncertainty r = 0.000143, k = 17.234335
         3        38     1        0.108883   338510.268848    ;  uncertainty r = 0.000020, k = 3.739164
         4         6     1        0.143085   310245.234375    ;  uncertainty r = 0.000128, k = 17.466674
         4        11     1        0.148137   283751.862402    ;  uncertainty r = 0.000105, k = 15.453581
         5         6     1        0.142995   298655.600342    ;  uncertainty r = 0.000072, k = 15.498948
         5        10     1        0.136382   355171.598340    ;  uncertainty r = 0.000057, k = 8.738544
         6         7     1        0.135767   353109.910889    ;  uncertainty r = 0.000088, k = 12.675249
         7         8     1        0.131584   437137.956152    ;  uncertainty r = 0.000061, k = 11.801030
         8         9     1        0.141378   325245.374902    ;  uncertainty r = 0.000067, k = 16.241067
         8        39     1        0.109180   341408.015723    ;  uncertainty r = 0.000031, k = 1.111543
         9        10     1        0.131606   448634.967090    ;  uncertainty r = 0.000067, k = 6.059784
         9        40     1        0.109175   341608.175586    ;  uncertainty r = 0.000026, k = 2.358932
        11        13     1        0.141773   332885.056543    ;  uncertainty r = 0.000129, k = 5.382996
        11        15     1        0.139578   348941.182080    ;  uncertainty r = 0.000096, k = 3.247029
        12        21     1        0.139304   338726.517090    ;  uncertainty r = 0.000282, k = 3.786572
        12        41     1        0.101437   406579.638184    ;  uncertainty r = 0.000168, k = 4.614139
        13        14     1        0.138795   364168.909326    ;  uncertainty r = 0.000031, k = 1.854519
        13        42     1        0.108772   335281.433350    ;  uncertainty r = 0.000023, k = 2.010175
        14        17     1        0.140496   366588.397217    ;  uncertainty r = 0.000029, k = 1.524532
        14        43     1        0.108842   335262.612500    ;  uncertainty r = 0.000021, k = 1.243220
        15        16     1        0.139638   360882.589795    ;  uncertainty r = 0.000073, k = 8.112548
        15        44     1        0.108815   335784.335645    ;  uncertainty r = 0.000035, k = 1.319592
        16        17     1        0.142478   370413.039014    ;  uncertainty r = 0.000021, k = 8.656161
        16        20     1        0.138409   299089.858887    ;  uncertainty r = 0.000058, k = 4.369580
        17        18     1        0.143851   263887.949561    ;  uncertainty r = 0.000049, k = 9.849674
        18        19     1        0.137643   438880.659570    ;  uncertainty r = 0.000039, k = 2.390663
        18        45     1        0.108258   339903.777832    ;  uncertainty r = 0.000020, k = 1.257351
        19        20     1        0.138800   299198.136230    ;  uncertainty r = 0.000053, k = 11.566426
        19        46     1        0.108278   339863.020605    ;  uncertainty r = 0.000024, k = 2.230044
        20        31     1        0.145040   254644.665137    ;  uncertainty r = 0.000030, k = 4.755567
        21        22     1        0.141334   329589.007373    ;  uncertainty r = 0.000109, k = 16.647248
        21        26     1        0.140895   334490.217090    ;  uncertainty r = 0.000199, k = 10.267290
        22        23     1        0.139532   364642.290723    ;  uncertainty r = 0.000123, k = 10.465618
        22        27     1        0.149769   247530.996875    ;  uncertainty r = 0.000076, k = 13.667857
        23        24     1        0.139179   363541.845605    ;  uncertainty r = 0.000103, k = 7.589325
        23        47     1        0.108757   335716.713379    ;  uncertainty r = 0.000039, k = 1.311182
        24        25     1        0.133882   393790.807031    ;  uncertainty r = 0.000054, k = 4.241381
        24        48     1        0.109026   338785.124756    ;  uncertainty r = 0.000019, k = 1.511795
        25        26     1        0.132606   386272.886328    ;  uncertainty r = 0.000101, k = 7.919672
        26        49     1        0.108940   334389.013525    ;  uncertainty r = 0.000075, k = 2.051961
        27        28     1        0.124351   730343.247852    ;  uncertainty r = 0.000144, k = 13.576040
        27        29     1        0.136542   265034.693457    ;  uncertainty r = 0.000120, k = 16.110150
        29        30     1        0.146261   238737.088965    ;  uncertainty r = 0.000060, k = 10.530020
        29        50     1        0.101455   412813.374268    ;  uncertainty r = 0.000069, k = 3.493228
        30        32     1        0.153845   205009.973242    ;  uncertainty r = 0.000073, k = 2.565730
        30        36     1        0.153845   205009.973242    ;  uncertainty r = 0.000073, k = 2.565703
        30        51     1        0.109319   304661.111279    ;  uncertainty r = 0.000036, k = 3.185370
        31        52     1        0.109426   310040.579980    ;  uncertainty r = 0.000012, k = 1.344857
        31        53     1        0.109426   310040.579980    ;  uncertainty r = 0.000012, k = 1.344857
        31        54     1        0.109426   310040.579980    ;  uncertainty r = 0.000012, k = 1.344857
        32        33     1        0.153638   209645.814087    ;  uncertainty r = 0.000019, k = 5.146359
        32        55     1        0.109623   311033.513867    ;  uncertainty r = 0.000020, k = 1.239795
        32        56     1        0.109623   311033.513867    ;  uncertainty r = 0.000020, k = 1.239795
        33        34     1        0.142790   254476.324512    ;  uncertainty r = 0.000034, k = 2.617271
        33        57     1        0.109821   309201.966846    ;  uncertainty r = 0.000020, k = 0.797779
        33        58     1        0.109821   309201.966846    ;  uncertainty r = 0.000020, k = 0.797779
        34        35     1        0.142790   254476.324512    ;  uncertainty r = 0.000034, k = 2.617271
        35        36     1        0.153638   209645.814087    ;  uncertainty r = 0.000019, k = 5.146385
        35        59     1        0.109821   309201.966846    ;  uncertainty r = 0.000020, k = 0.797779
        35        60     1        0.109821   309201.966846    ;  uncertainty r = 0.000020, k = 0.797779
        36        61     1        0.109623   311033.488330    ;  uncertainty r = 0.000020, k = 1.239783
        36        62     1        0.109623   311033.488330    ;  uncertainty r = 0.000020, k = 1.239783

[ angles ]
;       ai        aj        ak funct           theta             cth
         1         2         3     1      119.313034      387.945401    ;  uncertainty theta = 0.003928, k = 0.073699
         1         2        12     1      121.971436      487.603268    ;  uncertainty theta = 0.006594, k = 0.192356
         1         5         6     1      119.517235      392.036797    ;  uncertainty theta = 0.005326, k = 0.191059
         1         5        10     1      122.312637      528.712396    ;  uncertainty theta = 0.003351, k = 0.210335
         2         1         5     1      118.258041      519.489094    ;  uncertainty theta = 0.002320, k = 0.069528
         2         1        37     1      121.472092      270.295619    ;  uncertainty theta = 0.001195, k = 0.144454
         2         3         4     1      122.387405      516.194169    ;  uncertainty theta = 0.004388, k = 0.262711
         2         3        38     1      119.421829      285.355012    ;  uncertainty theta = 0.005100, k = 0.137947
         2        12        21     1      115.092758      395.243109    ;  uncertainty theta = 0.006135, k = 0.191848
         2        12        41     1      115.857620      376.445913    ;  uncertainty theta = 0.007533, k = 0.216812
         3         2        12     1      120.215759      494.664534    ;  uncertainty theta = 0.003256, k = 0.199841
         3         4         6     1      121.234207      456.906322    ;  uncertainty theta = 0.004548, k = 0.137789
         3         4        11     1      121.228798      423.141028    ;  uncertainty theta = 0.002961, k = 0.156452
         4         3        38     1      118.704933      277.851890    ;  uncertainty theta = 0.005306, k = 0.050256
         4         6         5     1      120.727844      398.377566    ;  uncertainty theta = 0.005688, k = 0.083900
         4         6         7     1      118.059143      466.719084    ;  uncertainty theta = 0.004200, k = 0.232797
         4        11        13     1      119.939163      397.252815    ;  uncertainty theta = 0.003248, k = 0.114583
         4        11        15     1      119.830284      387.483818    ;  uncertainty theta = 0.002251, k = 0.190078
         5         1        37     1      120.837975      275.673543    ;  uncertainty theta = 0.003390, k = 0.103595
         5         6         7     1      119.722855      514.456752    ;  uncertainty theta = 0.004269, k = 0.061580
         5        10         9     1      114.458984      488.266148    ;  uncertainty theta = 0.001996, k = 0.147683
         6         4        11     1      119.335999      396.188588    ;  uncertainty theta = 0.004435, k = 0.267308
         6         5        10     1      119.243858      555.279545    ;  uncertainty theta = 0.007472, k = 0.086368
         6         7         8     1      116.502525      472.887605    ;  uncertainty theta = 0.004302, k = 0.130226
         7         8         9     1      121.240555      622.447314    ;  uncertainty theta = 0.002919, k = 0.205880
         7         8        39     1      116.813492      347.959523    ;  uncertainty theta = 0.001638, k = 0.087624
         8         9        10     1      120.931259      612.842998    ;  uncertainty theta = 0.002470, k = 0.239696
         8         9        40     1      121.868530      283.534439    ;  uncertainty theta = 0.002376, k = 0.096063
         9         8        39     1      121.994606      282.804174    ;  uncertainty theta = 0.002439, k = 0.090842
        10         9        40     1      116.754013      350.159800    ;  uncertainty theta = 0.001533, k = 0.075385
        11        13        14     1      122.513977      519.825227    ;  uncertainty theta = 0.002504, k = 0.082970
        11        13        42     1      118.705055      283.822243    ;  uncertainty theta = 0.003481, k = 0.052326
        11        15        16     1      118.386093      529.920716    ;  uncertainty theta = 0.003401, k = 0.180792
        11        15        44     1      120.176918      276.179337    ;  uncertainty theta = 0.003371, k = 0.099806
        12        21        22     1      120.866272      523.192901    ;  uncertainty theta = 0.006178, k = 0.269626
        12        21        26     1      117.889061      433.622160    ;  uncertainty theta = 0.004709, k = 0.303449
        13        11        15     1      122.892189      427.495488    ;  uncertainty theta = 0.004657, k = 0.054030
        13        14        17     1      119.126968      545.225329    ;  uncertainty theta = 0.002014, k = 0.075473
        13        14        43     1      120.552231      281.882188    ;  uncertainty theta = 0.001756, k = 0.032676
        14        13        42     1      119.644821      296.182906    ;  uncertainty theta = 0.002811, k = 0.056213
        14        17        16     1      116.316528      401.555212    ;  uncertainty theta = 0.003524, k = 0.104666
        14        17        18     1      133.137314      372.613048    ;  uncertainty theta = 0.003601, k = 0.161997
        15        16        17     1      122.096420      362.937197    ;  uncertainty theta = 0.001381, k = 0.132828
        15        16        20     1      127.554398      386.261612    ;  uncertainty theta = 0.001561, k = 0.197526
        16        15        44     1      122.049515      289.470445    ;  uncertainty theta = 0.001404, k = 0.108597
        16        17        18     1      106.331848      697.004628    ;  uncertainty theta = 0.002119, k = 0.268284
        16        20        19     1      107.260864      818.300726    ;  uncertainty theta = 0.002708, k = 0.112517
        16        20        31     1      120.714661      413.315913    ;  uncertainty theta = 0.003757, k = 0.146507
        17        14        43     1      121.660202      297.421073    ;  uncertainty theta = 0.001725, k = 0.098896
        17        16        20     1      108.699356      659.259248    ;  uncertainty theta = 0.001396, k = 0.199015
        17        18        19     1      106.600060      811.238758    ;  uncertainty theta = 0.002477, k = 0.071833
        17        18        45     1      125.357811      254.842555    ;  uncertainty theta = 0.003088, k = 0.059342
        18        19        20     1      111.357628      756.000331    ;  uncertainty theta = 0.002253, k = 0.100899
        18        19        46     1      128.154083      239.477004    ;  uncertainty theta = 0.003447, k = 0.106541
        19        18        45     1      123.663986      251.202927    ;  uncertainty theta = 0.003182, k = 0.069918
        19        20        31     1      121.539627      391.310362    ;  uncertainty theta = 0.002440, k = 0.111857
        20        19        46     1      117.041054      288.340843    ;  uncertainty theta = 0.001716, k = 0.115275
        20        31        52     1      109.087296      471.938965    ;  uncertainty theta = 0.000901, k = 0.078971
        20        31        53     1      109.087296      471.938965    ;  uncertainty theta = 0.000901, k = 0.078971
        20        31        54     1      109.087296      471.938965    ;  uncertainty theta = 0.000901, k = 0.078971
        21        12        41     1      115.508682      379.104454    ;  uncertainty theta = 0.007886, k = 0.257854
        21        22        23     1      120.767807      448.260446    ;  uncertainty theta = 0.005575, k = 0.189593
        21        22        27     1      120.119629      391.333665    ;  uncertainty theta = 0.005730, k = 0.168997
        21        26        25     1      125.045822      671.568199    ;  uncertainty theta = 0.003324, k = 0.127976
        21        26        49     1      119.047501      264.467843    ;  uncertainty theta = 0.007253, k = 0.170610
        22        21        26     1      120.765846      368.418323    ;  uncertainty theta = 0.005385, k = 0.330922
        22        23        24     1      120.642189      493.812010    ;  uncertainty theta = 0.004543, k = 0.088651
        22        23        47     1      119.133873      256.238893    ;  uncertainty theta = 0.005103, k = 0.067839
        22        27        28     1      123.931686      518.504862    ;  uncertainty theta = 0.005653, k = 0.156004
        22        27        29     1      114.969383      454.009360    ;  uncertainty theta = 0.006473, k = 0.348975
        23        22        27     1      119.070267      394.304397    ;  uncertainty theta = 0.005539, k = 0.108904
        23        24        25     1      122.288773      693.218113    ;  uncertainty theta = 0.001956, k = 0.060890
        23        24        48     1      120.692032      280.756768    ;  uncertainty theta = 0.001664, k = 0.077094
        24        23        47     1      121.415138      286.510247    ;  uncertainty theta = 0.003917, k = 0.062406
        24        25        26     1      116.986267      433.241753    ;  uncertainty theta = 0.000873, k = 0.172993
        25        24        48     1      116.694336      340.732776    ;  uncertainty theta = 0.002537, k = 0.060139
        25        26        49     1      116.749062      349.448975    ;  uncertainty theta = 0.004144, k = 0.095967
        27        29        30     1      116.232323      453.926141    ;  uncertainty theta = 0.004442, k = 0.101796
        27        29        50     1      115.965065      345.626229    ;  uncertainty theta = 0.002242, k = 0.102731
        28        27        29     1      123.689552      807.703337    ;  uncertainty theta = 0.003295, k = 0.072913
        29        30        32     1      111.043312      629.937859    ;  uncertainty theta = 0.002576, k = 0.134563
        29        30        36     1      111.043312      629.937922    ;  uncertainty theta = 0.002576, k = 0.134563
        29        30        51     1      104.645485      444.002069    ;  uncertainty theta = 0.001901, k = 0.111215
        30        29        50     1      112.545677      320.851754    ;  uncertainty theta = 0.004403, k = 0.107692
        30        32        33     1      109.796432      566.087360    ;  uncertainty theta = 0.002899, k = 0.105345
        30        32        55     1      108.242226      387.249387    ;  uncertainty theta = 0.001110, k = 0.067603
        30        32        56     1      108.242226      387.249387    ;  uncertainty theta = 0.001110, k = 0.067603
        30        36        35     1      109.796432      566.087360    ;  uncertainty theta = 0.002899, k = 0.105345
        30        36        61     1      108.242233      387.249387    ;  uncertainty theta = 0.001110, k = 0.067603
        30        36        62     1      108.242233      387.249387    ;  uncertainty theta = 0.001110, k = 0.067603
        32        30        36     1      108.686752      584.460033    ;  uncertainty theta = 0.002808, k = 0.165772
        32        30        51     1      108.706314      407.288644    ;  uncertainty theta = 0.001462, k = 0.066523
        32        33        34     1      111.503258      717.268388    ;  uncertainty theta = 0.001483, k = 0.097524
        32        33        57     1      109.882675      407.532268    ;  uncertainty theta = 0.001884, k = 0.052444
        32        33        58     1      109.882675      407.532268    ;  uncertainty theta = 0.001884, k = 0.052444
        33        32        55     1      108.784889      399.623170    ;  uncertainty theta = 0.001161, k = 0.067905
        33        32        56     1      108.784889      399.623170    ;  uncertainty theta = 0.001161, k = 0.067905
        33        34        35     1      109.317673      563.016906    ;  uncertainty theta = 0.002182, k = 0.156663
        34        33        57     1      107.073914      463.535628    ;  uncertainty theta = 0.001719, k = 0.024447
        34        33        58     1      107.073914      463.535628    ;  uncertainty theta = 0.001719, k = 0.024447
        34        35        36     1      111.503258      717.268324    ;  uncertainty theta = 0.001483, k = 0.097524
        34        35        59     1      107.073914      463.535628    ;  uncertainty theta = 0.001719, k = 0.024447
        34        35        60     1      107.073914      463.535628    ;  uncertainty theta = 0.001719, k = 0.024447
        35        36        61     1      108.784889      399.623202    ;  uncertainty theta = 0.001161, k = 0.067904
        35        36        62     1      108.784889      399.623202    ;  uncertainty theta = 0.001161, k = 0.067904
        36        30        51     1      108.706314      407.288612    ;  uncertainty theta = 0.001462, k = 0.066524
        36        35        59     1      109.882675      407.532332    ;  uncertainty theta = 0.001884, k = 0.052444
        36        35        60     1      109.882675      407.532332    ;  uncertainty theta = 0.001884, k = 0.052444
        52        31        53     1      107.317055      322.193856    ;  uncertainty theta = 0.001017, k = 0.038184
        52        31        54     1      107.317055      322.193856    ;  uncertainty theta = 0.001017, k = 0.038184
        53        31        54     1      107.317055      322.193856    ;  uncertainty theta = 0.001017, k = 0.038184
        55        32        56     1      105.442894      312.125947    ;  uncertainty theta = 0.002536, k = 0.020214
        57        33        58     1      106.554214      320.095025    ;  uncertainty theta = 0.001317, k = 0.032771
        59        35        60     1      106.554214      320.095025    ;  uncertainty theta = 0.001317, k = 0.032771
        61        36        62     1      105.442894      312.125947    ;  uncertainty theta = 0.002536, k = 0.020214

[ dihedrals ] ; propers for gromacs 4.5 or higher, use funct 9
;       ai        aj        ak        al funct           phase               k        pn
         1         2         3         4     9        0.000000       -0.072200         1    ;  uncertainty k = 0.338323
         1         2         3         4     9      180.000000        6.131095         2    ;  uncertainty k = 0.985506
         1         2         3         4     9        0.000000        0.315101         3    ;  uncertainty k = 0.206586
         1         2         3         4     9      180.000000        1.352221         4    ;  uncertainty k = 0.324244
         1         2         3        38     9        0.000000        0.263123         1    ;  uncertainty k = 0.398271
         1         2         3        38     9      180.000000        5.899054         2    ;  uncertainty k = 0.877097
         1         2         3        38     9        0.000000        1.137785         3    ;  uncertainty k = 0.155590
         1         2         3        38     9      180.000000        1.431260         4    ;  uncertainty k = 0.270209
         1         2        12        21     9        0.000000        2.523323         1    ;  uncertainty k = 0.992733
         1         2        12        21     9      180.000000        6.161863         2    ;  uncertainty k = 0.269123
         1         2        12        21     9        0.000000        0.168713         3    ;  uncertainty k = 0.413892
         1         2        12        21     9      180.000000        0.046223         4    ;  uncertainty k = 0.140490
         1         2        12        41     9        0.000000        3.825043         1    ;  uncertainty k = 1.133999
         1         2        12        41     9      180.000000        4.717699         2    ;  uncertainty k = 0.081947
         1         2        12        41     9        0.000000        0.499133         3    ;  uncertainty k = 0.237480
         1         2        12        41     9      180.000000       -0.062667         4    ;  uncertainty k = 0.068960
         1         5         6         4     9        0.000000       -0.713080         1    ;  uncertainty k = 0.521879
         1         5         6         4     9      180.000000        4.611688         2    ;  uncertainty k = 1.535208
         1         5         6         4     9        0.000000        0.274756         3    ;  uncertainty k = 0.299130
         1         5         6         4     9      180.000000        1.240053         4    ;  uncertainty k = 0.359772
         1         5         6         7     9        0.000000        0.076450         1    ;  uncertainty k = 0.284767
         1         5         6         7     9      180.000000        6.080416         2    ;  uncertainty k = 1.149880
         1         5         6         7     9        0.000000        0.106983         3    ;  uncertainty k = 0.156574
         1         5         6         7     9      180.000000        1.373586         4    ;  uncertainty k = 0.405208
         1         5        10         9     9        0.000000        0.427932         1    ;  uncertainty k = 1.029214
         1         5        10         9     9      180.000000       12.638436         2    ;  uncertainty k = 0.318597
         1         5        10         9     9        0.000000        2.227131         3    ;  uncertainty k = 0.470956
         1         5        10         9     9      180.000000        1.437848         4    ;  uncertainty k = 0.260470
         2         1         5         6     9        0.000000        0.105135         1    ;  uncertainty k = 0.418475
         2         1         5         6     9      180.000000        7.191563         2    ;  uncertainty k = 0.789205
         2         1         5         6     9        0.000000        0.049939         3    ;  uncertainty k = 0.294354
         2         1         5         6     9      180.000000        1.295638         4    ;  uncertainty k = 0.268741
         2         1         5        10     9        0.000000        0.136753         1    ;  uncertainty k = 0.440374
         2         1         5        10     9      180.000000        9.791260         2    ;  uncertainty k = 0.369426
         2         1         5        10     9        0.000000        0.575117         3    ;  uncertainty k = 0.280229
         2         1         5        10     9      180.000000        1.391654         4    ;  uncertainty k = 0.236423
         2         3         4         6     9        0.000000        0.010976         1    ;  uncertainty k = 0.540390
         2         3         4         6     9      180.000000       12.474205         2    ;  uncertainty k = 0.424703
         2         3         4         6     9        0.000000        0.363049         3    ;  uncertainty k = 0.231701
         2         3         4         6     9      180.000000        1.278471         4    ;  uncertainty k = 0.330163
         2         3         4        11     9        0.000000        0.182524         1    ;  uncertainty k = 0.203744
         2         3         4        11     9      180.000000       10.393594         2    ;  uncertainty k = 0.626757
         2         3         4        11     9        0.000000        1.350308         3    ;  uncertainty k = 0.272442
         2         3         4        11     9      180.000000        1.715330         4    ;  uncertainty k = 0.283684
         2        12        21        22     9        0.000000        2.375901         1    ;  uncertainty k = 1.105841
         2        12        21        22     9      180.000000        7.404029         2    ;  uncertainty k = 0.627543
         2        12        21        22     9        0.000000        0.103642         3    ;  uncertainty k = 0.232587
         2        12        21        22     9      180.000000        0.019683         4    ;  uncertainty k = 0.092072
         2        12        21        26     9        0.000000        4.010543         1    ;  uncertainty k = 1.620265
         2        12        21        26     9      180.000000        5.542785         2    ;  uncertainty k = 0.338422
         2        12        21        26     9        0.000000        0.436289         3    ;  uncertainty k = 0.201886
         2        12        21        26     9      180.000000       -0.001025         4    ;  uncertainty k = 0.179407
         3         2         1         5     9        0.000000       -0.211594         1    ;  uncertainty k = 0.214604
         3         2         1         5     9      180.000000        9.630247         2    ;  uncertainty k = 0.297096
         3         2         1         5     9        0.000000        0.341139         3    ;  uncertainty k = 0.475048
         3         2         1         5     9      180.000000        1.370725         4    ;  uncertainty k = 0.295311
         3         2         1        37     9        0.000000        0.283457         1    ;  uncertainty k = 0.412718
         3         2         1        37     9      180.000000        6.985914         2    ;  uncertainty k = 0.634097
         3         2         1        37     9        0.000000        1.297460         3    ;  uncertainty k = 0.105363
         3         2         1        37     9      180.000000        1.625882         4    ;  uncertainty k = 0.156284
         3         2        12        21     9        0.000000        2.542660         1    ;  uncertainty k = 0.981594
         3         2        12        21     9      180.000000        6.158121         2    ;  uncertainty k = 0.324433
         3         2        12        21     9        0.000000        0.621818         3    ;  uncertainty k = 0.346690
         3         2        12        21     9      180.000000       -0.021732         4    ;  uncertainty k = 0.196223
         3         2        12        41     9        0.000000        3.383700         1    ;  uncertainty k = 0.980862
         3         2        12        41     9      180.000000        4.699465         2    ;  uncertainty k = 0.598444
         3         2        12        41     9        0.000000        0.569450         3    ;  uncertainty k = 0.268264
         3         2        12        41     9      180.000000       -0.061442         4    ;  uncertainty k = 0.133099
         3         4         6         5     9        0.000000       -0.064268         1    ;  uncertainty k = 0.482878
         3         4         6         5     9      180.000000        5.815078         2    ;  uncertainty k = 0.996902
         3         4         6         5     9        0.000000        0.060037         3    ;  uncertainty k = 0.264412
         3         4         6         5     9      180.000000        1.005082         4    ;  uncertainty k = 0.332027
         3         4         6         7     9        0.000000        0.261320         1    ;  uncertainty k = 0.518995
         3         4         6         7     9      180.000000        6.885065         2    ;  uncertainty k = 0.805626
         3         4         6         7     9        0.000000        0.373938         3    ;  uncertainty k = 0.290824
         3         4         6         7     9      180.000000        1.164313         4    ;  uncertainty k = 0.349614
         3         4        11        13     9        0.000000       -0.241234         1    ;  uncertainty k = 0.353962
         3         4        11        13     9      180.000000        5.771563         2    ;  uncertainty k = 0.169726
         3         4        11        13     9        0.000000        0.317160         3    ;  uncertainty k = 0.177141
         3         4        11        13     9      180.000000        0.588639         4    ;  uncertainty k = 0.117338
         3         4        11        15     9        0.000000       -0.358623         1    ;  uncertainty k = 0.397328
         3         4        11        15     9      180.000000        5.522278         2    ;  uncertainty k = 0.163710
         3         4        11        15     9        0.000000        0.471433         3    ;  uncertainty k = 0.101553
         3         4        11        15     9      180.000000        0.524759         4    ;  uncertainty k = 0.136869
         4         3         2        12     9        0.000000        0.274481         1    ;  uncertainty k = 0.728288
         4         3         2        12     9      180.000000        7.666820         2    ;  uncertainty k = 0.442860
         4         3         2        12     9        0.000000        0.842824         3    ;  uncertainty k = 0.171847
         4         3         2        12     9      180.000000        1.601636         4    ;  uncertainty k = 0.110410
         4         6         5        10     9        0.000000       -0.297577         1    ;  uncertainty k = 0.701970
         4         6         5        10     9      180.000000        5.014359         2    ;  uncertainty k = 1.176011
         4         6         5        10     9        0.000000        0.093992         3    ;  uncertainty k = 0.371276
         4         6         5        10     9      180.000000        1.323525         4    ;  uncertainty k = 0.229333
         4         6         7         8     9        0.000000       -0.230726         1    ;  uncertainty k = 0.542096
         4         6         7         8     9      180.000000       12.457806         2    ;  uncertainty k = 0.567635
         4         6         7         8     9        0.000000        2.051214         3    ;  uncertainty k = 0.352155
         4         6         7         8     9      180.000000        1.316225         4    ;  uncertainty k = 0.190864
         4        11        13        14     9        0.000000        0.106032         1    ;  uncertainty k = 0.347322
         4        11        13        14     9      180.000000        7.741873         2    ;  uncertainty k = 0.677794
         4        11        13        14     9        0.000000        1.125160         3    ;  uncertainty k = 0.437429
         4        11        13        14     9      180.000000        1.837354         4    ;  uncertainty k = 0.142429
         4        11        13        42     9        0.000000       -0.194197         1    ;  uncertainty k = 0.071949
         4        11        13        42     9      180.000000        7.286466         2    ;  uncertainty k = 0.459537
         4        11        13        42     9        0.000000        0.820345         3    ;  uncertainty k = 0.187087
         4        11        13        42     9      180.000000        1.127885         4    ;  uncertainty k = 0.183907
         4        11        15        16     9        0.000000        0.008340         1    ;  uncertainty k = 0.510404
         4        11        15        16     9      180.000000       10.601908         2    ;  uncertainty k = 0.755181
         4        11        15        16     9        0.000000        1.446684         3    ;  uncertainty k = 0.244023
         4        11        15        16     9      180.000000        1.685324         4    ;  uncertainty k = 0.268772
         4        11        15        44     9        0.000000       -0.217861         1    ;  uncertainty k = 0.216539
         4        11        15        44     9      180.000000        7.816292         2    ;  uncertainty k = 0.229990
         4        11        15        44     9        0.000000        0.863298         3    ;  uncertainty k = 0.206754
         4        11        15        44     9      180.000000        1.171828         4    ;  uncertainty k = 0.102501
         5         1         2        12     9        0.000000       -0.199853         1    ;  uncertainty k = 0.399619
         5         1         2        12     9      180.000000       11.251592         2    ;  uncertainty k = 0.453004
         5         1         2        12     9        0.000000        0.994564         3    ;  uncertainty k = 0.187643
         5         1         2        12     9      180.000000        1.578580         4    ;  uncertainty k = 0.167837
         5         6         4        11     9        0.000000        0.163367         1    ;  uncertainty k = 0.742863
         5         6         4        11     9      180.000000        4.925989         2    ;  uncertainty k = 0.482652
         5         6         4        11     9        0.000000        1.071668         3    ;  uncertainty k = 0.234643
         5         6         4        11     9      180.000000        1.265583         4    ;  uncertainty k = 0.346237
         5         6         7         8     9        0.000000       -0.112022         1    ;  uncertainty k = 0.910117
         5         6         7         8     9      180.000000       11.596635         2    ;  uncertainty k = 0.629166
         5         6         7         8     9        0.000000        1.457657         3    ;  uncertainty k = 0.287216
         5         6         7         8     9      180.000000        1.330866         4    ;  uncertainty k = 0.318778
         5        10         9         8     9        0.000000        0.013311         1    ;  uncertainty k = 0.131653
         5        10         9         8     9      180.000000       17.231919         2    ;  uncertainty k = 0.196674
         5        10         9         8     9        0.000000        0.888029         3    ;  uncertainty k = 0.629562
         5        10         9         8     9      180.000000        1.519865         4    ;  uncertainty k = 0.234840
         5        10         9        40     9        0.000000        0.424411         1    ;  uncertainty k = 0.517708
         5        10         9        40     9      180.000000       19.045700         2    ;  uncertainty k = 0.443936
         5        10         9        40     9        0.000000        2.354564         3    ;  uncertainty k = 0.582721
         5        10         9        40     9      180.000000        1.407429         4    ;  uncertainty k = 0.336465
         6         4         3        38     9        0.000000        0.123738         1    ;  uncertainty k = 0.256829
         6         4         3        38     9      180.000000        9.582771         2    ;  uncertainty k = 0.350597
         6         4         3        38     9        0.000000        1.473211         3    ;  uncertainty k = 0.141253
         6         4         3        38     9      180.000000        1.670290         4    ;  uncertainty k = 0.172671
         6         4        11        13     9        0.000000        0.294934         1    ;  uncertainty k = 0.682343
         6         4        11        13     9      180.000000        5.135221         2    ;  uncertainty k = 0.368550
         6         4        11        13     9        0.000000        0.449391         3    ;  uncertainty k = 0.368548
         6         4        11        13     9      180.000000        0.735448         4    ;  uncertainty k = 0.087901
         6         4        11        15     9        0.000000       -0.139301         1    ;  uncertainty k = 0.564768
         6         4        11        15     9      180.000000        5.053884         2    ;  uncertainty k = 0.350243
         6         4        11        15     9        0.000000        0.265394         3    ;  uncertainty k = 0.358781
         6         4        11        15     9      180.000000        0.716032         4    ;  uncertainty k = 0.142482
         6         5         1        37     9        0.000000       -0.216754         1    ;  uncertainty k = 0.343873
         6         5         1        37     9      180.000000        5.853912         2    ;  uncertainty k = 0.879793
         6         5         1        37     9        0.000000        1.199031         3    ;  uncertainty k = 0.162614
         6         5         1        37     9      180.000000        1.246407         4    ;  uncertainty k = 0.338414
         6         5        10         9     9        0.000000       -0.063178         1    ;  uncertainty k = 1.326752
         6         5        10         9     9      180.000000       10.095142         2    ;  uncertainty k = 0.612694
         6         5        10         9     9        0.000000        1.278116         3    ;  uncertainty k = 0.488029
         6         5        10         9     9      180.000000        1.281711         4    ;  uncertainty k = 0.220795
         6         7         8         9     9        0.000000        0.020377         1    ;  uncertainty k = 0.368422
         6         7         8         9     9      180.000000       16.581266         2    ;  uncertainty k = 0.335688
         6         7         8         9     9        0.000000        0.829256         3    ;  uncertainty k = 0.750676
         6         7         8         9     9      180.000000        1.566270         4    ;  uncertainty k = 0.253962
         6         7         8        39     9        0.000000        0.275900         1    ;  uncertainty k = 0.531876
         6         7         8        39     9      180.000000       18.156242         2    ;  uncertainty k = 0.522836
         6         7         8        39     9        0.000000        2.344022         3    ;  uncertainty k = 0.655907
         6         7         8        39     9      180.000000        1.633482         4    ;  uncertainty k = 0.415921
         7         6         4        11     9        0.000000        0.205608         1    ;  uncertainty k = 1.297119
         7         6         4        11     9      180.000000        7.137753         2    ;  uncertainty k = 0.766262
         7         6         4        11     9        0.000000        0.773424         3    ;  uncertainty k = 0.512634
         7         6         4        11     9      180.000000        1.176773         4    ;  uncertainty k = 0.263387
         7         6         5        10     9        0.000000       -0.400492         1    ;  uncertainty k = 0.890675
         7         6         5        10     9      180.000000        7.087146         2    ;  uncertainty k = 0.720455
         7         6         5        10     9        0.000000        0.077638         3    ;  uncertainty k = 0.327161
         7         6         5        10     9      180.000000        1.330895         4    ;  uncertainty k = 0.356325
         7         8         9        10     9        0.000000       -0.202866         1    ;  uncertainty k = 0.782206
         7         8         9        10     9      180.000000       12.112991         2    ;  uncertainty k = 0.805807
         7         8         9        10     9        0.000000       -1.599825         3    ;  uncertainty k = 0.569696
         7         8         9        10     9      180.000000        0.918172         4    ;  uncertainty k = 0.463986
         7         8         9        40     9        0.000000        0.036887         1    ;  uncertainty k = 0.700692
         7         8         9        40     9      180.000000        6.513920         2    ;  uncertainty k = 1.135261
         7         8         9        40     9        0.000000        0.521732         3    ;  uncertainty k = 0.385188
         7         8         9        40     9      180.000000        1.117821         4    ;  uncertainty k = 0.330142
        10         5         1        37     9        0.000000        0.139927         1    ;  uncertainty k = 0.233388
        10         5         1        37     9      180.000000        8.199302         2    ;  uncertainty k = 0.492393
        10         5         1        37     9        0.000000        1.032825         3    ;  uncertainty k = 0.329116
        10         5         1        37     9      180.000000        1.219854         4    ;  uncertainty k = 0.291231
        10         9         8        39     9        0.000000       -0.033262         1    ;  uncertainty k = 0.634830
        10         9         8        39     9      180.000000        6.504272         2    ;  uncertainty k = 1.136878
        10         9         8        39     9        0.000000        0.521238         3    ;  uncertainty k = 0.433609
        10         9         8        39     9      180.000000        1.070757         4    ;  uncertainty k = 0.343719
        11         4         3        38     9        0.000000        0.133920         1    ;  uncertainty k = 0.241849
        11         4         3        38     9      180.000000        8.368020         2    ;  uncertainty k = 0.247907
        11         4         3        38     9        0.000000        1.001196         3    ;  uncertainty k = 0.152989
        11         4         3        38     9      180.000000        1.398313         4    ;  uncertainty k = 0.293351
        11        13        14        17     9        0.000000       -0.088237         1    ;  uncertainty k = 0.303401
        11        13        14        17     9      180.000000       16.637935         2    ;  uncertainty k = 0.333977
        11        13        14        17     9        0.000000       -0.360479         3    ;  uncertainty k = 0.532645
        11        13        14        17     9      180.000000        0.692098         4    ;  uncertainty k = 0.430868
        11        13        14        43     9        0.000000       -0.068872         1    ;  uncertainty k = 0.208187
        11        13        14        43     9      180.000000        8.826761         2    ;  uncertainty k = 0.512391
        11        13        14        43     9        0.000000        1.364385         3    ;  uncertainty k = 0.219987
        11        13        14        43     9      180.000000        1.899722         4    ;  uncertainty k = 0.318557
        11        15        16        17     9        0.000000       -0.149024         1    ;  uncertainty k = 0.543451
        11        15        16        17     9      180.000000       12.121193         2    ;  uncertainty k = 0.115800
        11        15        16        17     9        0.000000       -0.939443         3    ;  uncertainty k = 0.507589
        11        15        16        17     9      180.000000        0.860046         4    ;  uncertainty k = 0.197235
        11        15        16        20     9        0.000000        0.212529         1    ;  uncertainty k = 0.147666
        11        15        16        20     9      180.000000       10.459763         2    ;  uncertainty k = 0.471484
        11        15        16        20     9        0.000000        1.021284         3    ;  uncertainty k = 0.274552
        11        15        16        20     9      180.000000        1.335798         4    ;  uncertainty k = 0.221198
        12         2         1        37     9        0.000000       -0.540473         1    ;  uncertainty k = 0.241043
        12         2         1        37     9      180.000000        8.162088         2    ;  uncertainty k = 0.602997
        12         2         1        37     9        0.000000        0.752095         3    ;  uncertainty k = 0.237596
        12         2         1        37     9      180.000000        1.123372         4    ;  uncertainty k = 0.272486
        12         2         3        38     9        0.000000       -0.338090         1    ;  uncertainty k = 0.353036
        12         2         3        38     9      180.000000        7.206237         2    ;  uncertainty k = 0.456434
        12         2         3        38     9        0.000000        0.798668         3    ;  uncertainty k = 0.201142
        12         2         3        38     9      180.000000        1.134447         4    ;  uncertainty k = 0.153947
        12        21        22        23     9        0.000000        0.065993         1    ;  uncertainty k = 0.466114
        12        21        22        23     9      180.000000        7.427789         2    ;  uncertainty k = 0.396473
        12        21        22        23     9        0.000000        1.111542         3    ;  uncertainty k = 0.280728
        12        21        22        23     9      180.000000        1.721726         4    ;  uncertainty k = 0.217839
        12        21        22        27     9        0.000000       -0.543532         1    ;  uncertainty k = 0.463043
        12        21        22        27     9      180.000000        8.078606         2    ;  uncertainty k = 1.238467
        12        21        22        27     9        0.000000        1.217033         3    ;  uncertainty k = 0.453593
        12        21        22        27     9      180.000000        1.530312         4    ;  uncertainty k = 0.369087
        12        21        26        25     9        0.000000        0.255628         1    ;  uncertainty k = 0.814668
        12        21        26        25     9      180.000000        8.965102         2    ;  uncertainty k = 0.689755
        12        21        26        25     9        0.000000        0.829726         3    ;  uncertainty k = 0.265192
        12        21        26        25     9      180.000000        1.512238         4    ;  uncertainty k = 0.314774
        12        21        26        49     9        0.000000       -0.157595         1    ;  uncertainty k = 0.610965
        12        21        26        49     9      180.000000        6.197721         2    ;  uncertainty k = 0.685048
        12        21        26        49     9        0.000000        0.825594         3    ;  uncertainty k = 0.295200
        12        21        26        49     9      180.000000        1.161749         4    ;  uncertainty k = 0.204669
        13        11        15        16     9        0.000000       -0.053115         1    ;  uncertainty k = 0.278158
        13        11        15        16     9      180.000000       13.312170         2    ;  uncertainty k = 0.270025
        13        11        15        16     9        0.000000       -0.017985         3    ;  uncertainty k = 0.385054
        13        11        15        16     9      180.000000        0.899869         4    ;  uncertainty k = 0.336493
        13        11        15        44     9        0.000000        0.324286         1    ;  uncertainty k = 0.275976
        13        11        15        44     9      180.000000        7.772422         2    ;  uncertainty k = 0.500279
        13        11        15        44     9        0.000000        1.473056         3    ;  uncertainty k = 0.166957
        13        11        15        44     9      180.000000        1.643832         4    ;  uncertainty k = 0.220962
        13        14        17        16     9        0.000000        0.015179         1    ;  uncertainty k = 0.183013
        13        14        17        16     9      180.000000       13.267788         2    ;  uncertainty k = 0.263041
        13        14        17        16     9        0.000000       -1.677048         3    ;  uncertainty k = 0.342200
        13        14        17        16     9      180.000000        0.680123         4    ;  uncertainty k = 0.245766
        13        14        17        18     9        0.000000        0.168081         1    ;  uncertainty k = 0.172640
        13        14        17        18     9      180.000000        8.937069         2    ;  uncertainty k = 0.347169
        13        14        17        18     9        0.000000        0.640838         3    ;  uncertainty k = 0.199488
        13        14        17        18     9      180.000000        1.231015         4    ;  uncertainty k = 0.108242
        14        13        11        15     9        0.000000       -0.234353         1    ;  uncertainty k = 0.151821
        14        13        11        15     9      180.000000       10.060344         2    ;  uncertainty k = 0.243332
        14        13        11        15     9        0.000000       -0.319786         3    ;  uncertainty k = 0.496922
        14        13        11        15     9      180.000000        0.990976         4    ;  uncertainty k = 0.258596
        14        17        16        15     9        0.000000       -0.563658         1    ;  uncertainty k = 1.052576
        14        17        16        15     9      180.000000        7.918710         2    ;  uncertainty k = 0.880080
        14        17        16        15     9        0.000000        0.146189         3    ;  uncertainty k = 0.303935
        14        17        16        15     9      180.000000        0.889831         4    ;  uncertainty k = 0.388926
        14        17        16        20     9        0.000000        0.176056         1    ;  uncertainty k = 0.453596
        14        17        16        20     9      180.000000        8.243113         2    ;  uncertainty k = 0.257976
        14        17        16        20     9        0.000000       -0.059609         3    ;  uncertainty k = 0.396357
        14        17        16        20     9      180.000000        1.309643         4    ;  uncertainty k = 0.308186
        14        17        18        19     9        0.000000        0.511305         1    ;  uncertainty k = 0.793984
        14        17        18        19     9      180.000000        6.744679         2    ;  uncertainty k = 0.997873
        14        17        18        19     9        0.000000        0.274717         3    ;  uncertainty k = 0.537264
        14        17        18        19     9      180.000000        1.010143         4    ;  uncertainty k = 0.225695
        14        17        18        45     9        0.000000        0.606453         1    ;  uncertainty k = 0.850022
        14        17        18        45     9      180.000000        4.093390         2    ;  uncertainty k = 0.848756
        14        17        18        45     9        0.000000        1.375301         3    ;  uncertainty k = 0.426874
        14        17        18        45     9      180.000000        0.101118         4    ;  uncertainty k = 0.145411
        15        11        13        42     9        0.000000        0.170680         1    ;  uncertainty k = 0.094348
        15        11        13        42     9      180.000000        6.588587         2    ;  uncertainty k = 0.576707
        15        11        13        42     9        0.000000        1.389950         3    ;  uncertainty k = 0.140404
        15        11        13        42     9      180.000000        1.590416         4    ;  uncertainty k = 0.228049
        15        16        17        18     9        0.000000        0.110683         1    ;  uncertainty k = 0.560069
        15        16        17        18     9      180.000000        7.680716         2    ;  uncertainty k = 0.276652
        15        16        17        18     9        0.000000        0.240823         3    ;  uncertainty k = 0.430528
        15        16        17        18     9      180.000000        1.182835         4    ;  uncertainty k = 0.239317
        15        16        20        19     9        0.000000        1.096033         1    ;  uncertainty k = 1.298951
        15        16        20        19     9      180.000000        6.112340         2    ;  uncertainty k = 0.742501
        15        16        20        19     9        0.000000        0.700126         3    ;  uncertainty k = 0.193201
        15        16        20        19     9      180.000000        0.290744         4    ;  uncertainty k = 0.152037
        15        16        20        31     9        0.000000        0.381171         1    ;  uncertainty k = 1.813554
        15        16        20        31     9      180.000000        2.830187         2    ;  uncertainty k = 0.478377
        15        16        20        31     9        0.000000        0.849606         3    ;  uncertainty k = 0.419853
        15        16        20        31     9      180.000000        0.083786         4    ;  uncertainty k = 0.135735
        16        17        14        43     9        0.000000        0.124387         1    ;  uncertainty k = 0.373034
        16        17        14        43     9      180.000000        7.210887         2    ;  uncertainty k = 0.881417
        16        17        14        43     9        0.000000        1.401519         3    ;  uncertainty k = 0.369643
        16        17        14        43     9      180.000000        1.163098         4    ;  uncertainty k = 0.413706
        16        17        18        19     9        0.000000        0.450027         1    ;  uncertainty k = 0.908073
        16        17        18        19     9      180.000000       13.173235         2    ;  uncertainty k = 0.776587
        16        17        18        19     9        0.000000      -10.991006         3    ;  uncertainty k = 2.573421
        16        17        18        19     9      180.000000        1.867148         4    ;  uncertainty k = 0.661434
        16        17        18        45     9        0.000000        0.023374         1    ;  uncertainty k = 0.592172
        16        17        18        45     9      180.000000        8.114225         2    ;  uncertainty k = 0.620356
        16        17        18        45     9        0.000000        1.336432         3    ;  uncertainty k = 0.600040
        16        17        18        45     9      180.000000        0.332209         4    ;  uncertainty k = 0.200949
        16        20        19        18     9        0.000000       -0.256602         1    ;  uncertainty k = 0.388703
        16        20        19        18     9      180.000000       15.681418         2    ;  uncertainty k = 0.602078
        16        20        19        18     9        0.000000       -6.396111         3    ;  uncertainty k = 1.656550
        16        20        19        18     9      180.000000        0.936026         4    ;  uncertainty k = 0.391999
        16        20        19        46     9        0.000000        1.176325         1    ;  uncertainty k = 0.849236
        16        20        19        46     9      180.000000        7.035330         2    ;  uncertainty k = 0.660687
        16        20        19        46     9        0.000000        1.598166         3    ;  uncertainty k = 0.299781
        16        20        19        46     9      180.000000        0.164807         4    ;  uncertainty k = 0.100187
        16        20        31        52     9        0.000000       -0.408568         1    ;  uncertainty k = 0.246905
        16        20        31        52     9      180.000000       -1.317196         2    ;  uncertainty k = 0.168942
        16        20        31        52     9        0.000000        1.090647         3    ;  uncertainty k = 0.080702
        16        20        31        52     9      180.000000        0.217211         4    ;  uncertainty k = 0.045154
        16        20        31        53     9        0.000000       -0.408568         1    ;  uncertainty k = 0.246905
        16        20        31        53     9      180.000000       -1.317196         2    ;  uncertainty k = 0.168942
        16        20        31        53     9        0.000000        1.090647         3    ;  uncertainty k = 0.080702
        16        20        31        53     9      180.000000        0.217211         4    ;  uncertainty k = 0.045154
        16        20        31        54     9        0.000000       -0.408568         1    ;  uncertainty k = 0.246905
        16        20        31        54     9      180.000000       -1.317196         2    ;  uncertainty k = 0.168942
        16        20        31        54     9        0.000000        1.090647         3    ;  uncertainty k = 0.080702
        16        20        31        54     9      180.000000        0.217211         4    ;  uncertainty k = 0.045154
        17        14        13        42     9        0.000000       -0.025946         1    ;  uncertainty k = 0.303009
        17        14        13        42     9      180.000000       11.299048         2    ;  uncertainty k = 0.337051
        17        14        13        42     9        0.000000        1.440131         3    ;  uncertainty k = 0.287190
        17        14        13        42     9      180.000000        1.704245         4    ;  uncertainty k = 0.284573
        17        16        15        44     9        0.000000        0.113361         1    ;  uncertainty k = 0.441545
        17        16        15        44     9      180.000000        6.764952         2    ;  uncertainty k = 0.865473
        17        16        15        44     9        0.000000        1.346687         3    ;  uncertainty k = 0.169660
        17        16        15        44     9      180.000000        1.338700         4    ;  uncertainty k = 0.261595
        17        16        20        19     9        0.000000        0.268811         1    ;  uncertainty k = 0.833799
        17        16        20        19     9      180.000000       14.131316         2    ;  uncertainty k = 0.606105
        17        16        20        19     9        0.000000       -6.512747         3    ;  uncertainty k = 1.135818
        17        16        20        19     9      180.000000        0.929198         4    ;  uncertainty k = 0.439288
        17        16        20        31     9        0.000000        2.277569         1    ;  uncertainty k = 0.770886
        17        16        20        31     9      180.000000        5.178088         2    ;  uncertainty k = 0.354898
        17        16        20        31     9        0.000000        1.568715         3    ;  uncertainty k = 0.279168
        17        16        20        31     9      180.000000        0.176309         4    ;  uncertainty k = 0.114600
        17        18        19        20     9        0.000000       -0.277607         1    ;  uncertainty k = 0.238564
        17        18        19        20     9      180.000000       22.092014         2    ;  uncertainty k = 0.248817
        17        18        19        20     9        0.000000       -6.461113         3    ;  uncertainty k = 0.282795
        17        18        19        20     9      180.000000        1.349535         4    ;  uncertainty k = 0.401228
        17        18        19        46     9        0.000000       -0.004715         1    ;  uncertainty k = 0.396227
        17        18        19        46     9      180.000000       12.360945         2    ;  uncertainty k = 0.135929
        17        18        19        46     9        0.000000        1.866098         3    ;  uncertainty k = 0.177332
        17        18        19        46     9      180.000000        0.972890         4    ;  uncertainty k = 0.182999
        18        17        14        43     9        0.000000        0.105499         1    ;  uncertainty k = 0.553991
        18        17        14        43     9      180.000000        5.639369         2    ;  uncertainty k = 0.488478
        18        17        14        43     9        0.000000        1.044664         3    ;  uncertainty k = 0.341162
        18        17        14        43     9      180.000000        0.711452         4    ;  uncertainty k = 0.362067
        18        17        16        20     9        0.000000       -0.248706         1    ;  uncertainty k = 0.120972
        18        17        16        20     9      180.000000       12.895532         2    ;  uncertainty k = 0.840948
        18        17        16        20     9        0.000000       -3.668924         3    ;  uncertainty k = 1.019109
        18        17        16        20     9      180.000000        1.520072         4    ;  uncertainty k = 0.794284
        18        19        20        31     9        0.000000        1.377314         1    ;  uncertainty k = 0.855302
        18        19        20        31     9      180.000000        8.854296         2    ;  uncertainty k = 0.336077
        18        19        20        31     9        0.000000        1.850755         3    ;  uncertainty k = 0.421572
        18        19        20        31     9      180.000000        0.005711         4    ;  uncertainty k = 0.191906
        19        20        31        52     9        0.000000        0.012373         1    ;  uncertainty k = 0.156207
        19        20        31        52     9      180.000000       -1.304491         2    ;  uncertainty k = 0.215975
        19        20        31        52     9        0.000000        0.598725         3    ;  uncertainty k = 0.126338
        19        20        31        52     9      180.000000        0.181531         4    ;  uncertainty k = 0.051525
        19        20        31        53     9        0.000000        0.012373         1    ;  uncertainty k = 0.156207
        19        20        31        53     9      180.000000       -1.304491         2    ;  uncertainty k = 0.215975
        19        20        31        53     9        0.000000        0.598725         3    ;  uncertainty k = 0.126338
        19        20        31        53     9      180.000000        0.181531         4    ;  uncertainty k = 0.051525
        19        20        31        54     9        0.000000        0.012373         1    ;  uncertainty k = 0.156207
        19        20        31        54     9      180.000000       -1.304491         2    ;  uncertainty k = 0.215975
        19        20        31        54     9        0.000000        0.598725         3    ;  uncertainty k = 0.126338
        19        20        31        54     9      180.000000        0.181531         4    ;  uncertainty k = 0.051525
        20        16        15        44     9        0.000000        0.243928         1    ;  uncertainty k = 0.292557
        20        16        15        44     9      180.000000        5.709932         2    ;  uncertainty k = 0.412053
        20        16        15        44     9        0.000000        1.177664         3    ;  uncertainty k = 0.438420
        20        16        15        44     9      180.000000        0.924568         4    ;  uncertainty k = 0.367001
        20        19        18        45     9        0.000000        0.281181         1    ;  uncertainty k = 0.777507
        20        19        18        45     9      180.000000       14.368324         2    ;  uncertainty k = 0.563599
        20        19        18        45     9        0.000000        1.716576         3    ;  uncertainty k = 0.616570
        20        19        18        45     9      180.000000        0.925073         4    ;  uncertainty k = 0.423264
        21        22        23        24     9        0.000000       -0.142817         1    ;  uncertainty k = 0.480502
        21        22        23        24     9      180.000000       10.651119         2    ;  uncertainty k = 0.294753
        21        22        23        24     9        0.000000       -0.577023         3    ;  uncertainty k = 0.588278
        21        22        23        24     9      180.000000        0.987810         4    ;  uncertainty k = 0.287227
        21        22        23        47     9        0.000000        0.668516         1    ;  uncertainty k = 0.326357
        21        22        23        47     9      180.000000        7.850418         2    ;  uncertainty k = 0.991983
        21        22        23        47     9        0.000000        1.074737         3    ;  uncertainty k = 0.423155
        21        22        23        47     9      180.000000        1.556139         4    ;  uncertainty k = 0.340323
        21        22        27        28     9        0.000000       -2.906704         1    ;  uncertainty k = 0.943668
        21        22        27        28     9      180.000000        2.105246         2    ;  uncertainty k = 1.071253
        21        22        27        28     9        0.000000        0.930330         3    ;  uncertainty k = 0.271031
        21        22        27        28     9      180.000000        0.385055         4    ;  uncertainty k = 0.187795
        21        22        27        29     9        0.000000        1.614009         1    ;  uncertainty k = 0.679613
        21        22        27        29     9      180.000000        2.994358         2    ;  uncertainty k = 0.681350
        21        22        27        29     9        0.000000        0.282030         3    ;  uncertainty k = 0.194172
        21        22        27        29     9      180.000000       -0.240533         4    ;  uncertainty k = 0.123397
        21        26        25        24     9        0.000000        0.284143         1    ;  uncertainty k = 0.377227
        21        26        25        24     9      180.000000       16.631261         2    ;  uncertainty k = 0.391410
        21        26        25        24     9        0.000000        0.900738         3    ;  uncertainty k = 0.584539
        21        26        25        24     9      180.000000        1.495931         4    ;  uncertainty k = 0.213395
        22        21        12        41     9        0.000000        5.886666         1    ;  uncertainty k = 1.026499
        22        21        12        41     9      180.000000        2.376352         2    ;  uncertainty k = 0.448044
        22        21        12        41     9        0.000000        0.546135         3    ;  uncertainty k = 0.254826
        22        21        12        41     9      180.000000       -0.236765         4    ;  uncertainty k = 0.055511
        22        21        26        25     9        0.000000       -0.148352         1    ;  uncertainty k = 0.468473
        22        21        26        25     9      180.000000        6.230369         2    ;  uncertainty k = 1.166458
        22        21        26        25     9        0.000000        0.161005         3    ;  uncertainty k = 0.593913
        22        21        26        25     9      180.000000        1.295414         4    ;  uncertainty k = 0.244934
        22        21        26        49     9        0.000000        0.606102         1    ;  uncertainty k = 1.503757
        22        21        26        49     9      180.000000        4.370657         2    ;  uncertainty k = 0.786874
        22        21        26        49     9        0.000000        1.077016         3    ;  uncertainty k = 0.264887
        22        21        26        49     9      180.000000        1.150926         4    ;  uncertainty k = 0.246767
        22        23        24        25     9        0.000000       -0.190334         1    ;  uncertainty k = 0.274735
        22        23        24        25     9      180.000000       14.256674         2    ;  uncertainty k = 0.461229
        22        23        24        25     9        0.000000       -1.073125         3    ;  uncertainty k = 0.893087
        22        23        24        25     9      180.000000        0.975314         4    ;  uncertainty k = 0.219125
        22        23        24        48     9        0.000000       -0.276706         1    ;  uncertainty k = 0.519273
        22        23        24        48     9      180.000000        6.704817         2    ;  uncertainty k = 0.281795
        22        23        24        48     9        0.000000        1.096108         3    ;  uncertainty k = 0.351847
        22        23        24        48     9      180.000000        1.584328         4    ;  uncertainty k = 0.293651
        22        27        29        30     9        0.000000        4.613406         1    ;  uncertainty k = 1.266542
        22        27        29        30     9      180.000000       13.098750         2    ;  uncertainty k = 0.448190
        22        27        29        30     9        0.000000        1.937089         3    ;  uncertainty k = 0.432707
        22        27        29        30     9      180.000000       -1.381724         4    ;  uncertainty k = 0.340392
        22        27        29        50     9        0.000000        0.585279         1    ;  uncertainty k = 0.649668
        22        27        29        50     9      180.000000        7.091080         2    ;  uncertainty k = 0.648073
        22        27        29        50     9        0.000000        2.440820         3    ;  uncertainty k = 0.341279
        22        27        29        50     9      180.000000        0.069955         4    ;  uncertainty k = 0.344866
        23        22        21        26     9        0.000000       -0.313640         1    ;  uncertainty k = 0.673617
        23        22        21        26     9      180.000000        4.909659         2    ;  uncertainty k = 1.230244
        23        22        21        26     9        0.000000        0.096893         3    ;  uncertainty k = 0.302827
        23        22        21        26     9      180.000000        1.418072         4    ;  uncertainty k = 0.354856
        23        22        27        28     9        0.000000       -2.795847         1    ;  uncertainty k = 0.583364
        23        22        27        28     9      180.000000        2.662237         2    ;  uncertainty k = 0.273912
        23        22        27        28     9        0.000000        0.255742         3    ;  uncertainty k = 0.187339
        23        22        27        28     9      180.000000        0.302920         4    ;  uncertainty k = 0.122225
        23        22        27        29     9        0.000000        1.204422         1    ;  uncertainty k = 0.726846
        23        22        27        29     9      180.000000        2.664499         2    ;  uncertainty k = 0.576034
        23        22        27        29     9        0.000000        0.476964         3    ;  uncertainty k = 0.208106
        23        22        27        29     9      180.000000       -0.083056         4    ;  uncertainty k = 0.253947
        23        24        25        26     9        0.000000       -0.485764         1    ;  uncertainty k = 0.493505
        23        24        25        26     9      180.000000       15.351450         2    ;  uncertainty k = 0.443462
        23        24        25        26     9        0.000000        1.105226         3    ;  uncertainty k = 0.479205
        23        24        25        26     9      180.000000        1.230600         4    ;  uncertainty k = 0.174474
        24        23        22        27     9        0.000000        0.262188         1    ;  uncertainty k = 0.533653
        24        23        22        27     9      180.000000        8.839613         2    ;  uncertainty k = 1.053758
        24        23        22        27     9        0.000000        1.306611         3    ;  uncertainty k = 0.370854
        24        23        22        27     9      180.000000        1.732717         4    ;  uncertainty k = 0.378899
        24        25        26        49     9        0.000000        0.500629         1    ;  uncertainty k = 0.549693
        24        25        26        49     9      180.000000       16.599478         2    ;  uncertainty k = 0.565788
        24        25        26        49     9        0.000000        2.300071         3    ;  uncertainty k = 0.274028
        24        25        26        49     9      180.000000        1.579306         4    ;  uncertainty k = 0.494687
        25        24        23        47     9        0.000000       -0.146477         1    ;  uncertainty k = 0.250114
        25        24        23        47     9      180.000000        9.420737         2    ;  uncertainty k = 0.614306
        25        24        23        47     9        0.000000        0.902645         3    ;  uncertainty k = 0.350228
        25        24        23        47     9      180.000000        1.680675         4    ;  uncertainty k = 0.111773
        26        21        12        41     9        0.000000       -0.564391         1    ;  uncertainty k = 1.857190
        26        21        12        41     9      180.000000        3.389191         2    ;  uncertainty k = 0.522928
        26        21        12        41     9        0.000000       -0.137591         3    ;  uncertainty k = 0.327145
        26        21        12        41     9      180.000000       -0.176203         4    ;  uncertainty k = 0.262987
        26        21        22        27     9        0.000000        0.705822         1    ;  uncertainty k = 1.722184
        26        21        22        27     9      180.000000        4.679605         2    ;  uncertainty k = 1.123442
        26        21        22        27     9        0.000000        1.232736         3    ;  uncertainty k = 0.186504
        26        21        22        27     9      180.000000        1.551230         4    ;  uncertainty k = 0.151881
        26        25        24        48     9        0.000000        0.302644         1    ;  uncertainty k = 0.444971
        26        25        24        48     9      180.000000       15.187435         2    ;  uncertainty k = 0.424883
        26        25        24        48     9        0.000000        2.048293         3    ;  uncertainty k = 0.495839
        26        25        24        48     9      180.000000        1.421273         4    ;  uncertainty k = 0.392662
        27        22        23        47     9        0.000000       -0.226840         1    ;  uncertainty k = 0.386483
        27        22        23        47     9      180.000000        8.410349         2    ;  uncertainty k = 0.663947
        27        22        23        47     9        0.000000        1.124505         3    ;  uncertainty k = 0.140790
        27        22        23        47     9      180.000000        1.302413         4    ;  uncertainty k = 0.250141
        27        29        30        32     9        0.000000        0.175964         1    ;  uncertainty k = 0.379302
        27        29        30        32     9      180.000000        0.091224         2    ;  uncertainty k = 0.260769
        27        29        30        32     9        0.000000        0.200904         3    ;  uncertainty k = 0.172983
        27        29        30        32     9      180.000000        0.389731         4    ;  uncertainty k = 0.168874
        27        29        30        36     9        0.000000        0.175965         1    ;  uncertainty k = 0.379304
        27        29        30        36     9      180.000000        0.091224         2    ;  uncertainty k = 0.260769
        27        29        30        36     9        0.000000        0.200904         3    ;  uncertainty k = 0.172984
        27        29        30        36     9      180.000000        0.389731         4    ;  uncertainty k = 0.168875
        27        29        30        51     9        0.000000        1.358574         1    ;  uncertainty k = 0.332191
        27        29        30        51     9      180.000000       -0.319396         2    ;  uncertainty k = 0.220900
        27        29        30        51     9        0.000000        0.207065         3    ;  uncertainty k = 0.081682
        27        29        30        51     9      180.000000        0.268652         4    ;  uncertainty k = 0.024659
        28        27        29        30     9        0.000000        2.988698         1    ;  uncertainty k = 0.473002
        28        27        29        30     9      180.000000       11.920403         2    ;  uncertainty k = 0.321388
        28        27        29        30     9        0.000000        0.142633         3    ;  uncertainty k = 0.314436
        28        27        29        30     9      180.000000        0.157763         4    ;  uncertainty k = 0.498616
        28        27        29        50     9        0.000000        2.760114         1    ;  uncertainty k = 0.769706
        28        27        29        50     9      180.000000       14.441076         2    ;  uncertainty k = 0.129014
        28        27        29        50     9        0.000000        1.605980         3    ;  uncertainty k = 0.266598
        28        27        29        50     9      180.000000       -0.401464         4    ;  uncertainty k = 0.204960
        29        30        32        33     9        0.000000       -4.694045         1    ;  uncertainty k = 0.779557
        29        30        32        33     9      180.000000       -0.565869         2    ;  uncertainty k = 0.265251
        29        30        32        33     9        0.000000        0.784963         3    ;  uncertainty k = 0.167851
        29        30        32        33     9      180.000000        0.022686         4    ;  uncertainty k = 0.176452
        29        30        32        55     9        0.000000       -0.450467         1    ;  uncertainty k = 0.635803
        29        30        32        55     9      180.000000       -1.303665         2    ;  uncertainty k = 0.388627
        29        30        32        55     9        0.000000        1.024847         3    ;  uncertainty k = 0.096848
        29        30        32        55     9      180.000000       -0.338907         4    ;  uncertainty k = 0.090238
        29        30        32        56     9        0.000000       -0.450467         1    ;  uncertainty k = 0.635803
        29        30        32        56     9      180.000000       -1.303665         2    ;  uncertainty k = 0.388627
        29        30        32        56     9        0.000000        1.024847         3    ;  uncertainty k = 0.096848
        29        30        32        56     9      180.000000       -0.338907         4    ;  uncertainty k = 0.090238
        29        30        36        35     9        0.000000       -4.694045         1    ;  uncertainty k = 0.779558
        29        30        36        35     9      180.000000       -0.565869         2    ;  uncertainty k = 0.265251
        29        30        36        35     9        0.000000        0.784964         3    ;  uncertainty k = 0.167850
        29        30        36        35     9      180.000000        0.022686         4    ;  uncertainty k = 0.176452
        29        30        36        61     9        0.000000       -0.450468         1    ;  uncertainty k = 0.635804
        29        30        36        61     9      180.000000       -1.303666         2    ;  uncertainty k = 0.388627
        29        30        36        61     9        0.000000        1.024847         3    ;  uncertainty k = 0.096848
        29        30        36        61     9      180.000000       -0.338907         4    ;  uncertainty k = 0.090238
        29        30        36        62     9        0.000000       -0.450468         1    ;  uncertainty k = 0.635804
        29        30        36        62     9      180.000000       -1.303666         2    ;  uncertainty k = 0.388627
        29        30        36        62     9        0.000000        1.024847         3    ;  uncertainty k = 0.096848
        29        30        36        62     9      180.000000       -0.338907         4    ;  uncertainty k = 0.090238
        30        32        33        34     9        0.000000       -0.678525         1    ;  uncertainty k = 1.420068
        30        32        33        34     9      180.000000       -3.906297         2    ;  uncertainty k = 0.449278
        30        32        33        34     9        0.000000        1.796346         3    ;  uncertainty k = 0.391529
        30        32        33        34     9      180.000000       -0.731698         4    ;  uncertainty k = 0.148796
        30        32        33        57     9        0.000000        3.619428         1    ;  uncertainty k = 1.065980
        30        32        33        57     9      180.000000       -2.950424         2    ;  uncertainty k = 0.504947
        30        32        33        57     9        0.000000       -0.224659         3    ;  uncertainty k = 0.250757
        30        32        33        57     9      180.000000        0.407197         4    ;  uncertainty k = 0.140841
        30        32        33        58     9        0.000000        3.619428         1    ;  uncertainty k = 1.065980
        30        32        33        58     9      180.000000       -2.950424         2    ;  uncertainty k = 0.504947
        30        32        33        58     9        0.000000       -0.224659         3    ;  uncertainty k = 0.250757
        30        32        33        58     9      180.000000        0.407197         4    ;  uncertainty k = 0.140841
        30        36        35        34     9        0.000000       -0.678524         1    ;  uncertainty k = 1.420071
        30        36        35        34     9      180.000000       -3.906296         2    ;  uncertainty k = 0.449279
        30        36        35        34     9        0.000000        1.796347         3    ;  uncertainty k = 0.391529
        30        36        35        34     9      180.000000       -0.731698         4    ;  uncertainty k = 0.148796
        30        36        35        59     9        0.000000        3.619427         1    ;  uncertainty k = 1.065980
        30        36        35        59     9      180.000000       -2.950424         2    ;  uncertainty k = 0.504948
        30        36        35        59     9        0.000000       -0.224660         3    ;  uncertainty k = 0.250757
        30        36        35        59     9      180.000000        0.407198         4    ;  uncertainty k = 0.140841
        30        36        35        60     9        0.000000        3.619427         1    ;  uncertainty k = 1.065980
        30        36        35        60     9      180.000000       -2.950424         2    ;  uncertainty k = 0.504948
        30        36        35        60     9        0.000000       -0.224660         3    ;  uncertainty k = 0.250757
        30        36        35        60     9      180.000000        0.407198         4    ;  uncertainty k = 0.140841
        31        20        19        46     9        0.000000       -0.357950         1    ;  uncertainty k = 0.336355
        31        20        19        46     9      180.000000        2.701716         2    ;  uncertainty k = 0.518907
        31        20        19        46     9        0.000000        1.060504         3    ;  uncertainty k = 0.337396
        31        20        19        46     9      180.000000        0.096607         4    ;  uncertainty k = 0.212503
        32        30        29        50     9        0.000000        0.355805         1    ;  uncertainty k = 0.531483
        32        30        29        50     9      180.000000       -0.748092         2    ;  uncertainty k = 0.110627
        32        30        29        50     9        0.000000        0.239430         3    ;  uncertainty k = 0.072639
        32        30        29        50     9      180.000000       -0.006399         4    ;  uncertainty k = 0.091076
        32        30        36        35     9        0.000000       -7.183183         1    ;  uncertainty k = 1.063128
        32        30        36        35     9      180.000000        0.392089         2    ;  uncertainty k = 1.045755
        32        30        36        35     9        0.000000        1.350577         3    ;  uncertainty k = 0.212111
        32        30        36        35     9      180.000000       -1.466563         4    ;  uncertainty k = 0.226194
        32        30        36        61     9        0.000000       -1.820133         1    ;  uncertainty k = 0.349081
        32        30        36        61     9      180.000000       -0.042144         2    ;  uncertainty k = 0.131182
        32        30        36        61     9        0.000000        0.318825         3    ;  uncertainty k = 0.141262
        32        30        36        61     9      180.000000       -0.146058         4    ;  uncertainty k = 0.062599
        32        30        36        62     9        0.000000       -1.820133         1    ;  uncertainty k = 0.349081
        32        30        36        62     9      180.000000       -0.042144         2    ;  uncertainty k = 0.131182
        32        30        36        62     9        0.000000        0.318825         3    ;  uncertainty k = 0.141262
        32        30        36        62     9      180.000000       -0.146058         4    ;  uncertainty k = 0.062599
        32        33        34        35     9        0.000000       -2.983717         1    ;  uncertainty k = 1.800512
        32        33        34        35     9      180.000000        0.058090         2    ;  uncertainty k = 1.217126
        32        33        34        35     9        0.000000        0.948136         3    ;  uncertainty k = 0.224578
        32        33        34        35     9      180.000000       -0.354887         4    ;  uncertainty k = 0.181985
        33        32        30        36     9        0.000000       -7.183185         1    ;  uncertainty k = 1.063128
        33        32        30        36     9      180.000000        0.392088         2    ;  uncertainty k = 1.045756
        33        32        30        36     9        0.000000        1.350577         3    ;  uncertainty k = 0.212110
        33        32        30        36     9      180.000000       -1.466564         4    ;  uncertainty k = 0.226193
        33        32        30        51     9        0.000000       -1.633297         1    ;  uncertainty k = 0.475829
        33        32        30        51     9      180.000000       -0.743297         2    ;  uncertainty k = 0.275523
        33        32        30        51     9        0.000000        0.030451         3    ;  uncertainty k = 0.093279
        33        32        30        51     9      180.000000       -0.155575         4    ;  uncertainty k = 0.115505
        33        34        35        36     9        0.000000       -2.983719         1    ;  uncertainty k = 1.800512
        33        34        35        36     9      180.000000        0.058091         2    ;  uncertainty k = 1.217125
        33        34        35        36     9        0.000000        0.948136         3    ;  uncertainty k = 0.224579
        33        34        35        36     9      180.000000       -0.354888         4    ;  uncertainty k = 0.181986
        33        34        35        59     9        0.000000       -5.435769         1    ;  uncertainty k = 1.707097
        33        34        35        59     9      180.000000        0.307363         2    ;  uncertainty k = 0.197076
        33        34        35        59     9        0.000000        0.745632         3    ;  uncertainty k = 0.128303
        33        34        35        59     9      180.000000       -0.528918         4    ;  uncertainty k = 0.151409
        33        34        35        60     9        0.000000       -5.435769         1    ;  uncertainty k = 1.707097
        33        34        35        60     9      180.000000        0.307363         2    ;  uncertainty k = 0.197076
        33        34        35        60     9        0.000000        0.745632         3    ;  uncertainty k = 0.128303
        33        34        35        60     9      180.000000       -0.528918         4    ;  uncertainty k = 0.151409
        34        33        32        55     9        0.000000       -1.796041         1    ;  uncertainty k = 0.588636
        34        33        32        55     9      180.000000       -0.070526         2    ;  uncertainty k = 0.323370
        34        33        32        55     9        0.000000        1.471012         3    ;  uncertainty k = 0.282477
        34        33        32        55     9      180.000000       -0.185272         4    ;  uncertainty k = 0.167579
        34        33        32        56     9        0.000000       -1.796041         1    ;  uncertainty k = 0.588636
        34        33        32        56     9      180.000000       -0.070526         2    ;  uncertainty k = 0.323370
        34        33        32        56     9        0.000000        1.471012         3    ;  uncertainty k = 0.282477
        34        33        32        56     9      180.000000       -0.185272         4    ;  uncertainty k = 0.167579
        34        35        36        61     9        0.000000       -1.796042         1    ;  uncertainty k = 0.588638
        34        35        36        61     9      180.000000       -0.070527         2    ;  uncertainty k = 0.323371
        34        35        36        61     9        0.000000        1.471012         3    ;  uncertainty k = 0.282478
        34        35        36        61     9      180.000000       -0.185272         4    ;  uncertainty k = 0.167579
        34        35        36        62     9        0.000000       -1.796042         1    ;  uncertainty k = 0.588638
        34        35        36        62     9      180.000000       -0.070527         2    ;  uncertainty k = 0.323371
        34        35        36        62     9        0.000000        1.471012         3    ;  uncertainty k = 0.282478
        34        35        36        62     9      180.000000       -0.185272         4    ;  uncertainty k = 0.167579
        35        34        33        57     9        0.000000       -5.435769         1    ;  uncertainty k = 1.707097
        35        34        33        57     9      180.000000        0.307363         2    ;  uncertainty k = 0.197076
        35        34        33        57     9        0.000000        0.745632         3    ;  uncertainty k = 0.128303
        35        34        33        57     9      180.000000       -0.528918         4    ;  uncertainty k = 0.151409
        35        34        33        58     9        0.000000       -5.435769         1    ;  uncertainty k = 1.707097
        35        34        33        58     9      180.000000        0.307363         2    ;  uncertainty k = 0.197076
        35        34        33        58     9        0.000000        0.745632         3    ;  uncertainty k = 0.128303
        35        34        33        58     9      180.000000       -0.528918         4    ;  uncertainty k = 0.151409
        35        36        30        51     9        0.000000       -1.633296         1    ;  uncertainty k = 0.475827
        35        36        30        51     9      180.000000       -0.743296         2    ;  uncertainty k = 0.275521
        35        36        30        51     9        0.000000        0.030450         3    ;  uncertainty k = 0.093278
        35        36        30        51     9      180.000000       -0.155575         4    ;  uncertainty k = 0.115505
        36        30        29        50     9        0.000000        0.355804         1    ;  uncertainty k = 0.531484
        36        30        29        50     9      180.000000       -0.748091         2    ;  uncertainty k = 0.110627
        36        30        29        50     9        0.000000        0.239429         3    ;  uncertainty k = 0.072639
        36        30        29        50     9      180.000000       -0.006399         4    ;  uncertainty k = 0.091076
        36        30        32        55     9        0.000000       -1.820133         1    ;  uncertainty k = 0.349081
        36        30        32        55     9      180.000000       -0.042144         2    ;  uncertainty k = 0.131182
        36        30        32        55     9        0.000000        0.318825         3    ;  uncertainty k = 0.141262
        36        30        32        55     9      180.000000       -0.146058         4    ;  uncertainty k = 0.062599
        36        30        32        56     9        0.000000       -1.820133         1    ;  uncertainty k = 0.349081
        36        30        32        56     9      180.000000       -0.042144         2    ;  uncertainty k = 0.131182
        36        30        32        56     9        0.000000        0.318825         3    ;  uncertainty k = 0.141262
        36        30        32        56     9      180.000000       -0.146058         4    ;  uncertainty k = 0.062599
        39         8         9        40     9        0.000000       -0.152652         1    ;  uncertainty k = 0.805688
        39         8         9        40     9      180.000000        5.398109         2    ;  uncertainty k = 0.723628
        39         8         9        40     9        0.000000        0.147471         3    ;  uncertainty k = 0.248173
        39         8         9        40     9      180.000000        0.216442         4    ;  uncertainty k = 0.153410
        42        13        14        43     9        0.000000       -0.116208         1    ;  uncertainty k = 0.085773
        42        13        14        43     9      180.000000        7.987768         2    ;  uncertainty k = 0.371552
        42        13        14        43     9        0.000000       -0.214199         3    ;  uncertainty k = 0.235185
        42        13        14        43     9      180.000000        0.260529         4    ;  uncertainty k = 0.235509
        45        18        19        46     9        0.000000       -0.013047         1    ;  uncertainty k = 0.452148
        45        18        19        46     9      180.000000        5.800984         2    ;  uncertainty k = 0.791054
        45        18        19        46     9        0.000000        1.154439         3    ;  uncertainty k = 0.426920
        45        18        19        46     9      180.000000        0.344798         4    ;  uncertainty k = 0.119750
        47        23        24        48     9        0.000000       -0.519333         1    ;  uncertainty k = 0.558439
        47        23        24        48     9      180.000000        6.420861         2    ;  uncertainty k = 0.604670
        47        23        24        48     9        0.000000       -0.200374         3    ;  uncertainty k = 0.225276
        47        23        24        48     9      180.000000        0.374599         4    ;  uncertainty k = 0.162960
        50        29        30        51     9        0.000000       -0.009494         1    ;  uncertainty k = 0.629437
        50        29        30        51     9      180.000000       -0.820337         2    ;  uncertainty k = 0.187192
        50        29        30        51     9        0.000000        0.029636         3    ;  uncertainty k = 0.156811
        50        29        30        51     9      180.000000        0.218022         4    ;  uncertainty k = 0.075364
        51        30        32        55     9        0.000000        1.405227         1    ;  uncertainty k = 0.460876
        51        30        32        55     9      180.000000       -0.377522         2    ;  uncertainty k = 0.210077
        51        30        32        55     9        0.000000        0.014992         3    ;  uncertainty k = 0.118668
        51        30        32        55     9      180.000000        0.028670         4    ;  uncertainty k = 0.057640
        51        30        32        56     9        0.000000        1.405227         1    ;  uncertainty k = 0.460876
        51        30        32        56     9      180.000000       -0.377522         2    ;  uncertainty k = 0.210077
        51        30        32        56     9        0.000000        0.014992         3    ;  uncertainty k = 0.118668
        51        30        32        56     9      180.000000        0.028670         4    ;  uncertainty k = 0.057640
        51        30        36        61     9        0.000000        1.405227         1    ;  uncertainty k = 0.460875
        51        30        36        61     9      180.000000       -0.377522         2    ;  uncertainty k = 0.210077
        51        30        36        61     9        0.000000        0.014993         3    ;  uncertainty k = 0.118668
        51        30        36        61     9      180.000000        0.028670         4    ;  uncertainty k = 0.057640
        51        30        36        62     9        0.000000        1.405227         1    ;  uncertainty k = 0.460875
        51        30        36        62     9      180.000000       -0.377522         2    ;  uncertainty k = 0.210077
        51        30        36        62     9        0.000000        0.014993         3    ;  uncertainty k = 0.118668
        51        30        36        62     9      180.000000        0.028670         4    ;  uncertainty k = 0.057640
        55        32        33        57     9        0.000000       -0.205216         1    ;  uncertainty k = 0.366329
        55        32        33        57     9      180.000000        0.701639         2    ;  uncertainty k = 0.333137
        55        32        33        57     9        0.000000        0.111788         3    ;  uncertainty k = 0.064384
        55        32        33        57     9      180.000000       -0.319118         4    ;  uncertainty k = 0.065305
        55        32        33        58     9        0.000000       -0.205216         1    ;  uncertainty k = 0.366329
        55        32        33        58     9      180.000000        0.701639         2    ;  uncertainty k = 0.333137
        55        32        33        58     9        0.000000        0.111788         3    ;  uncertainty k = 0.064384
        55        32        33        58     9      180.000000       -0.319118         4    ;  uncertainty k = 0.065305
        56        32        33        57     9        0.000000       -0.205216         1    ;  uncertainty k = 0.366329
        56        32        33        57     9      180.000000        0.701639         2    ;  uncertainty k = 0.333137
        56        32        33        57     9        0.000000        0.111788         3    ;  uncertainty k = 0.064384
        56        32        33        57     9      180.000000       -0.319118         4    ;  uncertainty k = 0.065305
        56        32        33        58     9        0.000000       -0.205216         1    ;  uncertainty k = 0.366329
        56        32        33        58     9      180.000000        0.701639         2    ;  uncertainty k = 0.333137
        56        32        33        58     9        0.000000        0.111788         3    ;  uncertainty k = 0.064384
        56        32        33        58     9      180.000000       -0.319118         4    ;  uncertainty k = 0.065305
        59        35        36        61     9        0.000000       -0.205215         1    ;  uncertainty k = 0.366329
        59        35        36        61     9      180.000000        0.701635         2    ;  uncertainty k = 0.333137
        59        35        36        61     9        0.000000        0.111787         3    ;  uncertainty k = 0.064384
        59        35        36        61     9      180.000000       -0.319118         4    ;  uncertainty k = 0.065305
        59        35        36        62     9        0.000000       -0.205215         1    ;  uncertainty k = 0.366329
        59        35        36        62     9      180.000000        0.701635         2    ;  uncertainty k = 0.333137
        59        35        36        62     9        0.000000        0.111787         3    ;  uncertainty k = 0.064384
        59        35        36        62     9      180.000000       -0.319118         4    ;  uncertainty k = 0.065305
        60        35        36        61     9        0.000000       -0.205215         1    ;  uncertainty k = 0.366329
        60        35        36        61     9      180.000000        0.701635         2    ;  uncertainty k = 0.333137
        60        35        36        61     9        0.000000        0.111787         3    ;  uncertainty k = 0.064384
        60        35        36        61     9      180.000000       -0.319118         4    ;  uncertainty k = 0.065305
        60        35        36        62     9        0.000000       -0.205215         1    ;  uncertainty k = 0.366329
        60        35        36        62     9      180.000000        0.701635         2    ;  uncertainty k = 0.333137
        60        35        36        62     9        0.000000        0.111787         3    ;  uncertainty k = 0.064384
        60        35        36        62     9      180.000000       -0.319118         4    ;  uncertainty k = 0.065305

[ dihedrals ] ; impropers
;       ai        aj        ak        al funct           phase               k        pn
         1         2         5        37     4      180.000000        2.532109         2    ;  uncertainty k = 0.377653
         1         5        37         2     4      180.000000        2.532109         2    ;  uncertainty k = 0.377653
         1        37         2         5     4      180.000000        2.532109         2    ;  uncertainty k = 0.377653
         2         1         3        12     4      180.000000       20.659632         2    ;  uncertainty k = 0.079621
         2         3        12         1     4      180.000000       20.659632         2    ;  uncertainty k = 0.079621
         2        12         1         3     4      180.000000       20.659632         2    ;  uncertainty k = 0.079621
         3         2         4        38     4      180.000000        3.046958         2    ;  uncertainty k = 0.375844
         3         4        38         2     4      180.000000        3.046958         2    ;  uncertainty k = 0.375844
         3        38         2         4     4      180.000000        3.046958         2    ;  uncertainty k = 0.375844
         4         3         6        11     4      180.000000       17.976629         2    ;  uncertainty k = 0.099558
         4         6        11         3     4      180.000000       17.976629         2    ;  uncertainty k = 0.099558
         4        11         3         6     4      180.000000       17.976629         2    ;  uncertainty k = 0.099558
         5         1         6        10     4      180.000000       18.442492         2    ;  uncertainty k = 0.055238
         5         6        10         1     4      180.000000       18.442492         2    ;  uncertainty k = 0.055238
         5        10         1         6     4      180.000000       18.442492         2    ;  uncertainty k = 0.055238
         6         4         5         7     4      180.000000       16.619254         2    ;  uncertainty k = 0.086962
         6         5         7         4     4      180.000000       16.619254         2    ;  uncertainty k = 0.086962
         6         7         4         5     4      180.000000       16.619254         2    ;  uncertainty k = 0.086962
         8         7         9        39     4      180.000000       12.058352         2    ;  uncertainty k = 0.155869
         8         9        39         7     4      180.000000       12.058352         2    ;  uncertainty k = 0.155869
         8        39         7         9     4      180.000000       12.058352         2    ;  uncertainty k = 0.155869
         9         8        10        40     4      180.000000       11.948848         2    ;  uncertainty k = 0.101429
         9        10        40         8     4      180.000000       11.948848         2    ;  uncertainty k = 0.101429
         9        40         8        10     4      180.000000       11.948848         2    ;  uncertainty k = 0.101429
        11         4        13        15     4      180.000000       12.719695         2    ;  uncertainty k = 0.169587
        11        13        15         4     4      180.000000       12.719695         2    ;  uncertainty k = 0.169587
        11        15         4        13     4      180.000000       12.719695         2    ;  uncertainty k = 0.169587
        12         2        21        41     4      180.000000        1.276314         2    ;  uncertainty k = 1.246404
        12        21        41         2     4      180.000000        1.276314         2    ;  uncertainty k = 1.246404
        12        41         2        21     4      180.000000        1.276314         2    ;  uncertainty k = 1.246404
        13        11        14        42     4      180.000000        3.145470         2    ;  uncertainty k = 0.234153
        13        14        42        11     4      180.000000        3.145470         2    ;  uncertainty k = 0.234153
        13        42        11        14     4      180.000000        3.145470         2    ;  uncertainty k = 0.234153
        14        13        17        43     4      180.000000        3.905812         2    ;  uncertainty k = 0.125325
        14        17        43        13     4      180.000000        3.905812         2    ;  uncertainty k = 0.125325
        14        43        13        17     4      180.000000        3.905812         2    ;  uncertainty k = 0.125325
        15        11        16        44     4      180.000000        2.774840         2    ;  uncertainty k = 0.245478
        15        16        44        11     4      180.000000        2.774840         2    ;  uncertainty k = 0.245478
        15        44        11        16     4      180.000000        2.774840         2    ;  uncertainty k = 0.245478
        16        15        17        20     4      180.000000        0.447274         2    ;  uncertainty k = 0.540173
        16        17        20        15     4      180.000000        0.447274         2    ;  uncertainty k = 0.540173
        16        20        15        17     4      180.000000        0.447274         2    ;  uncertainty k = 0.540173
        19        18        20        46     4      180.000000        0.796717         2    ;  uncertainty k = 0.335583
        19        20        46        18     4      180.000000        0.796717         2    ;  uncertainty k = 0.335583
        19        46        18        20     4      180.000000        0.796717         2    ;  uncertainty k = 0.335583
        21        12        22        26     4      180.000000       21.188690         2    ;  uncertainty k = 0.114235
        21        22        26        12     4      180.000000       21.188690         2    ;  uncertainty k = 0.114235
        21        26        12        22     4      180.000000       21.188690         2    ;  uncertainty k = 0.114235
        22        21        23        27     4      180.000000        9.013069         2    ;  uncertainty k = 0.372404
        22        23        27        21     4      180.000000        9.013069         2    ;  uncertainty k = 0.372404
        22        27        21        23     4      180.000000        9.013069         2    ;  uncertainty k = 0.372404
        23        22        24        47     4      180.000000        3.522995         2    ;  uncertainty k = 0.258063
        23        24        47        22     4      180.000000        3.522995         2    ;  uncertainty k = 0.258063
        23        47        22        24     4      180.000000        3.522995         2    ;  uncertainty k = 0.258063
        24        23        25        48     4      180.000000       11.448994         2    ;  uncertainty k = 0.088051
        24        25        48        23     4      180.000000       11.448994         2    ;  uncertainty k = 0.088051
        24        48        23        25     4      180.000000       11.448994         2    ;  uncertainty k = 0.088051
        26        21        25        49     4      180.000000       10.745246         2    ;  uncertainty k = 0.150410
        26        25        49        21     4      180.000000       10.745246         2    ;  uncertainty k = 0.150410
        26        49        21        25     4      180.000000       10.745246         2    ;  uncertainty k = 0.150410
        27        22        28        29     4      180.000000       51.293130         2    ;  uncertainty k = 0.037593
        27        28        29        22     4      180.000000       51.293130         2    ;  uncertainty k = 0.037593
        27        29        22        28     4      180.000000       51.293130         2    ;  uncertainty k = 0.037593

[ pairs ]
;       ai        aj funct
         1         4     1
         1         7     1
         1         9     1
         1        21     1
         1        38     1
         1        41     1
         2         6     1
         2        10     1
         2        11     1
         2        22     1
         2        26     1
         3         5     1
         3         7     1
         3        13     1
         3        15     1
         3        21     1
         3        37     1
         3        41     1
         4         8     1
         4        10     1
         4        12     1
         4        14     1
         4        16     1
         4        42     1
         4        44     1
         5         8     1
         5        11     1
         5        12     1
         5        40     1
         6         9     1
         6        13     1
         6        15     1
         6        37     1
         6        38     1
         6        39     1
         7        10     1
         7        11     1
         7        40     1
        10        37     1
        10        39     1
        11        17     1
        11        20     1
        11        38     1
        11        43     1
        12        23     1
        12        25     1
        12        27     1
        12        37     1
        12        38     1
        12        49     1
        13        16     1
        13        18     1
        13        44     1
        14        15     1
        14        19     1
        14        20     1
        14        45     1
        15        18     1
        15        19     1
        15        31     1
        15        42     1
        16        43     1
        16        45     1
        16        46     1
        16        52     1
        16        53     1
        16        54     1
        17        31     1
        17        42     1
        17        44     1
        17        46     1
        18        31     1
        18        43     1
        19        52     1
        19        53     1
        19        54     1
        20        44     1
        20        45     1
        21        24     1
        21        28     1
        21        29     1
        21        47     1
        22        25     1
        22        30     1
        22        41     1
        22        48     1
        22        49     1
        22        50     1
        23        26     1
        23        28     1
        23        29     1
        24        27     1
        24        49     1
        25        47     1
        26        27     1
        26        41     1
        26        48     1
        27        32     1
        27        36     1
        27        47     1
        27        51     1
        28        30     1
        28        50     1
        29        33     1
        29        35     1
        29        55     1
        29        56     1
        29        61     1
        29        62     1
        30        34     1
        30        57     1
        30        58     1
        30        59     1
        30        60     1
        31        46     1
        32        35     1
        32        50     1
        32        61     1
        32        62     1
        33        36     1
        33        51     1
        33        59     1
        33        60     1
        34        55     1
        34        56     1
        34        61     1
        34        62     1
        35        51     1
        35        57     1
        35        58     1
        36        50     1
        36        55     1
        36        56     1
        39        40     1
        42        43     1
        45        46     1
        47        48     1
        50        51     1
        51        55     1
        51        56     1
        51        61     1
        51        62     1
        55        57     1
        55        58     1
        56        57     1
        56        58     1
        59        61     1
        59        62     1
        60        61     1
        60        62     1
