; ITP file created by ByteFF-joint-25, 2026-02-17 09:26:22.745428

[ atomtypes ]
;name           bonded.type        at.num        mass        charge   ptype           sigma         epsilon
 c0bf                                   6      0.0000       0.00000       A     3.31497e-01     4.12789e-01    ;  uncertainty sigma = 0.000010, epsilon = 0.000732
 c1bf                                   6      0.0000       0.00000       A     3.31509e-01     4.13539e-01    ;  uncertainty sigma = 0.000009, epsilon = 0.000465
 c2bf                                   6      0.0000       0.00000       A     3.31538e-01     4.13732e-01    ;  uncertainty sigma = 0.000012, epsilon = 0.001772
 c3bf                                   6      0.0000       0.00000       A     3.31494e-01     4.13424e-01    ;  uncertainty sigma = 0.000006, epsilon = 0.000718
 c4bf                                   6      0.0000       0.00000       A     3.31516e-01     4.13470e-01    ;  uncertainty sigma = 0.000011, epsilon = 0.000986
 c5bf                                   6      0.0000       0.00000       A     3.31521e-01     4.13012e-01    ;  uncertainty sigma = 0.000010, epsilon = 0.001115
 n6bf                                   7      0.0000       0.00000       A     3.38415e-01     3.93854e-01    ;  uncertainty sigma = 0.000010, epsilon = 0.001066
 c7bf                                   6      0.0000       0.00000       A     3.31531e-01     4.13178e-01    ;  uncertainty sigma = 0.000013, epsilon = 0.000482
 c8bf                                   6      0.0000       0.00000       A     3.31530e-01     4.13238e-01    ;  uncertainty sigma = 0.000010, epsilon = 0.000599
 n9bf                                   7      0.0000       0.00000       A     3.38414e-01     3.93827e-01    ;  uncertainty sigma = 0.000003, epsilon = 0.000862
 c10bf                                  6      0.0000       0.00000       A     3.31508e-01     4.13415e-01    ;  uncertainty sigma = 0.000015, epsilon = 0.000942
 c11bf                                  6      0.0000       0.00000       A     3.31511e-01     4.13153e-01    ;  uncertainty sigma = 0.000005, epsilon = 0.000605
 c12bf                                  6      0.0000       0.00000       A     3.31523e-01     4.13488e-01    ;  uncertainty sigma = 0.000003, epsilon = 0.000637
 c13bf                                  6      0.0000       0.00000       A     3.31510e-01     4.13430e-01    ;  uncertainty sigma = 0.000006, epsilon = 0.000689
 c14bf                                  6      0.0000       0.00000       A     3.31527e-01     4.13903e-01    ;  uncertainty sigma = 0.000007, epsilon = 0.001577
 c15bf                                  6      0.0000       0.00000       A     3.31503e-01     4.13226e-01    ;  uncertainty sigma = 0.000009, epsilon = 0.001142
 n16bf                                  7      0.0000       0.00000       A     3.27956e-01     6.47518e-01    ;  uncertainty sigma = 0.000036, epsilon = 0.003822
 c17bf                                  6      0.0000       0.00000       A     3.31502e-01     4.13462e-01    ;  uncertainty sigma = 0.000018, epsilon = 0.002180
 c18bf                                  6      0.0000       0.00000       A     3.31532e-01     4.13419e-01    ;  uncertainty sigma = 0.000012, epsilon = 0.000931
 n19bf                                  7      0.0000       0.00000       A     3.38420e-01     3.93806e-01    ;  uncertainty sigma = 0.000013, epsilon = 0.000881
 c20bf                                  6      0.0000       0.00000       A     3.31513e-01     4.13350e-01    ;  uncertainty sigma = 0.000011, epsilon = 0.000728
 c21bf                                  6      0.0000       0.00000       A     3.31518e-01     4.13124e-01    ;  uncertainty sigma = 0.000015, epsilon = 0.000361
 c22bf                                  6      0.0000       0.00000       A     3.31501e-01     4.13078e-01    ;  uncertainty sigma = 0.000025, epsilon = 0.001598
 s23bf                                 16      0.0000       0.00000       A     4.05775e-01     2.56504e-01    ;  uncertainty sigma = 0.000009, epsilon = 0.002944
 o24bf                                  8      0.0000       0.00000       A     3.04808e-01     6.12058e-01    ;  uncertainty sigma = 0.000011, epsilon = 0.001075
 o25bf                                  8      0.0000       0.00000       A     3.04808e-01     6.12058e-01    ;  uncertainty sigma = 0.000011, epsilon = 0.001075
 c26bf                                  6      0.0000       0.00000       A     3.39790e-01     4.50653e-01    ;  uncertainty sigma = 0.000003, epsilon = 0.000848
 o27bf                                  8      0.0000       0.00000       A     3.15655e-01     3.04689e-01    ;  uncertainty sigma = 0.000029, epsilon = 0.002113
 c28bf                                  6      0.0000       0.00000       A     3.39778e-01     4.50411e-01    ;  uncertainty sigma = 0.000027, epsilon = 0.000824
 f29bf                                  9      0.0000       0.00000       A     3.03363e-01     3.48180e-01    ;  uncertainty sigma = 0.000019, epsilon = 0.001644
 f30bf                                  9      0.0000       0.00000       A     3.03363e-01     3.48180e-01    ;  uncertainty sigma = 0.000019, epsilon = 0.001644
 f31bf                                  9      0.0000       0.00000       A     3.03363e-01     3.48180e-01    ;  uncertainty sigma = 0.000019, epsilon = 0.001644
 h32bf                                  1      0.0000       0.00000       A     2.62540e-01     6.71221e-02    ;  uncertainty sigma = 0.000022, epsilon = 0.000645
 h33bf                                  1      0.0000       0.00000       A     2.62566e-01     6.71158e-02    ;  uncertainty sigma = 0.000015, epsilon = 0.000400
 h34bf                                  1      0.0000       0.00000       A     2.53628e-01     6.69333e-02    ;  uncertainty sigma = 0.000020, epsilon = 0.000763
 h35bf                                  1      0.0000       0.00000       A     2.53628e-01     6.69333e-02    ;  uncertainty sigma = 0.000020, epsilon = 0.000763
 h36bf                                  1      0.0000       0.00000       A     2.62563e-01     6.70436e-02    ;  uncertainty sigma = 0.000011, epsilon = 0.000538
 h37bf                                  1      0.0000       0.00000       A     2.62568e-01     6.69691e-02    ;  uncertainty sigma = 0.000011, epsilon = 0.000459
 h38bf                                  1      0.0000       0.00000       A     2.62564e-01     6.71214e-02    ;  uncertainty sigma = 0.000006, epsilon = 0.000469
 h39bf                                  1      0.0000       0.00000       A     2.62561e-01     6.71618e-02    ;  uncertainty sigma = 0.000012, epsilon = 0.000769
 h40bf                                  1      0.0000       0.00000       A     1.10720e-01     4.14039e-02    ;  uncertainty sigma = 0.000106, epsilon = 0.001477
 h41bf                                  1      0.0000       0.00000       A     2.53624e-01     6.69778e-02    ;  uncertainty sigma = 0.000049, epsilon = 0.000568
 h42bf                                  1      0.0000       0.00000       A     2.53633e-01     6.70304e-02    ;  uncertainty sigma = 0.000014, epsilon = 0.000494
 h43bf                                  1      0.0000       0.00000       A     2.62533e-01     6.70950e-02    ;  uncertainty sigma = 0.000019, epsilon = 0.000754
 h44bf                                  1      0.0000       0.00000       A     2.42167e-01     8.68275e-02    ;  uncertainty sigma = 0.000012, epsilon = 0.000620
 h45bf                                  1      0.0000       0.00000       A     2.42167e-01     8.68276e-02    ;  uncertainty sigma = 0.000012, epsilon = 0.000620
 h46bf                                  1      0.0000       0.00000       A     2.42167e-01     8.68275e-02    ;  uncertainty sigma = 0.000012, epsilon = 0.000620

[ moleculetype ]
;name             nrexcl
 MOL                   3

[ atoms ]
;       nr            type      resi   res      atom      cgnr      charge          mass ; qtot
         1            c0bf         1   UNL        c0         1    -0.02899       12.0110 ; qtot   -0.029
         2            c1bf         1   UNL        c1         2    -0.22162       12.0110 ; qtot   -0.251
         3            c2bf         1   UNL        c2         3     0.17383       12.0110 ; qtot   -0.077
         4            c3bf         1   UNL        c3         4    -0.15858       12.0110 ; qtot   -0.235
         5            c4bf         1   UNL        c4         5     0.32340       12.0110 ; qtot    0.088
         6            c5bf         1   UNL        c5         6     0.27665       12.0110 ; qtot    0.365
         7            n6bf         1   UNL        n6         7    -0.61814       14.0070 ; qtot   -0.253
         8            c7bf         1   UNL        c7         8     0.29560       12.0110 ; qtot    0.042
         9            c8bf         1   UNL        c8         9     0.29621       12.0110 ; qtot    0.338
        10            n9bf         1   UNL        n9        10    -0.62862       14.0070 ; qtot   -0.290
        11           c10bf         1   UNL       c10        11    -0.01527       12.0110 ; qtot   -0.306
        12           c11bf         1   UNL       c11        12    -0.12845       12.0110 ; qtot   -0.434
        13           c12bf         1   UNL       c12        13    -0.10657       12.0110 ; qtot   -0.541
        14           c13bf         1   UNL       c13        14    -0.12114       12.0110 ; qtot   -0.662
        15           c14bf         1   UNL       c14        15     0.09596       12.0110 ; qtot   -0.566
        16           c15bf         1   UNL       c15        16    -0.10708       12.0110 ; qtot   -0.673
        17           n16bf         1   UNL       n16        17    -0.64735       14.0070 ; qtot   -1.320
        18           c17bf         1   UNL       c17        18     0.15628       12.0110 ; qtot   -1.164
        19           c18bf         1   UNL       c18        19     0.33325       12.0110 ; qtot   -0.831
        20           n19bf         1   UNL       n19        20    -0.60182       14.0070 ; qtot   -1.432
        21           c20bf         1   UNL       c20        21     0.35581       12.0110 ; qtot   -1.077
        22           c21bf         1   UNL       c21        22    -0.13704       12.0110 ; qtot   -1.214
        23           c22bf         1   UNL       c22        23    -0.26398       12.0110 ; qtot   -1.478
        24           s23bf         1   UNL       s23        24     1.01656       32.0670 ; qtot   -0.461
        25           o24bf         1   UNL       o24        25    -0.58472       15.9990 ; qtot   -1.046
        26           o25bf         1   UNL       o25        26    -0.58472       15.9990 ; qtot   -1.631
        27           c26bf         1   UNL       c26        27    -0.18352       12.0110 ; qtot   -1.814
        28           o27bf         1   UNL       o27        28    -0.36859       15.9990 ; qtot   -2.183
        29           c28bf         1   UNL       c28        29     0.84148       12.0110 ; qtot   -1.341
        30           f29bf         1   UNL       f29        30    -0.21705       18.9980 ; qtot   -1.558
        31           f30bf         1   UNL       f30        31    -0.21705       18.9980 ; qtot   -1.775
        32           f31bf         1   UNL       f31        32    -0.21705       18.9980 ; qtot   -1.992
        33           h32bf         1   UNL       h32        33     0.15776        1.0080 ; qtot   -1.835
        34           h33bf         1   UNL       h33        34     0.14723        1.0080 ; qtot   -1.687
        35           h34bf         1   UNL       h34        35     0.03380        1.0080 ; qtot   -1.654
        36           h35bf         1   UNL       h35        36     0.03331        1.0080 ; qtot   -1.620
        37           h36bf         1   UNL       h36        37     0.14105        1.0080 ; qtot   -1.479
        38           h37bf         1   UNL       h37        38     0.13619        1.0080 ; qtot   -1.343
        39           h38bf         1   UNL       h38        39     0.15492        1.0080 ; qtot   -1.188
        40           h39bf         1   UNL       h39        40     0.15627        1.0080 ; qtot   -1.032
        41           h40bf         1   UNL       h40        41     0.47844        1.0080 ; qtot   -0.553
        42           h41bf         1   UNL       h41        42     0.03967        1.0080 ; qtot   -0.514
        43           h42bf         1   UNL       h42        43     0.03424        1.0080 ; qtot   -0.479
        44           h43bf         1   UNL       h43        44     0.16807        1.0080 ; qtot   -0.311
        45           h44bf         1   UNL       h44        45     0.10378        1.0080 ; qtot   -0.208
        46           h45bf         1   UNL       h45        46     0.10378        1.0080 ; qtot   -0.104
        47           h46bf         1   UNL       h46        47     0.10381        1.0080 ; qtot   -0.000

[ bonds ]
;       ai        aj funct               r               k
         1         4     1        0.137965   347527.626465    ;  uncertainty r = 0.000128, k = 16.752069
         1         6     1        0.143046   310891.246631    ;  uncertainty r = 0.000118, k = 16.841055
         1        11     1        0.148144   281659.939014    ;  uncertainty r = 0.000114, k = 16.489689
         2         3     1        0.138770   381943.426953    ;  uncertainty r = 0.000111, k = 9.337646
         2         5     1        0.141431   396079.468311    ;  uncertainty r = 0.000094, k = 15.205670
         2        33     1        0.108811   340366.765625    ;  uncertainty r = 0.000031, k = 1.855831
         3         4     1        0.142028   351861.401611    ;  uncertainty r = 0.000227, k = 12.579464
         3        17     1        0.141414   345942.921143    ;  uncertainty r = 0.000097, k = 12.910217
         4        34     1        0.108882   338495.201953    ;  uncertainty r = 0.000015, k = 3.632238
         5         6     1        0.142978   298967.076465    ;  uncertainty r = 0.000063, k = 15.491496
         5        10     1        0.136382   355171.598340    ;  uncertainty r = 0.000057, k = 8.738544
         6         7     1        0.135780   353419.139746    ;  uncertainty r = 0.000093, k = 12.280365
         7         8     1        0.131584   437137.956152    ;  uncertainty r = 0.000061, k = 11.801030
         8         9     1        0.141378   325245.374902    ;  uncertainty r = 0.000067, k = 16.241067
         8        35     1        0.109180   341408.015723    ;  uncertainty r = 0.000031, k = 1.111543
         9        10     1        0.131606   448634.967090    ;  uncertainty r = 0.000067, k = 6.059784
         9        36     1        0.109175   341608.175586    ;  uncertainty r = 0.000026, k = 2.358932
        11        12     1        0.140089   346504.814160    ;  uncertainty r = 0.000053, k = 2.947005
        11        16     1        0.139840   345281.790918    ;  uncertainty r = 0.000025, k = 3.307240
        12        13     1        0.139460   366683.957080    ;  uncertainty r = 0.000016, k = 2.140123
        12        37     1        0.108776   334366.923926    ;  uncertainty r = 0.000029, k = 1.320391
        13        14     1        0.139385   371479.213330    ;  uncertainty r = 0.000037, k = 1.218235
        13        38     1        0.108779   332544.902246    ;  uncertainty r = 0.000016, k = 1.363323
        14        15     1        0.139206   355945.985645    ;  uncertainty r = 0.000020, k = 3.525514
        14        39     1        0.108753   335942.870020    ;  uncertainty r = 0.000038, k = 1.535203
        15        16     1        0.139012   347552.371924    ;  uncertainty r = 0.000063, k = 2.480721
        15        28     1        0.139604   325190.444580    ;  uncertainty r = 0.000042, k = 8.424938
        16        40     1        0.108778   336469.113232    ;  uncertainty r = 0.000046, k = 0.940759
        17        18     1        0.139103   334487.356934    ;  uncertainty r = 0.000264, k = 9.014045
        17        41     1        0.101492   409720.242969    ;  uncertainty r = 0.000088, k = 5.983715
        18        19     1        0.140927   340447.897021    ;  uncertainty r = 0.000113, k = 16.488682
        18        23     1        0.141356   348414.581348    ;  uncertainty r = 0.000198, k = 15.946785
        19        20     1        0.132524   387119.492578    ;  uncertainty r = 0.000108, k = 11.004632
        19        42     1        0.108905   336131.001904    ;  uncertainty r = 0.000101, k = 3.724292
        20        21     1        0.133802   397972.227783    ;  uncertainty r = 0.000074, k = 5.323604
        21        22     1        0.139170   363105.084424    ;  uncertainty r = 0.000048, k = 3.861484
        21        43     1        0.108994   339519.240039    ;  uncertainty r = 0.000025, k = 1.411827
        22        23     1        0.138845   368349.257520    ;  uncertainty r = 0.000202, k = 14.185219
        22        44     1        0.108610   333138.767725    ;  uncertainty r = 0.000052, k = 1.956170
        23        24     1        0.180205   137177.907495    ;  uncertainty r = 0.000181, k = 18.369734
        24        25     1        0.147757   507438.298437    ;  uncertainty r = 0.000058, k = 6.198373
        24        26     1        0.147757   507438.298437    ;  uncertainty r = 0.000058, k = 6.198373
        24        27     1        0.181050   174448.795117    ;  uncertainty r = 0.000039, k = 9.209325
        27        45     1        0.109286   321567.954541    ;  uncertainty r = 0.000031, k = 1.364985
        27        46     1        0.109286   321567.954541    ;  uncertainty r = 0.000031, k = 1.364985
        27        47     1        0.109286   321567.954541    ;  uncertainty r = 0.000031, k = 1.364985
        28        29     1        0.133889   236877.706494    ;  uncertainty r = 0.000158, k = 9.069429
        29        30     1        0.133539   307871.534521    ;  uncertainty r = 0.000080, k = 1.653907
        29        31     1        0.133539   307871.534521    ;  uncertainty r = 0.000080, k = 1.653907
        29        32     1        0.133539   307871.534521    ;  uncertainty r = 0.000080, k = 1.653907

[ angles ]
;       ai        aj        ak funct           theta             cth
         1         4         3     1      122.329445      516.356170    ;  uncertainty theta = 0.004810, k = 0.265125
         1         4        34     1      118.675797      277.790090    ;  uncertainty theta = 0.004880, k = 0.050832
         1         6         5     1      120.653526      398.339579    ;  uncertainty theta = 0.005810, k = 0.067334
         1         6         7     1      118.070938      466.009184    ;  uncertainty theta = 0.003847, k = 0.244705
         1        11        12     1      120.602989      397.214574    ;  uncertainty theta = 0.002212, k = 0.042675
         1        11        16     1      119.818863      391.775265    ;  uncertainty theta = 0.002722, k = 0.071216
         2         3         4     1      119.354149      388.558004    ;  uncertainty theta = 0.003479, k = 0.061803
         2         3        17     1      122.010719      487.333915    ;  uncertainty theta = 0.006482, k = 0.189293
         2         5         6     1      119.497047      391.821392    ;  uncertainty theta = 0.005347, k = 0.191786
         2         5        10     1      122.312637      528.712396    ;  uncertainty theta = 0.003351, k = 0.210335
         3         2         5     1      118.206688      518.635612    ;  uncertainty theta = 0.002447, k = 0.073028
         3         2        33     1      121.438538      270.401917    ;  uncertainty theta = 0.001365, k = 0.142095
         3         4        34     1      119.378006      284.937384    ;  uncertainty theta = 0.005110, k = 0.129316
         3        17        18     1      115.247620      387.594010    ;  uncertainty theta = 0.002924, k = 0.212981
         3        17        41     1      115.334732      382.605017    ;  uncertainty theta = 0.007384, k = 0.160726
         4         1         6     1      121.291672      456.045466    ;  uncertainty theta = 0.004207, k = 0.129522
         4         1        11     1      120.756943      424.152106    ;  uncertainty theta = 0.003847, k = 0.173469
         4         3        17     1      120.269043      499.771605    ;  uncertainty theta = 0.004775, k = 0.338941
         5         2        33     1      120.837975      275.673543    ;  uncertainty theta = 0.003390, k = 0.103595
         5         6         7     1      119.715538      514.287664    ;  uncertainty theta = 0.004171, k = 0.058520
         5        10         9     1      114.458984      488.266148    ;  uncertainty theta = 0.001996, k = 0.147683
         6         1        11     1      119.072083      397.751204    ;  uncertainty theta = 0.003141, k = 0.213817
         6         5        10     1      119.215195      554.928154    ;  uncertainty theta = 0.007493, k = 0.084178
         6         7         8     1      116.467896      472.703067    ;  uncertainty theta = 0.004318, k = 0.126453
         7         8         9     1      121.240555      622.447314    ;  uncertainty theta = 0.002919, k = 0.205880
         7         8        35     1      116.813492      347.959523    ;  uncertainty theta = 0.001638, k = 0.087624
         8         9        10     1      120.931259      612.842998    ;  uncertainty theta = 0.002470, k = 0.239696
         8         9        36     1      121.868530      283.534439    ;  uncertainty theta = 0.002376, k = 0.096063
         9         8        35     1      121.994606      282.804174    ;  uncertainty theta = 0.002439, k = 0.090842
        10         9        36     1      116.754013      350.159800    ;  uncertainty theta = 0.001533, k = 0.075385
        11        12        13     1      119.554245      525.934661    ;  uncertainty theta = 0.001775, k = 0.066247
        11        12        37     1      119.780617      281.383449    ;  uncertainty theta = 0.002312, k = 0.064582
        11        16        15     1      119.204834      512.686168    ;  uncertainty theta = 0.002570, k = 0.103958
        11        16        40     1      120.730812      278.298470    ;  uncertainty theta = 0.001642, k = 0.045421
        12        11        16     1      120.084091      397.238068    ;  uncertainty theta = 0.002809, k = 0.132340
        12        13        14     1      120.459610      500.687876    ;  uncertainty theta = 0.001805, k = 0.090658
        12        13        38     1      120.195862      282.094083    ;  uncertainty theta = 0.000997, k = 0.027734
        13        12        37     1      120.551270      294.695273    ;  uncertainty theta = 0.001622, k = 0.056194
        13        14        15     1      117.156067      511.822248    ;  uncertainty theta = 0.001393, k = 0.080598
        13        14        39     1      121.518723      291.084965    ;  uncertainty theta = 0.002121, k = 0.019376
        14        13        38     1      119.708618      281.933327    ;  uncertainty theta = 0.000993, k = 0.025226
        14        15        16     1      122.140259      367.403797    ;  uncertainty theta = 0.004207, k = 0.146314
        14        15        28     1      119.745987      408.620500    ;  uncertainty theta = 0.004644, k = 0.051563
        15        14        39     1      119.891159      278.786835    ;  uncertainty theta = 0.002513, k = 0.094943
        15        16        40     1      119.825523      282.713900    ;  uncertainty theta = 0.003201, k = 0.056715
        15        28        29     1      109.692078      492.378612    ;  uncertainty theta = 0.003756, k = 0.177513
        16        15        28     1      119.037277      406.753578    ;  uncertainty theta = 0.004148, k = 0.083379
        17        18        19     1      118.512817      444.270049    ;  uncertainty theta = 0.006989, k = 0.276229
        17        18        23     1      122.762405      517.830874    ;  uncertainty theta = 0.007977, k = 0.368248
        18        17        41     1      114.408607      380.718431    ;  uncertainty theta = 0.008156, k = 0.169224
        18        19        20     1      124.922012      667.515332    ;  uncertainty theta = 0.002966, k = 0.161817
        18        19        42     1      118.731201      264.771767    ;  uncertainty theta = 0.008633, k = 0.144655
        18        23        22     1      123.289940      400.819392    ;  uncertainty theta = 0.003703, k = 0.311812
        18        23        24     1      119.668861      323.012512    ;  uncertainty theta = 0.009862, k = 0.668304
        19        18        23     1      118.657333      362.619739    ;  uncertainty theta = 0.004612, k = 0.362834
        19        20        21     1      118.268311      445.304685    ;  uncertainty theta = 0.004478, k = 0.098123
        20        19        42     1      116.579346      347.314743    ;  uncertainty theta = 0.005152, k = 0.066004
        20        21        22     1      122.431076      677.632432    ;  uncertainty theta = 0.002046, k = 0.093657
        20        21        43     1      116.840332      340.667018    ;  uncertainty theta = 0.001197, k = 0.068775
        21        22        23     1      118.808189      483.994204    ;  uncertainty theta = 0.004991, k = 0.079007
        21        22        44     1      122.214798      277.736813    ;  uncertainty theta = 0.004016, k = 0.070187
        22        21        43     1      120.256363      277.546307    ;  uncertainty theta = 0.002265, k = 0.082403
        22        23        24     1      114.589767      352.518918    ;  uncertainty theta = 0.008187, k = 0.213541
        23        22        44     1      119.535904      260.121156    ;  uncertainty theta = 0.004889, k = 0.124125
        23        24        25     1      112.903671      607.682204    ;  uncertainty theta = 0.002869, k = 0.171145
        23        24        26     1      112.903671      607.682204    ;  uncertainty theta = 0.002869, k = 0.171145
        23        24        27     1      104.371536      610.740975    ;  uncertainty theta = 0.002610, k = 0.101867
        24        27        45     1      107.113976      366.636120    ;  uncertainty theta = 0.002061, k = 0.075109
        24        27        46     1      107.113976      366.636184    ;  uncertainty theta = 0.002061, k = 0.075109
        24        27        47     1      107.113976      366.636120    ;  uncertainty theta = 0.002061, k = 0.075109
        25        24        26     1      123.473061      838.268511    ;  uncertainty theta = 0.001927, k = 0.047858
        25        24        27     1      112.603317      748.419512    ;  uncertainty theta = 0.000730, k = 0.122171
        26        24        27     1      112.603317      748.419512    ;  uncertainty theta = 0.000730, k = 0.122171
        28        29        30     1      112.985764      620.506685    ;  uncertainty theta = 0.003588, k = 0.048349
        28        29        31     1      112.985764      620.506685    ;  uncertainty theta = 0.003588, k = 0.048349
        28        29        32     1      112.985764      620.506685    ;  uncertainty theta = 0.003588, k = 0.048349
        30        29        31     1      111.201614      794.201101    ;  uncertainty theta = 0.002540, k = 0.021607
        30        29        32     1      111.201614      794.201101    ;  uncertainty theta = 0.002540, k = 0.021607
        31        29        32     1      111.201614      794.201101    ;  uncertainty theta = 0.002540, k = 0.021607
        45        27        46     1      108.843689      296.191780    ;  uncertainty theta = 0.002069, k = 0.023129
        45        27        47     1      108.843689      296.191780    ;  uncertainty theta = 0.002069, k = 0.023129
        46        27        47     1      108.843689      296.191780    ;  uncertainty theta = 0.002069, k = 0.023129

[ dihedrals ] ; propers for gromacs 4.5 or higher, use funct 9
;       ai        aj        ak        al funct           phase               k        pn
         1         4         3         2     9        0.000000       -0.071993         1    ;  uncertainty k = 0.312881
         1         4         3         2     9      180.000000        6.236136         2    ;  uncertainty k = 0.983384
         1         4         3         2     9        0.000000        0.294310         3    ;  uncertainty k = 0.230009
         1         4         3         2     9      180.000000        1.349273         4    ;  uncertainty k = 0.319967
         1         4         3        17     9        0.000000        0.291181         1    ;  uncertainty k = 0.704894
         1         4         3        17     9      180.000000        7.641815         2    ;  uncertainty k = 0.512848
         1         4         3        17     9        0.000000        0.801766         3    ;  uncertainty k = 0.269493
         1         4         3        17     9      180.000000        1.624680         4    ;  uncertainty k = 0.124913
         1         6         5         2     9        0.000000       -0.716627         1    ;  uncertainty k = 0.517939
         1         6         5         2     9      180.000000        4.573070         2    ;  uncertainty k = 1.581594
         1         6         5         2     9        0.000000        0.263856         3    ;  uncertainty k = 0.303979
         1         6         5         2     9      180.000000        1.239635         4    ;  uncertainty k = 0.354368
         1         6         5        10     9        0.000000       -0.323950         1    ;  uncertainty k = 0.674676
         1         6         5        10     9      180.000000        4.995436         2    ;  uncertainty k = 1.159452
         1         6         5        10     9        0.000000        0.085026         3    ;  uncertainty k = 0.375144
         1         6         5        10     9      180.000000        1.328486         4    ;  uncertainty k = 0.223764
         1         6         7         8     9        0.000000       -0.241644         1    ;  uncertainty k = 0.590156
         1         6         7         8     9      180.000000       12.381798         2    ;  uncertainty k = 0.593243
         1         6         7         8     9        0.000000        2.036291         3    ;  uncertainty k = 0.330379
         1         6         7         8     9      180.000000        1.326600         4    ;  uncertainty k = 0.192092
         1        11        12        13     9        0.000000        0.092755         1    ;  uncertainty k = 0.413462
         1        11        12        13     9      180.000000        8.692627         2    ;  uncertainty k = 0.663893
         1        11        12        13     9        0.000000        1.261395         3    ;  uncertainty k = 0.313421
         1        11        12        13     9      180.000000        1.883684         4    ;  uncertainty k = 0.192456
         1        11        12        37     9        0.000000       -0.097009         1    ;  uncertainty k = 0.101491
         1        11        12        37     9      180.000000        7.191287         2    ;  uncertainty k = 0.448697
         1        11        12        37     9        0.000000        0.852723         3    ;  uncertainty k = 0.222764
         1        11        12        37     9      180.000000        1.215161         4    ;  uncertainty k = 0.191074
         1        11        16        15     9        0.000000        0.067950         1    ;  uncertainty k = 0.194605
         1        11        16        15     9      180.000000        8.714148         2    ;  uncertainty k = 0.429008
         1        11        16        15     9        0.000000        1.251935         3    ;  uncertainty k = 0.351259
         1        11        16        15     9      180.000000        1.768062         4    ;  uncertainty k = 0.133347
         1        11        16        40     9        0.000000       -0.079786         1    ;  uncertainty k = 0.193706
         1        11        16        40     9      180.000000        7.219330         2    ;  uncertainty k = 0.225489
         1        11        16        40     9        0.000000        0.846794         3    ;  uncertainty k = 0.283499
         1        11        16        40     9      180.000000        1.234155         4    ;  uncertainty k = 0.196492
         2         3         4        34     9        0.000000        0.237751         1    ;  uncertainty k = 0.407272
         2         3         4        34     9      180.000000        5.911712         2    ;  uncertainty k = 0.917305
         2         3         4        34     9        0.000000        1.143639         3    ;  uncertainty k = 0.150774
         2         3         4        34     9      180.000000        1.435209         4    ;  uncertainty k = 0.269147
         2         3        17        18     9        0.000000        2.391292         1    ;  uncertainty k = 0.927258
         2         3        17        18     9      180.000000        5.627189         2    ;  uncertainty k = 0.345908
         2         3        17        18     9        0.000000        0.130796         3    ;  uncertainty k = 0.275597
         2         3        17        18     9      180.000000        0.108068         4    ;  uncertainty k = 0.070781
         2         3        17        41     9        0.000000        3.714210         1    ;  uncertainty k = 1.019186
         2         3        17        41     9      180.000000        4.537149         2    ;  uncertainty k = 0.136539
         2         3        17        41     9        0.000000        0.421528         3    ;  uncertainty k = 0.226094
         2         3        17        41     9      180.000000       -0.068003         4    ;  uncertainty k = 0.067047
         2         5         6         7     9        0.000000        0.075716         1    ;  uncertainty k = 0.292414
         2         5         6         7     9      180.000000        6.076566         2    ;  uncertainty k = 1.157135
         2         5         6         7     9        0.000000        0.106412         3    ;  uncertainty k = 0.161666
         2         5         6         7     9      180.000000        1.371570         4    ;  uncertainty k = 0.407671
         2         5        10         9     9        0.000000        0.427932         1    ;  uncertainty k = 1.029214
         2         5        10         9     9      180.000000       12.638436         2    ;  uncertainty k = 0.318597
         2         5        10         9     9        0.000000        2.227131         3    ;  uncertainty k = 0.470956
         2         5        10         9     9      180.000000        1.437848         4    ;  uncertainty k = 0.260470
         3         2         5         6     9        0.000000        0.124777         1    ;  uncertainty k = 0.469634
         3         2         5         6     9      180.000000        7.210380         2    ;  uncertainty k = 0.798365
         3         2         5         6     9        0.000000        0.036788         3    ;  uncertainty k = 0.281313
         3         2         5         6     9      180.000000        1.290165         4    ;  uncertainty k = 0.270790
         3         2         5        10     9        0.000000        0.146697         1    ;  uncertainty k = 0.428362
         3         2         5        10     9      180.000000        9.787397         2    ;  uncertainty k = 0.378069
         3         2         5        10     9        0.000000        0.568644         3    ;  uncertainty k = 0.286792
         3         2         5        10     9      180.000000        1.391199         4    ;  uncertainty k = 0.231273
         3         4         1         6     9        0.000000        0.028373         1    ;  uncertainty k = 0.522936
         3         4         1         6     9      180.000000       12.617545         2    ;  uncertainty k = 0.440696
         3         4         1         6     9        0.000000        0.369704         3    ;  uncertainty k = 0.240146
         3         4         1         6     9      180.000000        1.264562         4    ;  uncertainty k = 0.326717
         3         4         1        11     9        0.000000        0.168234         1    ;  uncertainty k = 0.161811
         3         4         1        11     9      180.000000       10.499676         2    ;  uncertainty k = 0.680076
         3         4         1        11     9        0.000000        1.360103         3    ;  uncertainty k = 0.282026
         3         4         1        11     9      180.000000        1.709658         4    ;  uncertainty k = 0.304814
         3        17        18        19     9        0.000000        4.219814         1    ;  uncertainty k = 1.204826
         3        17        18        19     9      180.000000        5.915026         2    ;  uncertainty k = 0.485741
         3        17        18        19     9        0.000000        0.506820         3    ;  uncertainty k = 0.114706
         3        17        18        19     9      180.000000        0.021030         4    ;  uncertainty k = 0.159761
         3        17        18        23     9        0.000000        0.589932         1    ;  uncertainty k = 1.531193
         3        17        18        23     9      180.000000        8.272739         2    ;  uncertainty k = 0.309915
         3        17        18        23     9        0.000000       -0.349199         3    ;  uncertainty k = 0.585019
         3        17        18        23     9      180.000000        0.078445         4    ;  uncertainty k = 0.210861
         4         1         6         5     9        0.000000       -0.099935         1    ;  uncertainty k = 0.496974
         4         1         6         5     9      180.000000        5.862102         2    ;  uncertainty k = 1.003744
         4         1         6         5     9        0.000000        0.074673         3    ;  uncertainty k = 0.284310
         4         1         6         5     9      180.000000        0.986237         4    ;  uncertainty k = 0.339660
         4         1         6         7     9        0.000000        0.235537         1    ;  uncertainty k = 0.583081
         4         1         6         7     9      180.000000        6.958877         2    ;  uncertainty k = 0.813062
         4         1         6         7     9        0.000000        0.371316         3    ;  uncertainty k = 0.318358
         4         1         6         7     9      180.000000        1.152055         4    ;  uncertainty k = 0.333815
         4         1        11        12     9        0.000000       -0.235353         1    ;  uncertainty k = 0.372265
         4         1        11        12     9      180.000000        5.237500         2    ;  uncertainty k = 0.225580
         4         1        11        12     9        0.000000        0.431639         3    ;  uncertainty k = 0.149605
         4         1        11        12     9      180.000000        0.486621         4    ;  uncertainty k = 0.108662
         4         1        11        16     9        0.000000        0.072926         1    ;  uncertainty k = 0.293969
         4         1        11        16     9      180.000000        5.204539         2    ;  uncertainty k = 0.187317
         4         1        11        16     9        0.000000        0.396407         3    ;  uncertainty k = 0.148099
         4         1        11        16     9      180.000000        0.468515         4    ;  uncertainty k = 0.086150
         4         3         2         5     9        0.000000       -0.230094         1    ;  uncertainty k = 0.193613
         4         3         2         5     9      180.000000        9.799482         2    ;  uncertainty k = 0.334539
         4         3         2         5     9        0.000000        0.322865         3    ;  uncertainty k = 0.471328
         4         3         2         5     9      180.000000        1.352621         4    ;  uncertainty k = 0.303410
         4         3         2        33     9        0.000000        0.271865         1    ;  uncertainty k = 0.395472
         4         3         2        33     9      180.000000        7.009638         2    ;  uncertainty k = 0.650819
         4         3         2        33     9        0.000000        1.296696         3    ;  uncertainty k = 0.117301
         4         3         2        33     9      180.000000        1.627549         4    ;  uncertainty k = 0.152794
         4         3        17        18     9        0.000000        2.703023         1    ;  uncertainty k = 1.093474
         4         3        17        18     9      180.000000        5.646721         2    ;  uncertainty k = 0.287758
         4         3        17        18     9        0.000000        0.628331         3    ;  uncertainty k = 0.301753
         4         3        17        18     9      180.000000        0.075594         4    ;  uncertainty k = 0.163630
         4         3        17        41     9        0.000000        3.315350         1    ;  uncertainty k = 0.856350
         4         3        17        41     9      180.000000        4.508871         2    ;  uncertainty k = 0.528167
         4         3        17        41     9        0.000000        0.509564         3    ;  uncertainty k = 0.257911
         4         3        17        41     9      180.000000       -0.046361         4    ;  uncertainty k = 0.122570
         5         2         3        17     9        0.000000       -0.189602         1    ;  uncertainty k = 0.394616
         5         2         3        17     9      180.000000       11.233636         2    ;  uncertainty k = 0.435508
         5         2         3        17     9        0.000000        0.975271         3    ;  uncertainty k = 0.174800
         5         2         3        17     9      180.000000        1.594279         4    ;  uncertainty k = 0.138017
         5         6         1        11     9        0.000000        0.139035         1    ;  uncertainty k = 0.741939
         5         6         1        11     9      180.000000        5.022589         2    ;  uncertainty k = 0.648391
         5         6         1        11     9        0.000000        1.055700         3    ;  uncertainty k = 0.242937
         5         6         1        11     9      180.000000        1.251596         4    ;  uncertainty k = 0.351613
         5         6         7         8     9        0.000000       -0.121918         1    ;  uncertainty k = 0.899148
         5         6         7         8     9      180.000000       11.592838         2    ;  uncertainty k = 0.635161
         5         6         7         8     9        0.000000        1.459268         3    ;  uncertainty k = 0.284518
         5         6         7         8     9      180.000000        1.335516         4    ;  uncertainty k = 0.320568
         5        10         9         8     9        0.000000        0.013311         1    ;  uncertainty k = 0.131653
         5        10         9         8     9      180.000000       17.231919         2    ;  uncertainty k = 0.196674
         5        10         9         8     9        0.000000        0.888029         3    ;  uncertainty k = 0.629562
         5        10         9         8     9      180.000000        1.519865         4    ;  uncertainty k = 0.234840
         5        10         9        36     9        0.000000        0.424411         1    ;  uncertainty k = 0.517708
         5        10         9        36     9      180.000000       19.045700         2    ;  uncertainty k = 0.443936
         5        10         9        36     9        0.000000        2.354564         3    ;  uncertainty k = 0.582721
         5        10         9        36     9      180.000000        1.407429         4    ;  uncertainty k = 0.336465
         6         1         4        34     9        0.000000        0.096977         1    ;  uncertainty k = 0.263832
         6         1         4        34     9      180.000000        9.642330         2    ;  uncertainty k = 0.351743
         6         1         4        34     9        0.000000        1.476436         3    ;  uncertainty k = 0.150128
         6         1         4        34     9      180.000000        1.666012         4    ;  uncertainty k = 0.168098
         6         1        11        12     9        0.000000        0.408081         1    ;  uncertainty k = 0.703967
         6         1        11        12     9      180.000000        4.904501         2    ;  uncertainty k = 0.390242
         6         1        11        12     9        0.000000        0.355115         3    ;  uncertainty k = 0.370118
         6         1        11        12     9      180.000000        0.696797         4    ;  uncertainty k = 0.050100
         6         1        11        16     9        0.000000       -0.198638         1    ;  uncertainty k = 0.679878
         6         1        11        16     9      180.000000        4.827572         2    ;  uncertainty k = 0.360557
         6         1        11        16     9        0.000000        0.409422         3    ;  uncertainty k = 0.363574
         6         1        11        16     9      180.000000        0.623969         4    ;  uncertainty k = 0.070852
         6         5         2        33     9        0.000000       -0.227944         1    ;  uncertainty k = 0.343151
         6         5         2        33     9      180.000000        5.855722         2    ;  uncertainty k = 0.873789
         6         5         2        33     9        0.000000        1.201888         3    ;  uncertainty k = 0.161541
         6         5         2        33     9      180.000000        1.243551         4    ;  uncertainty k = 0.340266
         6         5        10         9     9        0.000000       -0.066074         1    ;  uncertainty k = 1.326543
         6         5        10         9     9      180.000000       10.119061         2    ;  uncertainty k = 0.624084
         6         5        10         9     9        0.000000        1.274776         3    ;  uncertainty k = 0.483533
         6         5        10         9     9      180.000000        1.288278         4    ;  uncertainty k = 0.224413
         6         7         8         9     9        0.000000        0.032700         1    ;  uncertainty k = 0.371842
         6         7         8         9     9      180.000000       16.595219         2    ;  uncertainty k = 0.331031
         6         7         8         9     9        0.000000        0.830940         3    ;  uncertainty k = 0.755157
         6         7         8         9     9      180.000000        1.569816         4    ;  uncertainty k = 0.254727
         6         7         8        35     9        0.000000        0.273195         1    ;  uncertainty k = 0.534605
         6         7         8        35     9      180.000000       18.195196         2    ;  uncertainty k = 0.528958
         6         7         8        35     9        0.000000        2.346360         3    ;  uncertainty k = 0.656567
         6         7         8        35     9      180.000000        1.630137         4    ;  uncertainty k = 0.414697
         7         6         1        11     9        0.000000        0.242894         1    ;  uncertainty k = 1.202331
         7         6         1        11     9      180.000000        7.420423         2    ;  uncertainty k = 0.635628
         7         6         1        11     9        0.000000        0.792529         3    ;  uncertainty k = 0.529409
         7         6         1        11     9      180.000000        1.165500         4    ;  uncertainty k = 0.249976
         7         6         5        10     9        0.000000       -0.400758         1    ;  uncertainty k = 0.893249
         7         6         5        10     9      180.000000        7.082848         2    ;  uncertainty k = 0.717739
         7         6         5        10     9        0.000000        0.077325         3    ;  uncertainty k = 0.333985
         7         6         5        10     9      180.000000        1.332378         4    ;  uncertainty k = 0.355974
         7         8         9        10     9        0.000000       -0.202866         1    ;  uncertainty k = 0.782206
         7         8         9        10     9      180.000000       12.112991         2    ;  uncertainty k = 0.805807
         7         8         9        10     9        0.000000       -1.599825         3    ;  uncertainty k = 0.569696
         7         8         9        10     9      180.000000        0.918172         4    ;  uncertainty k = 0.463986
         7         8         9        36     9        0.000000        0.036887         1    ;  uncertainty k = 0.700692
         7         8         9        36     9      180.000000        6.513920         2    ;  uncertainty k = 1.135261
         7         8         9        36     9        0.000000        0.521732         3    ;  uncertainty k = 0.385188
         7         8         9        36     9      180.000000        1.117821         4    ;  uncertainty k = 0.330142
        10         5         2        33     9        0.000000        0.139927         1    ;  uncertainty k = 0.233388
        10         5         2        33     9      180.000000        8.199302         2    ;  uncertainty k = 0.492393
        10         5         2        33     9        0.000000        1.032825         3    ;  uncertainty k = 0.329116
        10         5         2        33     9      180.000000        1.219854         4    ;  uncertainty k = 0.291231
        10         9         8        35     9        0.000000       -0.033262         1    ;  uncertainty k = 0.634830
        10         9         8        35     9      180.000000        6.504272         2    ;  uncertainty k = 1.136878
        10         9         8        35     9        0.000000        0.521238         3    ;  uncertainty k = 0.433609
        10         9         8        35     9      180.000000        1.070757         4    ;  uncertainty k = 0.343719
        11         1         4        34     9        0.000000        0.139055         1    ;  uncertainty k = 0.270326
        11         1         4        34     9      180.000000        8.521932         2    ;  uncertainty k = 0.235556
        11         1         4        34     9        0.000000        1.036942         3    ;  uncertainty k = 0.141866
        11         1         4        34     9      180.000000        1.394642         4    ;  uncertainty k = 0.283934
        11        12        13        14     9        0.000000       -0.109572         1    ;  uncertainty k = 0.108802
        11        12        13        14     9      180.000000       14.262964         2    ;  uncertainty k = 0.315299
        11        12        13        14     9        0.000000       -0.899205         3    ;  uncertainty k = 0.437079
        11        12        13        14     9      180.000000        0.749161         4    ;  uncertainty k = 0.200093
        11        12        13        38     9        0.000000       -0.053958         1    ;  uncertainty k = 0.199666
        11        12        13        38     9      180.000000        7.537215         2    ;  uncertainty k = 0.330235
        11        12        13        38     9        0.000000        1.315387         3    ;  uncertainty k = 0.206872
        11        12        13        38     9      180.000000        1.815910         4    ;  uncertainty k = 0.186183
        11        16        15        14     9        0.000000       -0.166585         1    ;  uncertainty k = 0.276210
        11        16        15        14     9      180.000000        9.960248         2    ;  uncertainty k = 0.270720
        11        16        15        14     9        0.000000        0.006310         3    ;  uncertainty k = 0.202441
        11        16        15        14     9      180.000000        1.167587         4    ;  uncertainty k = 0.279141
        11        16        15        28     9        0.000000       -0.140527         1    ;  uncertainty k = 0.366827
        11        16        15        28     9      180.000000       11.890296         2    ;  uncertainty k = 0.263484
        11        16        15        28     9        0.000000        1.229433         3    ;  uncertainty k = 0.214454
        11        16        15        28     9      180.000000        1.525263         4    ;  uncertainty k = 0.073912
        12        11        16        15     9        0.000000       -0.213064         1    ;  uncertainty k = 0.121212
        12        11        16        15     9      180.000000       11.629881         2    ;  uncertainty k = 0.267364
        12        11        16        15     9        0.000000       -0.264438         3    ;  uncertainty k = 0.330729
        12        11        16        15     9      180.000000        0.956143         4    ;  uncertainty k = 0.336262
        12        11        16        40     9        0.000000        0.337972         1    ;  uncertainty k = 0.140760
        12        11        16        40     9      180.000000        7.240505         2    ;  uncertainty k = 0.553821
        12        11        16        40     9        0.000000        1.500629         3    ;  uncertainty k = 0.177957
        12        11        16        40     9      180.000000        1.681429         4    ;  uncertainty k = 0.228223
        12        13        14        15     9        0.000000       -0.169074         1    ;  uncertainty k = 0.248667
        12        13        14        15     9      180.000000       14.266145         2    ;  uncertainty k = 0.249381
        12        13        14        15     9        0.000000       -0.929155         3    ;  uncertainty k = 0.445594
        12        13        14        15     9      180.000000        0.764791         4    ;  uncertainty k = 0.200430
        12        13        14        39     9        0.000000        0.139579         1    ;  uncertainty k = 0.072359
        12        13        14        39     9      180.000000        7.614430         2    ;  uncertainty k = 0.359590
        12        13        14        39     9        0.000000        1.498083         3    ;  uncertainty k = 0.258700
        12        13        14        39     9      180.000000        1.827599         4    ;  uncertainty k = 0.152948
        13        12        11        16     9        0.000000       -0.225384         1    ;  uncertainty k = 0.180516
        13        12        11        16     9      180.000000       12.030379         2    ;  uncertainty k = 0.170985
        13        12        11        16     9        0.000000       -0.585753         3    ;  uncertainty k = 0.336733
        13        12        11        16     9      180.000000        0.857127         4    ;  uncertainty k = 0.241344
        13        14        15        16     9        0.000000       -0.146449         1    ;  uncertainty k = 0.170490
        13        14        15        16     9      180.000000       10.523864         2    ;  uncertainty k = 0.442803
        13        14        15        16     9        0.000000       -0.328825         3    ;  uncertainty k = 0.347760
        13        14        15        16     9      180.000000        1.040030         4    ;  uncertainty k = 0.322904
        13        14        15        28     9        0.000000       -0.235132         1    ;  uncertainty k = 0.210633
        13        14        15        28     9      180.000000       11.497309         2    ;  uncertainty k = 0.406411
        13        14        15        28     9        0.000000        1.293620         3    ;  uncertainty k = 0.222041
        13        14        15        28     9      180.000000        1.595229         4    ;  uncertainty k = 0.152570
        14        13        12        37     9        0.000000        0.055773         1    ;  uncertainty k = 0.148982
        14        13        12        37     9      180.000000        7.870380         2    ;  uncertainty k = 0.304637
        14        13        12        37     9        0.000000        1.458218         3    ;  uncertainty k = 0.271248
        14        13        12        37     9      180.000000        1.852788         4    ;  uncertainty k = 0.174637
        14        15        16        40     9        0.000000        0.156687         1    ;  uncertainty k = 0.372879
        14        15        16        40     9      180.000000        6.412211         2    ;  uncertainty k = 0.616255
        14        15        16        40     9        0.000000        1.419108         3    ;  uncertainty k = 0.356725
        14        15        16        40     9      180.000000        1.651686         4    ;  uncertainty k = 0.195577
        14        15        28        29     9        0.000000        2.283836         1    ;  uncertainty k = 0.278973
        14        15        28        29     9      180.000000        4.069919         2    ;  uncertainty k = 0.075801
        14        15        28        29     9        0.000000        0.758092         3    ;  uncertainty k = 0.186504
        14        15        28        29     9      180.000000       -0.102435         4    ;  uncertainty k = 0.057238
        15        14        13        38     9        0.000000        0.020846         1    ;  uncertainty k = 0.067337
        15        14        13        38     9      180.000000        7.564514         2    ;  uncertainty k = 0.390399
        15        14        13        38     9        0.000000        1.356641         3    ;  uncertainty k = 0.186363
        15        14        13        38     9      180.000000        1.781615         4    ;  uncertainty k = 0.152914
        15        28        29        30     9        0.000000       -1.834369         1    ;  uncertainty k = 0.885788
        15        28        29        30     9      180.000000        4.927188         2    ;  uncertainty k = 0.139415
        15        28        29        30     9        0.000000        1.299514         3    ;  uncertainty k = 0.098489
        15        28        29        30     9      180.000000        0.181392         4    ;  uncertainty k = 0.100814
        15        28        29        31     9        0.000000       -1.834369         1    ;  uncertainty k = 0.885788
        15        28        29        31     9      180.000000        4.927188         2    ;  uncertainty k = 0.139415
        15        28        29        31     9        0.000000        1.299514         3    ;  uncertainty k = 0.098489
        15        28        29        31     9      180.000000        0.181392         4    ;  uncertainty k = 0.100814
        15        28        29        32     9        0.000000       -1.834369         1    ;  uncertainty k = 0.885788
        15        28        29        32     9      180.000000        4.927188         2    ;  uncertainty k = 0.139415
        15        28        29        32     9        0.000000        1.299514         3    ;  uncertainty k = 0.098489
        15        28        29        32     9      180.000000        0.181392         4    ;  uncertainty k = 0.100814
        16        11        12        37     9        0.000000        0.294157         1    ;  uncertainty k = 0.124526
        16        11        12        37     9      180.000000        7.310888         2    ;  uncertainty k = 0.585482
        16        11        12        37     9        0.000000        1.481511         3    ;  uncertainty k = 0.235089
        16        11        12        37     9      180.000000        1.652083         4    ;  uncertainty k = 0.258183
        16        15        14        39     9        0.000000        0.186040         1    ;  uncertainty k = 0.266429
        16        15        14        39     9      180.000000        6.293205         2    ;  uncertainty k = 0.689304
        16        15        14        39     9        0.000000        1.424029         3    ;  uncertainty k = 0.419017
        16        15        14        39     9      180.000000        1.563840         4    ;  uncertainty k = 0.182852
        16        15        28        29     9        0.000000        2.532529         1    ;  uncertainty k = 0.311311
        16        15        28        29     9      180.000000        4.144615         2    ;  uncertainty k = 0.123143
        16        15        28        29     9        0.000000        0.704276         3    ;  uncertainty k = 0.144558
        16        15        28        29     9      180.000000       -0.083634         4    ;  uncertainty k = 0.062653
        17         3         2        33     9        0.000000       -0.570256         1    ;  uncertainty k = 0.225437
        17         3         2        33     9      180.000000        8.036469         2    ;  uncertainty k = 0.539841
        17         3         2        33     9        0.000000        0.826404         3    ;  uncertainty k = 0.259178
        17         3         2        33     9      180.000000        1.188346         4    ;  uncertainty k = 0.226655
        17         3         4        34     9        0.000000       -0.452049         1    ;  uncertainty k = 0.327503
        17         3         4        34     9      180.000000        6.961909         2    ;  uncertainty k = 0.390567
        17         3         4        34     9        0.000000        0.803667         3    ;  uncertainty k = 0.225958
        17         3         4        34     9      180.000000        1.176718         4    ;  uncertainty k = 0.121576
        17        18        19        20     9        0.000000        0.284522         1    ;  uncertainty k = 0.937481
        17        18        19        20     9      180.000000        8.701419         2    ;  uncertainty k = 0.854399
        17        18        19        20     9        0.000000        0.836725         3    ;  uncertainty k = 0.185927
        17        18        19        20     9      180.000000        1.496108         4    ;  uncertainty k = 0.299674
        17        18        19        42     9        0.000000        0.007093         1    ;  uncertainty k = 0.499750
        17        18        19        42     9      180.000000        5.972503         2    ;  uncertainty k = 0.983101
        17        18        19        42     9        0.000000        0.942185         3    ;  uncertainty k = 0.273147
        17        18        19        42     9      180.000000        1.158934         4    ;  uncertainty k = 0.246634
        17        18        23        22     9        0.000000       -0.020825         1    ;  uncertainty k = 0.416437
        17        18        23        22     9      180.000000        7.821352         2    ;  uncertainty k = 0.442940
        17        18        23        22     9        0.000000        1.029527         3    ;  uncertainty k = 0.210995
        17        18        23        22     9      180.000000        1.524188         4    ;  uncertainty k = 0.257372
        17        18        23        24     9        0.000000       -0.506013         1    ;  uncertainty k = 0.475729
        17        18        23        24     9      180.000000        7.636455         2    ;  uncertainty k = 0.878998
        17        18        23        24     9        0.000000        1.159105         3    ;  uncertainty k = 0.332203
        17        18        23        24     9      180.000000        1.400877         4    ;  uncertainty k = 0.254665
        18        19        20        21     9        0.000000        0.036596         1    ;  uncertainty k = 0.371494
        18        19        20        21     9      180.000000       16.597051         2    ;  uncertainty k = 0.304805
        18        19        20        21     9        0.000000        0.966622         3    ;  uncertainty k = 0.517836
        18        19        20        21     9      180.000000        1.451098         4    ;  uncertainty k = 0.177715
        18        23        22        21     9        0.000000       -0.265670         1    ;  uncertainty k = 0.419232
        18        23        22        21     9      180.000000       10.460451         2    ;  uncertainty k = 0.389563
        18        23        22        21     9        0.000000       -0.366509         3    ;  uncertainty k = 0.514479
        18        23        22        21     9      180.000000        0.929899         4    ;  uncertainty k = 0.330295
        18        23        22        44     9        0.000000        0.238370         1    ;  uncertainty k = 0.382236
        18        23        22        44     9      180.000000        7.525225         2    ;  uncertainty k = 0.903253
        18        23        22        44     9        0.000000        1.267263         3    ;  uncertainty k = 0.290614
        18        23        22        44     9      180.000000        1.474858         4    ;  uncertainty k = 0.123421
        18        23        24        25     9        0.000000       -5.228556         1    ;  uncertainty k = 2.158655
        18        23        24        25     9      180.000000       -0.861345         2    ;  uncertainty k = 0.805163
        18        23        24        25     9        0.000000        1.201043         3    ;  uncertainty k = 0.425533
        18        23        24        25     9      180.000000       -0.042324         4    ;  uncertainty k = 0.375368
        18        23        24        26     9        0.000000       -5.228556         1    ;  uncertainty k = 2.158655
        18        23        24        26     9      180.000000       -0.861345         2    ;  uncertainty k = 0.805163
        18        23        24        26     9        0.000000        1.201043         3    ;  uncertainty k = 0.425533
        18        23        24        26     9      180.000000       -0.042324         4    ;  uncertainty k = 0.375368
        18        23        24        27     9        0.000000        0.262419         1    ;  uncertainty k = 1.833672
        18        23        24        27     9      180.000000       -1.026928         2    ;  uncertainty k = 0.798423
        18        23        24        27     9        0.000000        0.956202         3    ;  uncertainty k = 0.348086
        18        23        24        27     9      180.000000        0.178350         4    ;  uncertainty k = 0.195566
        19        18        17        41     9        0.000000        0.917544         1    ;  uncertainty k = 1.463600
        19        18        17        41     9      180.000000        4.182458         2    ;  uncertainty k = 0.765144
        19        18        17        41     9        0.000000       -0.106077         3    ;  uncertainty k = 0.498483
        19        18        17        41     9      180.000000       -0.220151         4    ;  uncertainty k = 0.253379
        19        18        23        22     9        0.000000       -0.438834         1    ;  uncertainty k = 0.840319
        19        18        23        22     9      180.000000        4.610450         2    ;  uncertainty k = 1.641699
        19        18        23        22     9        0.000000        0.358135         3    ;  uncertainty k = 0.323563
        19        18        23        22     9      180.000000        1.351096         4    ;  uncertainty k = 0.315698
        19        18        23        24     9        0.000000        0.917642         1    ;  uncertainty k = 0.634888
        19        18        23        24     9      180.000000        4.793053         2    ;  uncertainty k = 1.087368
        19        18        23        24     9        0.000000        1.108846         3    ;  uncertainty k = 0.290817
        19        18        23        24     9      180.000000        1.561541         4    ;  uncertainty k = 0.342192
        19        20        21        22     9        0.000000       -0.485016         1    ;  uncertainty k = 0.425215
        19        20        21        22     9      180.000000       15.189731         2    ;  uncertainty k = 0.461239
        19        20        21        22     9        0.000000        1.127628         3    ;  uncertainty k = 0.661679
        19        20        21        22     9      180.000000        1.285431         4    ;  uncertainty k = 0.097277
        19        20        21        43     9        0.000000        0.172532         1    ;  uncertainty k = 0.566096
        19        20        21        43     9      180.000000       15.445790         2    ;  uncertainty k = 0.425751
        19        20        21        43     9        0.000000        2.152702         3    ;  uncertainty k = 0.508048
        19        20        21        43     9      180.000000        1.381411         4    ;  uncertainty k = 0.359273
        20        19        18        23     9        0.000000       -0.562844         1    ;  uncertainty k = 0.540738
        20        19        18        23     9      180.000000        6.748516         2    ;  uncertainty k = 1.268444
        20        19        18        23     9        0.000000        0.077078         3    ;  uncertainty k = 0.370451
        20        19        18        23     9      180.000000        1.216829         4    ;  uncertainty k = 0.295894
        20        21        22        23     9        0.000000       -0.252470         1    ;  uncertainty k = 0.431541
        20        21        22        23     9      180.000000       13.556324         2    ;  uncertainty k = 0.574918
        20        21        22        23     9        0.000000       -1.106331         3    ;  uncertainty k = 1.113055
        20        21        22        23     9      180.000000        0.952273         4    ;  uncertainty k = 0.151718
        20        21        22        44     9        0.000000       -0.068096         1    ;  uncertainty k = 0.262319
        20        21        22        44     9      180.000000        9.165641         2    ;  uncertainty k = 0.726880
        20        21        22        44     9        0.000000        0.979809         3    ;  uncertainty k = 0.350348
        20        21        22        44     9      180.000000        1.652653         4    ;  uncertainty k = 0.185846
        21        20        19        42     9        0.000000        0.508068         1    ;  uncertainty k = 0.686768
        21        20        19        42     9      180.000000       16.706316         2    ;  uncertainty k = 0.583289
        21        20        19        42     9        0.000000        2.361241         3    ;  uncertainty k = 0.235965
        21        20        19        42     9      180.000000        1.517602         4    ;  uncertainty k = 0.508263
        21        22        23        24     9        0.000000        0.601785         1    ;  uncertainty k = 0.840722
        21        22        23        24     9      180.000000        9.254868         2    ;  uncertainty k = 0.664789
        21        22        23        24     9        0.000000        1.560649         3    ;  uncertainty k = 0.502422
        21        22        23        24     9      180.000000        1.838812         4    ;  uncertainty k = 0.146620
        22        23        24        25     9        0.000000       -0.492326         1    ;  uncertainty k = 1.108209
        22        23        24        25     9      180.000000        0.135603         2    ;  uncertainty k = 0.455040
        22        23        24        25     9        0.000000        0.177824         3    ;  uncertainty k = 0.237274
        22        23        24        25     9      180.000000        0.012963         4    ;  uncertainty k = 0.209193
        22        23        24        26     9        0.000000       -0.492326         1    ;  uncertainty k = 1.108209
        22        23        24        26     9      180.000000        0.135603         2    ;  uncertainty k = 0.455040
        22        23        24        26     9        0.000000        0.177824         3    ;  uncertainty k = 0.237274
        22        23        24        26     9      180.000000        0.012963         4    ;  uncertainty k = 0.209193
        22        23        24        27     9        0.000000        3.406872         1    ;  uncertainty k = 1.708514
        22        23        24        27     9      180.000000        0.171419         2    ;  uncertainty k = 0.576994
        22        23        24        27     9        0.000000       -0.078308         3    ;  uncertainty k = 0.399032
        22        23        24        27     9      180.000000        0.444415         4    ;  uncertainty k = 0.155672
        23        18        17        41     9        0.000000        9.262100         1    ;  uncertainty k = 0.773179
        23        18        17        41     9      180.000000        3.945832         2    ;  uncertainty k = 0.536445
        23        18        17        41     9        0.000000        0.752572         3    ;  uncertainty k = 0.273740
        23        18        17        41     9      180.000000       -0.119638         4    ;  uncertainty k = 0.176171
        23        18        19        42     9        0.000000        0.000816         1    ;  uncertainty k = 1.384589
        23        18        19        42     9      180.000000        4.685090         2    ;  uncertainty k = 1.110639
        23        18        19        42     9        0.000000        1.104676         3    ;  uncertainty k = 0.238511
        23        18        19        42     9      180.000000        1.089444         4    ;  uncertainty k = 0.205054
        23        22        21        43     9        0.000000       -0.148525         1    ;  uncertainty k = 0.589763
        23        22        21        43     9      180.000000        6.244193         2    ;  uncertainty k = 0.249576
        23        22        21        43     9        0.000000        1.014104         3    ;  uncertainty k = 0.237437
        23        22        21        43     9      180.000000        1.497615         4    ;  uncertainty k = 0.181166
        23        24        27        45     9        0.000000        2.345204         1    ;  uncertainty k = 0.643496
        23        24        27        45     9      180.000000       -2.433990         2    ;  uncertainty k = 0.375724
        23        24        27        45     9        0.000000        0.170343         3    ;  uncertainty k = 0.101207
        23        24        27        45     9      180.000000        0.001305         4    ;  uncertainty k = 0.149206
        23        24        27        46     9        0.000000        2.345204         1    ;  uncertainty k = 0.643496
        23        24        27        46     9      180.000000       -2.433990         2    ;  uncertainty k = 0.375724
        23        24        27        46     9        0.000000        0.170343         3    ;  uncertainty k = 0.101207
        23        24        27        46     9      180.000000        0.001305         4    ;  uncertainty k = 0.149206
        23        24        27        47     9        0.000000        2.345204         1    ;  uncertainty k = 0.643496
        23        24        27        47     9      180.000000       -2.433990         2    ;  uncertainty k = 0.375724
        23        24        27        47     9        0.000000        0.170343         3    ;  uncertainty k = 0.101207
        23        24        27        47     9      180.000000        0.001305         4    ;  uncertainty k = 0.149206
        24        23        22        44     9        0.000000       -0.424035         1    ;  uncertainty k = 0.616074
        24        23        22        44     9      180.000000        7.010378         2    ;  uncertainty k = 0.550571
        24        23        22        44     9        0.000000        0.781435         3    ;  uncertainty k = 0.169299
        24        23        22        44     9      180.000000        1.269235         4    ;  uncertainty k = 0.186787
        25        24        27        45     9        0.000000       -0.057641         1    ;  uncertainty k = 0.603701
        25        24        27        45     9      180.000000       -0.366450         2    ;  uncertainty k = 0.288160
        25        24        27        45     9        0.000000        0.801561         3    ;  uncertainty k = 0.057211
        25        24        27        45     9      180.000000        0.039212         4    ;  uncertainty k = 0.101280
        25        24        27        46     9        0.000000       -0.057641         1    ;  uncertainty k = 0.603701
        25        24        27        46     9      180.000000       -0.366450         2    ;  uncertainty k = 0.288160
        25        24        27        46     9        0.000000        0.801561         3    ;  uncertainty k = 0.057211
        25        24        27        46     9      180.000000        0.039212         4    ;  uncertainty k = 0.101280
        25        24        27        47     9        0.000000       -0.057641         1    ;  uncertainty k = 0.603701
        25        24        27        47     9      180.000000       -0.366450         2    ;  uncertainty k = 0.288160
        25        24        27        47     9        0.000000        0.801561         3    ;  uncertainty k = 0.057211
        25        24        27        47     9      180.000000        0.039212         4    ;  uncertainty k = 0.101280
        26        24        27        45     9        0.000000       -0.057641         1    ;  uncertainty k = 0.603701
        26        24        27        45     9      180.000000       -0.366450         2    ;  uncertainty k = 0.288160
        26        24        27        45     9        0.000000        0.801561         3    ;  uncertainty k = 0.057211
        26        24        27        45     9      180.000000        0.039212         4    ;  uncertainty k = 0.101280
        26        24        27        46     9        0.000000       -0.057641         1    ;  uncertainty k = 0.603701
        26        24        27        46     9      180.000000       -0.366450         2    ;  uncertainty k = 0.288160
        26        24        27        46     9        0.000000        0.801561         3    ;  uncertainty k = 0.057211
        26        24        27        46     9      180.000000        0.039212         4    ;  uncertainty k = 0.101280
        26        24        27        47     9        0.000000       -0.057641         1    ;  uncertainty k = 0.603701
        26        24        27        47     9      180.000000       -0.366450         2    ;  uncertainty k = 0.288160
        26        24        27        47     9        0.000000        0.801561         3    ;  uncertainty k = 0.057211
        26        24        27        47     9      180.000000        0.039212         4    ;  uncertainty k = 0.101280
        28        15        14        39     9        0.000000       -0.172125         1    ;  uncertainty k = 0.215137
        28        15        14        39     9      180.000000        8.394495         2    ;  uncertainty k = 0.272559
        28        15        14        39     9        0.000000        0.850719         3    ;  uncertainty k = 0.199230
        28        15        14        39     9      180.000000        1.045980         4    ;  uncertainty k = 0.181868
        28        15        16        40     9        0.000000       -0.190299         1    ;  uncertainty k = 0.192329
        28        15        16        40     9      180.000000        8.716412         2    ;  uncertainty k = 0.305368
        28        15        16        40     9        0.000000        0.846023         3    ;  uncertainty k = 0.183546
        28        15        16        40     9      180.000000        1.089234         4    ;  uncertainty k = 0.185793
        35         8         9        36     9        0.000000       -0.152652         1    ;  uncertainty k = 0.805688
        35         8         9        36     9      180.000000        5.398109         2    ;  uncertainty k = 0.723628
        35         8         9        36     9        0.000000        0.147471         3    ;  uncertainty k = 0.248173
        35         8         9        36     9      180.000000        0.216442         4    ;  uncertainty k = 0.153410
        37        12        13        38     9        0.000000       -0.110576         1    ;  uncertainty k = 0.173773
        37        12        13        38     9      180.000000        7.551009         2    ;  uncertainty k = 0.344027
        37        12        13        38     9        0.000000       -0.464158         3    ;  uncertainty k = 0.289315
        37        12        13        38     9      180.000000        0.122974         4    ;  uncertainty k = 0.126281
        38        13        14        39     9        0.000000       -0.104862         1    ;  uncertainty k = 0.152207
        38        13        14        39     9      180.000000        7.564831         2    ;  uncertainty k = 0.369609
        38        13        14        39     9        0.000000       -0.420879         3    ;  uncertainty k = 0.279264
        38        13        14        39     9      180.000000        0.104209         4    ;  uncertainty k = 0.108200
        43        21        22        44     9        0.000000       -0.307962         1    ;  uncertainty k = 0.440104
        43        21        22        44     9      180.000000        6.502709         2    ;  uncertainty k = 0.379417
        43        21        22        44     9        0.000000       -0.130867         3    ;  uncertainty k = 0.246878
        43        21        22        44     9      180.000000        0.283979         4    ;  uncertainty k = 0.141773

[ dihedrals ] ; impropers
;       ai        aj        ak        al funct           phase               k        pn
         1         4         6        11     4      180.000000       17.780538         2    ;  uncertainty k = 0.112449
         1         6        11         4     4      180.000000       17.780538         2    ;  uncertainty k = 0.112449
         1        11         4         6     4      180.000000       17.780538         2    ;  uncertainty k = 0.112449
         2         3         5        33     4      180.000000        2.538906         2    ;  uncertainty k = 0.373105
         2         5        33         3     4      180.000000        2.538906         2    ;  uncertainty k = 0.373105
         2        33         3         5     4      180.000000        2.538906         2    ;  uncertainty k = 0.373105
         3         2         4        17     4      180.000000       20.656996         2    ;  uncertainty k = 0.063650
         3         4        17         2     4      180.000000       20.656996         2    ;  uncertainty k = 0.063650
         3        17         2         4     4      180.000000       20.656996         2    ;  uncertainty k = 0.063650
         4         1         3        34     4      180.000000        3.162499         2    ;  uncertainty k = 0.348024
         4         3        34         1     4      180.000000        3.162499         2    ;  uncertainty k = 0.348024
         4        34         1         3     4      180.000000        3.162499         2    ;  uncertainty k = 0.348024
         5         2         6        10     4      180.000000       18.452158         2    ;  uncertainty k = 0.055457
         5         6        10         2     4      180.000000       18.452158         2    ;  uncertainty k = 0.055457
         5        10         2         6     4      180.000000       18.452158         2    ;  uncertainty k = 0.055457
         6         1         5         7     4      180.000000       16.639273         2    ;  uncertainty k = 0.073144
         6         5         7         1     4      180.000000       16.639273         2    ;  uncertainty k = 0.073144
         6         7         1         5     4      180.000000       16.639273         2    ;  uncertainty k = 0.073144
         8         7         9        35     4      180.000000       12.058352         2    ;  uncertainty k = 0.155869
         8         9        35         7     4      180.000000       12.058352         2    ;  uncertainty k = 0.155869
         8        35         7         9     4      180.000000       12.058352         2    ;  uncertainty k = 0.155869
         9         8        10        36     4      180.000000       11.948848         2    ;  uncertainty k = 0.101429
         9        10        36         8     4      180.000000       11.948848         2    ;  uncertainty k = 0.101429
         9        36         8        10     4      180.000000       11.948848         2    ;  uncertainty k = 0.101429
        11         1        12        16     4      180.000000       13.691071         2    ;  uncertainty k = 0.191888
        11        12        16         1     4      180.000000       13.691071         2    ;  uncertainty k = 0.191888
        11        16         1        12     4      180.000000       13.691071         2    ;  uncertainty k = 0.191888
        12        11        13        37     4      180.000000        3.341870         2    ;  uncertainty k = 0.085129
        12        13        37        11     4      180.000000        3.341870         2    ;  uncertainty k = 0.085129
        12        37        11        13     4      180.000000        3.341870         2    ;  uncertainty k = 0.085129
        13        12        14        38     4      180.000000        4.335992         2    ;  uncertainty k = 0.094217
        13        14        38        12     4      180.000000        4.335992         2    ;  uncertainty k = 0.094217
        13        38        12        14     4      180.000000        4.335992         2    ;  uncertainty k = 0.094217
        14        13        15        39     4      180.000000        3.105493         2    ;  uncertainty k = 0.186131
        14        15        39        13     4      180.000000        3.105493         2    ;  uncertainty k = 0.186131
        14        39        13        15     4      180.000000        3.105493         2    ;  uncertainty k = 0.186131
        15        14        16        28     4      180.000000       15.547230         2    ;  uncertainty k = 0.028426
        15        16        28        14     4      180.000000       15.547230         2    ;  uncertainty k = 0.028426
        15        28        14        16     4      180.000000       15.547230         2    ;  uncertainty k = 0.028426
        16        11        15        40     4      180.000000        3.272105         2    ;  uncertainty k = 0.224391
        16        15        40        11     4      180.000000        3.272105         2    ;  uncertainty k = 0.224391
        16        40        11        15     4      180.000000        3.272105         2    ;  uncertainty k = 0.224391
        17         3        18        41     4      180.000000        1.379953         2    ;  uncertainty k = 1.192013
        17        18        41         3     4      180.000000        1.379953         2    ;  uncertainty k = 1.192013
        17        41         3        18     4      180.000000        1.379953         2    ;  uncertainty k = 1.192013
        18        17        19        23     4      180.000000       22.010771         2    ;  uncertainty k = 0.077536
        18        19        23        17     4      180.000000       22.010771         2    ;  uncertainty k = 0.077536
        18        23        17        19     4      180.000000       22.010771         2    ;  uncertainty k = 0.077536
        19        18        20        42     4      180.000000       10.900442         2    ;  uncertainty k = 0.192114
        19        20        42        18     4      180.000000       10.900442         2    ;  uncertainty k = 0.192114
        19        42        18        20     4      180.000000       10.900442         2    ;  uncertainty k = 0.192114
        21        20        22        43     4      180.000000       11.385376         2    ;  uncertainty k = 0.107036
        21        22        43        20     4      180.000000       11.385376         2    ;  uncertainty k = 0.107036
        21        43        20        22     4      180.000000       11.385376         2    ;  uncertainty k = 0.107036
        22        21        23        44     4      180.000000        4.322239         2    ;  uncertainty k = 0.262311
        22        23        44        21     4      180.000000        4.322239         2    ;  uncertainty k = 0.262311
        22        44        21        23     4      180.000000        4.322239         2    ;  uncertainty k = 0.262311
        23        18        22        24     4      180.000000        5.945008         2    ;  uncertainty k = 0.459977
        23        22        24        18     4      180.000000        5.945008         2    ;  uncertainty k = 0.459977
        23        24        18        22     4      180.000000        5.945008         2    ;  uncertainty k = 0.459977

[ pairs ]
;       ai        aj funct
         1         2     1
         1         8     1
         1        10     1
         1        13     1
         1        15     1
         1        17     1
         1        37     1
         1        40     1
         2         7     1
         2         9     1
         2        18     1
         2        34     1
         2        41     1
         3         6     1
         3        10     1
         3        11     1
         3        19     1
         3        23     1
         4         5     1
         4         7     1
         4        12     1
         4        16     1
         4        18     1
         4        33     1
         4        41     1
         5         8     1
         5        11     1
         5        17     1
         5        36     1
         6         9     1
         6        12     1
         6        16     1
         6        33     1
         6        34     1
         6        35     1
         7        10     1
         7        11     1
         7        36     1
        10        33     1
        10        35     1
        11        14     1
        11        28     1
        11        34     1
        11        38     1
        12        15     1
        12        39     1
        12        40     1
        13        16     1
        13        28     1
        14        29     1
        14        37     1
        14        40     1
        15        30     1
        15        31     1
        15        32     1
        15        38     1
        16        29     1
        16        37     1
        16        39     1
        17        20     1
        17        22     1
        17        24     1
        17        33     1
        17        34     1
        17        42     1
        18        21     1
        18        25     1
        18        26     1
        18        27     1
        18        44     1
        19        22     1
        19        24     1
        19        41     1
        19        43     1
        20        23     1
        20        44     1
        21        24     1
        21        42     1
        22        25     1
        22        26     1
        22        27     1
        23        41     1
        23        42     1
        23        43     1
        23        45     1
        23        46     1
        23        47     1
        24        44     1
        25        45     1
        25        46     1
        25        47     1
        26        45     1
        26        46     1
        26        47     1
        28        39     1
        28        40     1
        35        36     1
        37        38     1
        38        39     1
        43        44     1
