; ITP file created by ByteFF-joint-25, 2026-02-17 09:31:47.952216

[ atomtypes ]
;name           bonded.type        at.num        mass        charge   ptype           sigma         epsilon
 c0bf                                   6      0.0000       0.00000       A     3.31498e-01     4.12746e-01    ;  uncertainty sigma = 0.000010, epsilon = 0.000794
 c1bf                                   6      0.0000       0.00000       A     3.31509e-01     4.13539e-01    ;  uncertainty sigma = 0.000009, epsilon = 0.000465
 c2bf                                   6      0.0000       0.00000       A     3.31538e-01     4.13732e-01    ;  uncertainty sigma = 0.000012, epsilon = 0.001772
 c3bf                                   6      0.0000       0.00000       A     3.31494e-01     4.13424e-01    ;  uncertainty sigma = 0.000006, epsilon = 0.000718
 c4bf                                   6      0.0000       0.00000       A     3.31516e-01     4.13470e-01    ;  uncertainty sigma = 0.000011, epsilon = 0.000986
 c5bf                                   6      0.0000       0.00000       A     3.31521e-01     4.13012e-01    ;  uncertainty sigma = 0.000010, epsilon = 0.001115
 n6bf                                   7      0.0000       0.00000       A     3.38415e-01     3.93854e-01    ;  uncertainty sigma = 0.000010, epsilon = 0.001066
 c7bf                                   6      0.0000       0.00000       A     3.31531e-01     4.13178e-01    ;  uncertainty sigma = 0.000013, epsilon = 0.000482
 c8bf                                   6      0.0000       0.00000       A     3.31530e-01     4.13238e-01    ;  uncertainty sigma = 0.000010, epsilon = 0.000599
 n9bf                                   7      0.0000       0.00000       A     3.38414e-01     3.93827e-01    ;  uncertainty sigma = 0.000003, epsilon = 0.000862
 c10bf                                  6      0.0000       0.00000       A     3.31509e-01     4.13259e-01    ;  uncertainty sigma = 0.000015, epsilon = 0.000983
 c11bf                                  6      0.0000       0.00000       A     3.31508e-01     4.13266e-01    ;  uncertainty sigma = 0.000005, epsilon = 0.000641
 c12bf                                  6      0.0000       0.00000       A     3.31520e-01     4.13369e-01    ;  uncertainty sigma = 0.000003, epsilon = 0.000621
 c13bf                                  6      0.0000       0.00000       A     3.31524e-01     4.13426e-01    ;  uncertainty sigma = 0.000003, epsilon = 0.000529
 c14bf                                  6      0.0000       0.00000       A     3.31520e-01     4.13224e-01    ;  uncertainty sigma = 0.000004, epsilon = 0.000509
 c15bf                                  6      0.0000       0.00000       A     3.31527e-01     4.13361e-01    ;  uncertainty sigma = 0.000006, epsilon = 0.000603
 n16bf                                  7      0.0000       0.00000       A     3.27956e-01     6.47518e-01    ;  uncertainty sigma = 0.000036, epsilon = 0.003822
 c17bf                                  6      0.0000       0.00000       A     3.31502e-01     4.13462e-01    ;  uncertainty sigma = 0.000018, epsilon = 0.002180
 c18bf                                  6      0.0000       0.00000       A     3.31532e-01     4.13419e-01    ;  uncertainty sigma = 0.000012, epsilon = 0.000931
 n19bf                                  7      0.0000       0.00000       A     3.38420e-01     3.93806e-01    ;  uncertainty sigma = 0.000013, epsilon = 0.000881
 c20bf                                  6      0.0000       0.00000       A     3.31513e-01     4.13350e-01    ;  uncertainty sigma = 0.000011, epsilon = 0.000728
 c21bf                                  6      0.0000       0.00000       A     3.31518e-01     4.13124e-01    ;  uncertainty sigma = 0.000015, epsilon = 0.000361
 c22bf                                  6      0.0000       0.00000       A     3.31501e-01     4.13078e-01    ;  uncertainty sigma = 0.000025, epsilon = 0.001598
 s23bf                                 16      0.0000       0.00000       A     4.05775e-01     2.56504e-01    ;  uncertainty sigma = 0.000009, epsilon = 0.002944
 o24bf                                  8      0.0000       0.00000       A     3.04808e-01     6.12058e-01    ;  uncertainty sigma = 0.000011, epsilon = 0.001075
 o25bf                                  8      0.0000       0.00000       A     3.04808e-01     6.12058e-01    ;  uncertainty sigma = 0.000011, epsilon = 0.001075
 c26bf                                  6      0.0000       0.00000       A     3.39790e-01     4.50653e-01    ;  uncertainty sigma = 0.000003, epsilon = 0.000848
 br27bf                                35      0.0000       0.00000       A     3.61279e-01     1.64518e+00    ;  uncertainty sigma = 0.000005, epsilon = 0.001534
 h28bf                                  1      0.0000       0.00000       A     2.62540e-01     6.71221e-02    ;  uncertainty sigma = 0.000022, epsilon = 0.000645
 h29bf                                  1      0.0000       0.00000       A     2.62566e-01     6.71158e-02    ;  uncertainty sigma = 0.000015, epsilon = 0.000400
 h30bf                                  1      0.0000       0.00000       A     2.53628e-01     6.69333e-02    ;  uncertainty sigma = 0.000020, epsilon = 0.000763
 h31bf                                  1      0.0000       0.00000       A     2.53628e-01     6.69333e-02    ;  uncertainty sigma = 0.000020, epsilon = 0.000763
 h32bf                                  1      0.0000       0.00000       A     2.62563e-01     6.70438e-02    ;  uncertainty sigma = 0.000011, epsilon = 0.000538
 h33bf                                  1      0.0000       0.00000       A     2.62568e-01     6.69682e-02    ;  uncertainty sigma = 0.000007, epsilon = 0.000464
 h34bf                                  1      0.0000       0.00000       A     2.62554e-01     6.71218e-02    ;  uncertainty sigma = 0.000007, epsilon = 0.000647
 h35bf                                  1      0.0000       0.00000       A     2.62560e-01     6.72300e-02    ;  uncertainty sigma = 0.000011, epsilon = 0.000634
 h36bf                                  1      0.0000       0.00000       A     1.10720e-01     4.14039e-02    ;  uncertainty sigma = 0.000106, epsilon = 0.001477
 h37bf                                  1      0.0000       0.00000       A     2.53624e-01     6.69778e-02    ;  uncertainty sigma = 0.000049, epsilon = 0.000568
 h38bf                                  1      0.0000       0.00000       A     2.53633e-01     6.70304e-02    ;  uncertainty sigma = 0.000014, epsilon = 0.000494
 h39bf                                  1      0.0000       0.00000       A     2.62533e-01     6.70950e-02    ;  uncertainty sigma = 0.000019, epsilon = 0.000754
 h40bf                                  1      0.0000       0.00000       A     2.42167e-01     8.68275e-02    ;  uncertainty sigma = 0.000012, epsilon = 0.000620
 h41bf                                  1      0.0000       0.00000       A     2.42167e-01     8.68276e-02    ;  uncertainty sigma = 0.000012, epsilon = 0.000620
 h42bf                                  1      0.0000       0.00000       A     2.42167e-01     8.68275e-02    ;  uncertainty sigma = 0.000012, epsilon = 0.000620

[ moleculetype ]
;name             nrexcl
 MOL                   3

[ atoms ]
;       nr            type      resi   res      atom      cgnr      charge          mass ; qtot
         1            c0bf         1   UNL        c0         1    -0.03364       12.0110 ; qtot   -0.034
         2            c1bf         1   UNL        c1         2    -0.22162       12.0110 ; qtot   -0.255
         3            c2bf         1   UNL        c2         3     0.17383       12.0110 ; qtot   -0.081
         4            c3bf         1   UNL        c3         4    -0.15634       12.0110 ; qtot   -0.238
         5            c4bf         1   UNL        c4         5     0.32340       12.0110 ; qtot    0.086
         6            c5bf         1   UNL        c5         6     0.27840       12.0110 ; qtot    0.364
         7            n6bf         1   UNL        n6         7    -0.61814       14.0070 ; qtot   -0.254
         8            c7bf         1   UNL        c7         8     0.29560       12.0110 ; qtot    0.041
         9            c8bf         1   UNL        c8         9     0.29621       12.0110 ; qtot    0.338
        10            n9bf         1   UNL        n9        10    -0.62862       14.0070 ; qtot   -0.291
        11           c10bf         1   UNL       c10        11    -0.03075       12.0110 ; qtot   -0.322
        12           c11bf         1   UNL       c11        12    -0.10196       12.0110 ; qtot   -0.424
        13           c12bf         1   UNL       c12        13    -0.13040       12.0110 ; qtot   -0.554
        14           c13bf         1   UNL       c13        14    -0.09558       12.0110 ; qtot   -0.650
        15           c14bf         1   UNL       c14        15    -0.01484       12.0110 ; qtot   -0.664
        16           c15bf         1   UNL       c15        16    -0.08218       12.0110 ; qtot   -0.747
        17           n16bf         1   UNL       n16        17    -0.64735       14.0070 ; qtot   -1.394
        18           c17bf         1   UNL       c17        18     0.15628       12.0110 ; qtot   -1.238
        19           c18bf         1   UNL       c18        19     0.33325       12.0110 ; qtot   -0.904
        20           n19bf         1   UNL       n19        20    -0.60182       14.0070 ; qtot   -1.506
        21           c20bf         1   UNL       c20        21     0.35581       12.0110 ; qtot   -1.150
        22           c21bf         1   UNL       c21        22    -0.13704       12.0110 ; qtot   -1.288
        23           c22bf         1   UNL       c22        23    -0.26398       12.0110 ; qtot   -1.551
        24           s23bf         1   UNL       s23        24     1.01656       32.0670 ; qtot   -0.535
        25           o24bf         1   UNL       o24        25    -0.58472       15.9990 ; qtot   -1.120
        26           o25bf         1   UNL       o25        26    -0.58472       15.9990 ; qtot   -1.704
        27           c26bf         1   UNL       c26        27    -0.18352       12.0110 ; qtot   -1.888
        28          br27bf         1   UNL      br27        28    -0.10425       79.9040 ; qtot   -1.992
        29           h28bf         1   UNL       h28        29     0.15776        1.0080 ; qtot   -1.834
        30           h29bf         1   UNL       h29        30     0.14723        1.0080 ; qtot   -1.687
        31           h30bf         1   UNL       h30        31     0.03380        1.0080 ; qtot   -1.653
        32           h31bf         1   UNL       h31        32     0.03331        1.0080 ; qtot   -1.620
        33           h32bf         1   UNL       h32        33     0.14243        1.0080 ; qtot   -1.478
        34           h33bf         1   UNL       h33        34     0.13908        1.0080 ; qtot   -1.339
        35           h34bf         1   UNL       h34        35     0.15187        1.0080 ; qtot   -1.187
        36           h35bf         1   UNL       h35        36     0.15489        1.0080 ; qtot   -1.032
        37           h36bf         1   UNL       h36        37     0.47844        1.0080 ; qtot   -0.553
        38           h37bf         1   UNL       h37        38     0.03967        1.0080 ; qtot   -0.514
        39           h38bf         1   UNL       h38        39     0.03424        1.0080 ; qtot   -0.479
        40           h39bf         1   UNL       h39        40     0.16807        1.0080 ; qtot   -0.311
        41           h40bf         1   UNL       h40        41     0.10378        1.0080 ; qtot   -0.208
        42           h41bf         1   UNL       h41        42     0.10378        1.0080 ; qtot   -0.104
        43           h42bf         1   UNL       h42        43     0.10378        1.0080 ; qtot   -0.000

[ bonds ]
;       ai        aj funct               r               k
         1         4     1        0.137946   346940.987988    ;  uncertainty r = 0.000125, k = 16.118477
         1         6     1        0.143006   311635.168164    ;  uncertainty r = 0.000116, k = 17.083417
         1        11     1        0.148209   282706.347607    ;  uncertainty r = 0.000084, k = 15.353247
         2         3     1        0.138770   381943.426953    ;  uncertainty r = 0.000111, k = 9.337646
         2         5     1        0.141431   396079.468311    ;  uncertainty r = 0.000094, k = 15.205670
         2        29     1        0.108811   340366.765625    ;  uncertainty r = 0.000031, k = 1.855831
         3         4     1        0.142028   351861.401611    ;  uncertainty r = 0.000227, k = 12.579464
         3        17     1        0.141414   345942.921143    ;  uncertainty r = 0.000097, k = 12.910217
         4        30     1        0.108882   338495.201953    ;  uncertainty r = 0.000015, k = 3.632238
         5         6     1        0.142978   298967.076465    ;  uncertainty r = 0.000063, k = 15.491496
         5        10     1        0.136382   355171.598340    ;  uncertainty r = 0.000057, k = 8.738544
         6         7     1        0.135780   353419.139746    ;  uncertainty r = 0.000093, k = 12.280365
         7         8     1        0.131584   437137.956152    ;  uncertainty r = 0.000061, k = 11.801030
         8         9     1        0.141378   325245.374902    ;  uncertainty r = 0.000067, k = 16.241067
         8        31     1        0.109180   341408.015723    ;  uncertainty r = 0.000031, k = 1.111543
         9        10     1        0.131606   448634.967090    ;  uncertainty r = 0.000067, k = 6.059784
         9        32     1        0.109175   341608.175586    ;  uncertainty r = 0.000026, k = 2.358932
        11        12     1        0.140117   346084.907471    ;  uncertainty r = 0.000027, k = 2.164655
        11        16     1        0.140038   349102.908594    ;  uncertainty r = 0.000022, k = 2.356109
        12        13     1        0.139447   366714.601611    ;  uncertainty r = 0.000027, k = 1.188077
        12        33     1        0.108776   334172.407764    ;  uncertainty r = 0.000031, k = 1.048918
        13        14     1        0.139512   373295.387012    ;  uncertainty r = 0.000020, k = 1.444317
        13        34     1        0.108785   333469.958496    ;  uncertainty r = 0.000012, k = 1.017368
        14        15     1        0.139432   361631.823047    ;  uncertainty r = 0.000027, k = 2.869263
        14        35     1        0.108689   335118.736426    ;  uncertainty r = 0.000010, k = 0.585452
        15        16     1        0.139242   356512.756250    ;  uncertainty r = 0.000029, k = 2.506844
        15        28     1        0.191793   159755.444653    ;  uncertainty r = 0.000047, k = 4.528853
        16        36     1        0.108688   335056.604639    ;  uncertainty r = 0.000022, k = 1.378548
        17        18     1        0.139103   334487.356934    ;  uncertainty r = 0.000264, k = 9.014045
        17        37     1        0.101492   409720.242969    ;  uncertainty r = 0.000088, k = 5.983715
        18        19     1        0.140927   340447.897021    ;  uncertainty r = 0.000113, k = 16.488682
        18        23     1        0.141356   348414.581348    ;  uncertainty r = 0.000198, k = 15.946795
        19        20     1        0.132524   387119.492578    ;  uncertainty r = 0.000108, k = 11.004632
        19        38     1        0.108905   336131.001904    ;  uncertainty r = 0.000101, k = 3.724292
        20        21     1        0.133802   397972.227783    ;  uncertainty r = 0.000074, k = 5.323604
        21        22     1        0.139170   363105.058887    ;  uncertainty r = 0.000048, k = 3.861500
        21        39     1        0.108994   339519.240039    ;  uncertainty r = 0.000025, k = 1.411838
        22        23     1        0.138845   368349.231982    ;  uncertainty r = 0.000202, k = 14.185244
        22        40     1        0.108610   333138.767725    ;  uncertainty r = 0.000052, k = 1.956170
        23        24     1        0.180205   137177.881958    ;  uncertainty r = 0.000181, k = 18.369757
        24        25     1        0.147757   507438.196289    ;  uncertainty r = 0.000058, k = 6.198409
        24        26     1        0.147757   507438.196289    ;  uncertainty r = 0.000058, k = 6.198409
        24        27     1        0.181050   174448.795117    ;  uncertainty r = 0.000039, k = 9.209375
        27        41     1        0.109286   321567.954541    ;  uncertainty r = 0.000031, k = 1.364985
        27        42     1        0.109286   321567.954541    ;  uncertainty r = 0.000031, k = 1.364985
        27        43     1        0.109286   321567.954541    ;  uncertainty r = 0.000031, k = 1.364985

[ angles ]
;       ai        aj        ak funct           theta             cth
         1         4         3     1      122.308289      516.793557    ;  uncertainty theta = 0.004674, k = 0.260273
         1         4        30     1      118.599998      277.664384    ;  uncertainty theta = 0.004652, k = 0.049775
         1         6         5     1      120.570358      396.180736    ;  uncertainty theta = 0.005874, k = 0.076441
         1         6         7     1      118.067703      467.363513    ;  uncertainty theta = 0.003671, k = 0.232344
         1        11        12     1      120.850891      400.818786    ;  uncertainty theta = 0.002286, k = 0.057734
         1        11        16     1      120.046310      399.123281    ;  uncertainty theta = 0.002899, k = 0.054105
         2         3         4     1      119.354149      388.558004    ;  uncertainty theta = 0.003479, k = 0.061803
         2         3        17     1      122.010719      487.333915    ;  uncertainty theta = 0.006482, k = 0.189293
         2         5         6     1      119.497047      391.821392    ;  uncertainty theta = 0.005347, k = 0.191786
         2         5        10     1      122.312637      528.712396    ;  uncertainty theta = 0.003351, k = 0.210335
         3         2         5     1      118.206688      518.635612    ;  uncertainty theta = 0.002447, k = 0.073028
         3         2        29     1      121.438538      270.401917    ;  uncertainty theta = 0.001365, k = 0.142095
         3         4        30     1      119.378006      284.937384    ;  uncertainty theta = 0.005110, k = 0.129316
         3        17        18     1      115.247620      387.594010    ;  uncertainty theta = 0.002924, k = 0.212981
         3        17        37     1      115.334732      382.605017    ;  uncertainty theta = 0.007384, k = 0.160726
         4         1         6     1      121.395630      456.568530    ;  uncertainty theta = 0.004421, k = 0.127025
         4         1        11     1      120.835999      424.197339    ;  uncertainty theta = 0.004029, k = 0.165878
         4         3        17     1      120.269043      499.771605    ;  uncertainty theta = 0.004775, k = 0.338941
         5         2        29     1      120.837975      275.673543    ;  uncertainty theta = 0.003390, k = 0.103595
         5         6         7     1      119.715538      514.287664    ;  uncertainty theta = 0.004171, k = 0.058520
         5        10         9     1      114.458984      488.266148    ;  uncertainty theta = 0.001996, k = 0.147683
         6         1        11     1      118.953453      396.818748    ;  uncertainty theta = 0.003580, k = 0.201820
         6         5        10     1      119.215195      554.928154    ;  uncertainty theta = 0.007493, k = 0.084178
         6         7         8     1      116.467896      472.703067    ;  uncertainty theta = 0.004318, k = 0.126453
         7         8         9     1      121.240555      622.447314    ;  uncertainty theta = 0.002919, k = 0.205880
         7         8        31     1      116.813492      347.959523    ;  uncertainty theta = 0.001638, k = 0.087624
         8         9        10     1      120.931259      612.842998    ;  uncertainty theta = 0.002470, k = 0.239696
         8         9        32     1      121.868530      283.534439    ;  uncertainty theta = 0.002376, k = 0.096063
         9         8        31     1      121.994606      282.804174    ;  uncertainty theta = 0.002439, k = 0.090842
        10         9        32     1      116.754013      350.159800    ;  uncertainty theta = 0.001533, k = 0.075385
        11        12        13     1      120.165794      531.241527    ;  uncertainty theta = 0.001589, k = 0.056517
        11        12        33     1      119.659714      280.372179    ;  uncertainty theta = 0.002383, k = 0.056666
        11        16        15     1      119.390610      518.173486    ;  uncertainty theta = 0.001503, k = 0.097554
        11        16        36     1      120.374535      276.014846    ;  uncertainty theta = 0.001692, k = 0.071157
        12        11        16     1      120.306290      407.035220    ;  uncertainty theta = 0.002239, k = 0.140585
        12        13        14     1      120.530212      505.176023    ;  uncertainty theta = 0.001301, k = 0.073479
        12        13        34     1      120.225754      283.406020    ;  uncertainty theta = 0.001309, k = 0.024169
        13        12        33     1      120.428322      295.323710    ;  uncertainty theta = 0.001424, k = 0.044572
        13        14        15     1      117.421898      515.299540    ;  uncertainty theta = 0.000970, k = 0.059108
        13        14        35     1      121.140335      284.305117    ;  uncertainty theta = 0.001334, k = 0.026141
        14        13        34     1      119.860367      284.595538    ;  uncertainty theta = 0.000897, k = 0.021443
        14        15        16     1      121.494705      366.727159    ;  uncertainty theta = 0.001975, k = 0.104555
        14        15        28     1      119.796852      401.210110    ;  uncertainty theta = 0.002443, k = 0.067701
        15        14        35     1      121.226952      287.816757    ;  uncertainty theta = 0.001580, k = 0.054119
        15        16        36     1      121.082497      294.608288    ;  uncertainty theta = 0.001430, k = 0.081562
        16        15        28     1      119.360886      392.930245    ;  uncertainty theta = 0.003079, k = 0.123654
        17        18        19     1      118.512817      444.270049    ;  uncertainty theta = 0.006989, k = 0.276229
        17        18        23     1      122.762405      517.830778    ;  uncertainty theta = 0.007977, k = 0.368248
        18        17        37     1      114.408607      380.718431    ;  uncertainty theta = 0.008156, k = 0.169224
        18        19        20     1      124.922012      667.515332    ;  uncertainty theta = 0.002966, k = 0.161817
        18        19        38     1      118.731201      264.771767    ;  uncertainty theta = 0.008633, k = 0.144655
        18        23        22     1      123.289940      400.819392    ;  uncertainty theta = 0.003703, k = 0.311812
        18        23        24     1      119.668861      323.012512    ;  uncertainty theta = 0.009862, k = 0.668304
        19        18        23     1      118.657326      362.619707    ;  uncertainty theta = 0.004612, k = 0.362834
        19        20        21     1      118.268311      445.304685    ;  uncertainty theta = 0.004478, k = 0.098123
        20        19        38     1      116.579346      347.314743    ;  uncertainty theta = 0.005152, k = 0.066004
        20        21        22     1      122.431076      677.632432    ;  uncertainty theta = 0.002046, k = 0.093657
        20        21        39     1      116.840332      340.667018    ;  uncertainty theta = 0.001197, k = 0.068775
        21        22        23     1      118.808189      483.994204    ;  uncertainty theta = 0.004991, k = 0.079007
        21        22        40     1      122.214798      277.736813    ;  uncertainty theta = 0.004016, k = 0.070187
        22        21        39     1      120.256363      277.546307    ;  uncertainty theta = 0.002265, k = 0.082403
        22        23        24     1      114.589767      352.518886    ;  uncertainty theta = 0.008187, k = 0.213541
        23        22        40     1      119.535904      260.121156    ;  uncertainty theta = 0.004889, k = 0.124125
        23        24        25     1      112.903687      607.682076    ;  uncertainty theta = 0.002869, k = 0.171145
        23        24        26     1      112.903671      607.682140    ;  uncertainty theta = 0.002869, k = 0.171145
        23        24        27     1      104.371536      610.740975    ;  uncertainty theta = 0.002610, k = 0.101867
        24        27        41     1      107.113976      366.636152    ;  uncertainty theta = 0.002061, k = 0.075109
        24        27        42     1      107.113976      366.636152    ;  uncertainty theta = 0.002061, k = 0.075109
        24        27        43     1      107.113976      366.636152    ;  uncertainty theta = 0.002061, k = 0.075109
        25        24        26     1      123.473061      838.268511    ;  uncertainty theta = 0.001927, k = 0.047858
        25        24        27     1      112.603310      748.419640    ;  uncertainty theta = 0.000730, k = 0.122171
        26        24        27     1      112.603310      748.419640    ;  uncertainty theta = 0.000730, k = 0.122171
        41        27        42     1      108.843689      296.191780    ;  uncertainty theta = 0.002069, k = 0.023129
        41        27        43     1      108.843689      296.191748    ;  uncertainty theta = 0.002069, k = 0.023129
        42        27        43     1      108.843689      296.191780    ;  uncertainty theta = 0.002069, k = 0.023129

[ dihedrals ] ; propers for gromacs 4.5 or higher, use funct 9
;       ai        aj        ak        al funct           phase               k        pn
         1         4         3         2     9        0.000000       -0.080390         1    ;  uncertainty k = 0.318297
         1         4         3         2     9      180.000000        6.191677         2    ;  uncertainty k = 0.998227
         1         4         3         2     9        0.000000        0.294374         3    ;  uncertainty k = 0.230957
         1         4         3         2     9      180.000000        1.352995         4    ;  uncertainty k = 0.312196
         1         4         3        17     9        0.000000        0.303709         1    ;  uncertainty k = 0.732589
         1         4         3        17     9      180.000000        7.619997         2    ;  uncertainty k = 0.521361
         1         4         3        17     9        0.000000        0.808700         3    ;  uncertainty k = 0.268407
         1         4         3        17     9      180.000000        1.632137         4    ;  uncertainty k = 0.120727
         1         6         5         2     9        0.000000       -0.712381         1    ;  uncertainty k = 0.536626
         1         6         5         2     9      180.000000        4.575265         2    ;  uncertainty k = 1.582927
         1         6         5         2     9        0.000000        0.263800         3    ;  uncertainty k = 0.313292
         1         6         5         2     9      180.000000        1.243680         4    ;  uncertainty k = 0.356658
         1         6         5        10     9        0.000000       -0.319114         1    ;  uncertainty k = 0.681942
         1         6         5        10     9      180.000000        4.992967         2    ;  uncertainty k = 1.155531
         1         6         5        10     9        0.000000        0.077469         3    ;  uncertainty k = 0.389459
         1         6         5        10     9      180.000000        1.328709         4    ;  uncertainty k = 0.221255
         1         6         7         8     9        0.000000       -0.245016         1    ;  uncertainty k = 0.564917
         1         6         7         8     9      180.000000       12.410163         2    ;  uncertainty k = 0.577217
         1         6         7         8     9        0.000000        2.040184         3    ;  uncertainty k = 0.341632
         1         6         7         8     9      180.000000        1.337008         4    ;  uncertainty k = 0.189370
         1        11        12        13     9        0.000000        0.095122         1    ;  uncertainty k = 0.458010
         1        11        12        13     9      180.000000        8.644788         2    ;  uncertainty k = 0.637271
         1        11        12        13     9        0.000000        1.287571         3    ;  uncertainty k = 0.302061
         1        11        12        13     9      180.000000        1.901365         4    ;  uncertainty k = 0.176345
         1        11        12        33     9        0.000000       -0.143083         1    ;  uncertainty k = 0.072290
         1        11        12        33     9      180.000000        7.345421         2    ;  uncertainty k = 0.415975
         1        11        12        33     9        0.000000        0.848404         3    ;  uncertainty k = 0.234893
         1        11        12        33     9      180.000000        1.218518         4    ;  uncertainty k = 0.213692
         1        11        16        15     9        0.000000        0.176034         1    ;  uncertainty k = 0.236961
         1        11        16        15     9      180.000000        8.874428         2    ;  uncertainty k = 0.479599
         1        11        16        15     9        0.000000        1.317337         3    ;  uncertainty k = 0.255885
         1        11        16        15     9      180.000000        1.790340         4    ;  uncertainty k = 0.164628
         1        11        16        36     9        0.000000       -0.136075         1    ;  uncertainty k = 0.036512
         1        11        16        36     9      180.000000        7.425049         2    ;  uncertainty k = 0.385736
         1        11        16        36     9        0.000000        0.850798         3    ;  uncertainty k = 0.246409
         1        11        16        36     9      180.000000        1.208284         4    ;  uncertainty k = 0.188393
         2         3         4        30     9        0.000000        0.237751         1    ;  uncertainty k = 0.407272
         2         3         4        30     9      180.000000        5.911712         2    ;  uncertainty k = 0.917305
         2         3         4        30     9        0.000000        1.143639         3    ;  uncertainty k = 0.150774
         2         3         4        30     9      180.000000        1.435209         4    ;  uncertainty k = 0.269147
         2         3        17        18     9        0.000000        2.391292         1    ;  uncertainty k = 0.927258
         2         3        17        18     9      180.000000        5.627189         2    ;  uncertainty k = 0.345908
         2         3        17        18     9        0.000000        0.130796         3    ;  uncertainty k = 0.275597
         2         3        17        18     9      180.000000        0.108068         4    ;  uncertainty k = 0.070781
         2         3        17        37     9        0.000000        3.714210         1    ;  uncertainty k = 1.019186
         2         3        17        37     9      180.000000        4.537149         2    ;  uncertainty k = 0.136539
         2         3        17        37     9        0.000000        0.421528         3    ;  uncertainty k = 0.226094
         2         3        17        37     9      180.000000       -0.068003         4    ;  uncertainty k = 0.067047
         2         5         6         7     9        0.000000        0.075716         1    ;  uncertainty k = 0.292414
         2         5         6         7     9      180.000000        6.076566         2    ;  uncertainty k = 1.157135
         2         5         6         7     9        0.000000        0.106412         3    ;  uncertainty k = 0.161666
         2         5         6         7     9      180.000000        1.371570         4    ;  uncertainty k = 0.407671
         2         5        10         9     9        0.000000        0.427932         1    ;  uncertainty k = 1.029214
         2         5        10         9     9      180.000000       12.638436         2    ;  uncertainty k = 0.318597
         2         5        10         9     9        0.000000        2.227131         3    ;  uncertainty k = 0.470956
         2         5        10         9     9      180.000000        1.437848         4    ;  uncertainty k = 0.260470
         3         2         5         6     9        0.000000        0.124777         1    ;  uncertainty k = 0.469634
         3         2         5         6     9      180.000000        7.210380         2    ;  uncertainty k = 0.798365
         3         2         5         6     9        0.000000        0.036788         3    ;  uncertainty k = 0.281313
         3         2         5         6     9      180.000000        1.290165         4    ;  uncertainty k = 0.270790
         3         2         5        10     9        0.000000        0.146697         1    ;  uncertainty k = 0.428362
         3         2         5        10     9      180.000000        9.787397         2    ;  uncertainty k = 0.378069
         3         2         5        10     9        0.000000        0.568644         3    ;  uncertainty k = 0.286792
         3         2         5        10     9      180.000000        1.391199         4    ;  uncertainty k = 0.231273
         3         4         1         6     9        0.000000        0.047445         1    ;  uncertainty k = 0.529171
         3         4         1         6     9      180.000000       12.665087         2    ;  uncertainty k = 0.443133
         3         4         1         6     9        0.000000        0.354786         3    ;  uncertainty k = 0.226214
         3         4         1         6     9      180.000000        1.260416         4    ;  uncertainty k = 0.326537
         3         4         1        11     9        0.000000        0.180359         1    ;  uncertainty k = 0.181177
         3         4         1        11     9      180.000000       10.511933         2    ;  uncertainty k = 0.674823
         3         4         1        11     9        0.000000        1.342656         3    ;  uncertainty k = 0.282651
         3         4         1        11     9      180.000000        1.695119         4    ;  uncertainty k = 0.307979
         3        17        18        19     9        0.000000        4.219814         1    ;  uncertainty k = 1.204826
         3        17        18        19     9      180.000000        5.915026         2    ;  uncertainty k = 0.485741
         3        17        18        19     9        0.000000        0.506820         3    ;  uncertainty k = 0.114706
         3        17        18        19     9      180.000000        0.021030         4    ;  uncertainty k = 0.159761
         3        17        18        23     9        0.000000        0.589931         1    ;  uncertainty k = 1.531192
         3        17        18        23     9      180.000000        8.272736         2    ;  uncertainty k = 0.309916
         3        17        18        23     9        0.000000       -0.349199         3    ;  uncertainty k = 0.585019
         3        17        18        23     9      180.000000        0.078445         4    ;  uncertainty k = 0.210860
         4         1         6         5     9        0.000000       -0.078089         1    ;  uncertainty k = 0.479220
         4         1         6         5     9      180.000000        5.880718         2    ;  uncertainty k = 1.016299
         4         1         6         5     9        0.000000        0.068982         3    ;  uncertainty k = 0.295950
         4         1         6         5     9      180.000000        0.984389         4    ;  uncertainty k = 0.345183
         4         1         6         7     9        0.000000        0.233358         1    ;  uncertainty k = 0.563583
         4         1         6         7     9      180.000000        6.988872         2    ;  uncertainty k = 0.814944
         4         1         6         7     9        0.000000        0.356843         3    ;  uncertainty k = 0.337479
         4         1         6         7     9      180.000000        1.150435         4    ;  uncertainty k = 0.325472
         4         1        11        12     9        0.000000       -0.213989         1    ;  uncertainty k = 0.322351
         4         1        11        12     9      180.000000        5.237349         2    ;  uncertainty k = 0.191914
         4         1        11        12     9        0.000000        0.431074         3    ;  uncertainty k = 0.128939
         4         1        11        12     9      180.000000        0.487212         4    ;  uncertainty k = 0.099864
         4         1        11        16     9        0.000000       -0.204708         1    ;  uncertainty k = 0.310092
         4         1        11        16     9      180.000000        5.309479         2    ;  uncertainty k = 0.163250
         4         1        11        16     9        0.000000        0.391227         3    ;  uncertainty k = 0.119360
         4         1        11        16     9      180.000000        0.530916         4    ;  uncertainty k = 0.103096
         4         3         2         5     9        0.000000       -0.230094         1    ;  uncertainty k = 0.193613
         4         3         2         5     9      180.000000        9.799482         2    ;  uncertainty k = 0.334539
         4         3         2         5     9        0.000000        0.322865         3    ;  uncertainty k = 0.471328
         4         3         2         5     9      180.000000        1.352621         4    ;  uncertainty k = 0.303410
         4         3         2        29     9        0.000000        0.271865         1    ;  uncertainty k = 0.395472
         4         3         2        29     9      180.000000        7.009638         2    ;  uncertainty k = 0.650819
         4         3         2        29     9        0.000000        1.296696         3    ;  uncertainty k = 0.117301
         4         3         2        29     9      180.000000        1.627549         4    ;  uncertainty k = 0.152794
         4         3        17        18     9        0.000000        2.703023         1    ;  uncertainty k = 1.093474
         4         3        17        18     9      180.000000        5.646721         2    ;  uncertainty k = 0.287758
         4         3        17        18     9        0.000000        0.628331         3    ;  uncertainty k = 0.301753
         4         3        17        18     9      180.000000        0.075594         4    ;  uncertainty k = 0.163630
         4         3        17        37     9        0.000000        3.315350         1    ;  uncertainty k = 0.856350
         4         3        17        37     9      180.000000        4.508871         2    ;  uncertainty k = 0.528167
         4         3        17        37     9        0.000000        0.509564         3    ;  uncertainty k = 0.257911
         4         3        17        37     9      180.000000       -0.046361         4    ;  uncertainty k = 0.122570
         5         2         3        17     9        0.000000       -0.189602         1    ;  uncertainty k = 0.394616
         5         2         3        17     9      180.000000       11.233636         2    ;  uncertainty k = 0.435508
         5         2         3        17     9        0.000000        0.975271         3    ;  uncertainty k = 0.174800
         5         2         3        17     9      180.000000        1.594279         4    ;  uncertainty k = 0.138017
         5         6         1        11     9        0.000000        0.084256         1    ;  uncertainty k = 0.789000
         5         6         1        11     9      180.000000        5.016230         2    ;  uncertainty k = 0.590390
         5         6         1        11     9        0.000000        1.042328         3    ;  uncertainty k = 0.188549
         5         6         1        11     9      180.000000        1.268734         4    ;  uncertainty k = 0.355550
         5         6         7         8     9        0.000000       -0.121918         1    ;  uncertainty k = 0.899148
         5         6         7         8     9      180.000000       11.592838         2    ;  uncertainty k = 0.635161
         5         6         7         8     9        0.000000        1.459268         3    ;  uncertainty k = 0.284518
         5         6         7         8     9      180.000000        1.335516         4    ;  uncertainty k = 0.320568
         5        10         9         8     9        0.000000        0.013311         1    ;  uncertainty k = 0.131653
         5        10         9         8     9      180.000000       17.231919         2    ;  uncertainty k = 0.196674
         5        10         9         8     9        0.000000        0.888029         3    ;  uncertainty k = 0.629562
         5        10         9         8     9      180.000000        1.519865         4    ;  uncertainty k = 0.234840
         5        10         9        32     9        0.000000        0.424411         1    ;  uncertainty k = 0.517708
         5        10         9        32     9      180.000000       19.045700         2    ;  uncertainty k = 0.443936
         5        10         9        32     9        0.000000        2.354564         3    ;  uncertainty k = 0.582721
         5        10         9        32     9      180.000000        1.407429         4    ;  uncertainty k = 0.336465
         6         1         4        30     9        0.000000        0.095273         1    ;  uncertainty k = 0.239208
         6         1         4        30     9      180.000000        9.654428         2    ;  uncertainty k = 0.347253
         6         1         4        30     9        0.000000        1.462958         3    ;  uncertainty k = 0.138284
         6         1         4        30     9      180.000000        1.668002         4    ;  uncertainty k = 0.174909
         6         1        11        12     9        0.000000        0.315345         1    ;  uncertainty k = 0.616839
         6         1        11        12     9      180.000000        4.839804         2    ;  uncertainty k = 0.367296
         6         1        11        12     9        0.000000        0.352253         3    ;  uncertainty k = 0.323419
         6         1        11        12     9      180.000000        0.694398         4    ;  uncertainty k = 0.044731
         6         1        11        16     9        0.000000        0.115938         1    ;  uncertainty k = 0.606861
         6         1        11        16     9      180.000000        4.825296         2    ;  uncertainty k = 0.276937
         6         1        11        16     9        0.000000        0.315310         3    ;  uncertainty k = 0.350966
         6         1        11        16     9      180.000000        0.694385         4    ;  uncertainty k = 0.057682
         6         5         2        29     9        0.000000       -0.227944         1    ;  uncertainty k = 0.343151
         6         5         2        29     9      180.000000        5.855722         2    ;  uncertainty k = 0.873789
         6         5         2        29     9        0.000000        1.201888         3    ;  uncertainty k = 0.161541
         6         5         2        29     9      180.000000        1.243551         4    ;  uncertainty k = 0.340266
         6         5        10         9     9        0.000000       -0.066074         1    ;  uncertainty k = 1.326543
         6         5        10         9     9      180.000000       10.119061         2    ;  uncertainty k = 0.624084
         6         5        10         9     9        0.000000        1.274776         3    ;  uncertainty k = 0.483533
         6         5        10         9     9      180.000000        1.288278         4    ;  uncertainty k = 0.224413
         6         7         8         9     9        0.000000        0.032700         1    ;  uncertainty k = 0.371842
         6         7         8         9     9      180.000000       16.595219         2    ;  uncertainty k = 0.331031
         6         7         8         9     9        0.000000        0.830940         3    ;  uncertainty k = 0.755157
         6         7         8         9     9      180.000000        1.569816         4    ;  uncertainty k = 0.254727
         6         7         8        31     9        0.000000        0.273195         1    ;  uncertainty k = 0.534605
         6         7         8        31     9      180.000000       18.195196         2    ;  uncertainty k = 0.528958
         6         7         8        31     9        0.000000        2.346360         3    ;  uncertainty k = 0.656567
         6         7         8        31     9      180.000000        1.630137         4    ;  uncertainty k = 0.414697
         7         6         1        11     9        0.000000        0.233292         1    ;  uncertainty k = 1.235518
         7         6         1        11     9      180.000000        7.465438         2    ;  uncertainty k = 0.576498
         7         6         1        11     9        0.000000        0.792145         3    ;  uncertainty k = 0.541490
         7         6         1        11     9      180.000000        1.179978         4    ;  uncertainty k = 0.264745
         7         6         5        10     9        0.000000       -0.400758         1    ;  uncertainty k = 0.893249
         7         6         5        10     9      180.000000        7.082848         2    ;  uncertainty k = 0.717739
         7         6         5        10     9        0.000000        0.077325         3    ;  uncertainty k = 0.333985
         7         6         5        10     9      180.000000        1.332378         4    ;  uncertainty k = 0.355974
         7         8         9        10     9        0.000000       -0.202866         1    ;  uncertainty k = 0.782206
         7         8         9        10     9      180.000000       12.112991         2    ;  uncertainty k = 0.805807
         7         8         9        10     9        0.000000       -1.599825         3    ;  uncertainty k = 0.569696
         7         8         9        10     9      180.000000        0.918172         4    ;  uncertainty k = 0.463986
         7         8         9        32     9        0.000000        0.036887         1    ;  uncertainty k = 0.700692
         7         8         9        32     9      180.000000        6.513920         2    ;  uncertainty k = 1.135261
         7         8         9        32     9        0.000000        0.521732         3    ;  uncertainty k = 0.385188
         7         8         9        32     9      180.000000        1.117821         4    ;  uncertainty k = 0.330142
        10         5         2        29     9        0.000000        0.139927         1    ;  uncertainty k = 0.233388
        10         5         2        29     9      180.000000        8.199302         2    ;  uncertainty k = 0.492393
        10         5         2        29     9        0.000000        1.032825         3    ;  uncertainty k = 0.329116
        10         5         2        29     9      180.000000        1.219854         4    ;  uncertainty k = 0.291231
        10         9         8        31     9        0.000000       -0.033262         1    ;  uncertainty k = 0.634830
        10         9         8        31     9      180.000000        6.504272         2    ;  uncertainty k = 1.136878
        10         9         8        31     9        0.000000        0.521238         3    ;  uncertainty k = 0.433609
        10         9         8        31     9      180.000000        1.070757         4    ;  uncertainty k = 0.343719
        11         1         4        30     9        0.000000        0.161225         1    ;  uncertainty k = 0.338333
        11         1         4        30     9      180.000000        8.552647         2    ;  uncertainty k = 0.262731
        11         1         4        30     9        0.000000        1.033174         3    ;  uncertainty k = 0.151513
        11         1         4        30     9      180.000000        1.394239         4    ;  uncertainty k = 0.297059
        11        12        13        14     9        0.000000       -0.077266         1    ;  uncertainty k = 0.131085
        11        12        13        14     9      180.000000       13.984967         2    ;  uncertainty k = 0.270862
        11        12        13        14     9        0.000000       -0.826303         3    ;  uncertainty k = 0.544944
        11        12        13        14     9      180.000000        0.752616         4    ;  uncertainty k = 0.276774
        11        12        13        34     9        0.000000        0.001821         1    ;  uncertainty k = 0.239623
        11        12        13        34     9      180.000000        7.649466         2    ;  uncertainty k = 0.341728
        11        12        13        34     9        0.000000        1.380427         3    ;  uncertainty k = 0.211594
        11        12        13        34     9      180.000000        1.836296         4    ;  uncertainty k = 0.163375
        11        16        15        14     9        0.000000       -0.089976         1    ;  uncertainty k = 0.268121
        11        16        15        14     9      180.000000       10.111466         2    ;  uncertainty k = 0.292925
        11        16        15        14     9        0.000000       -0.028354         3    ;  uncertainty k = 0.376429
        11        16        15        14     9      180.000000        1.172472         4    ;  uncertainty k = 0.308838
        11        16        15        28     9        0.000000        0.118621         1    ;  uncertainty k = 0.112924
        11        16        15        28     9      180.000000        9.019585         2    ;  uncertainty k = 0.488143
        11        16        15        28     9        0.000000        1.462954         3    ;  uncertainty k = 0.381205
        11        16        15        28     9      180.000000        1.673270         4    ;  uncertainty k = 0.109263
        12        11        16        15     9        0.000000        0.029141         1    ;  uncertainty k = 0.126096
        12        11        16        15     9      180.000000       11.957456         2    ;  uncertainty k = 0.156004
        12        11        16        15     9        0.000000       -0.504418         3    ;  uncertainty k = 0.441891
        12        11        16        15     9      180.000000        0.914914         4    ;  uncertainty k = 0.316341
        12        11        16        36     9        0.000000        0.308340         1    ;  uncertainty k = 0.085213
        12        11        16        36     9      180.000000        7.199278         2    ;  uncertainty k = 0.524950
        12        11        16        36     9        0.000000        1.451408         3    ;  uncertainty k = 0.183887
        12        11        16        36     9      180.000000        1.658144         4    ;  uncertainty k = 0.225947
        12        13        14        15     9        0.000000        0.058126         1    ;  uncertainty k = 0.156334
        12        13        14        15     9      180.000000       14.705163         2    ;  uncertainty k = 0.181342
        12        13        14        15     9        0.000000       -1.094588         3    ;  uncertainty k = 0.620321
        12        13        14        15     9      180.000000        0.680673         4    ;  uncertainty k = 0.281531
        12        13        14        35     9        0.000000        0.058614         1    ;  uncertainty k = 0.034023
        12        13        14        35     9      180.000000        7.663396         2    ;  uncertainty k = 0.313118
        12        13        14        35     9        0.000000        1.469705         3    ;  uncertainty k = 0.243525
        12        13        14        35     9      180.000000        1.788762         4    ;  uncertainty k = 0.192589
        13        12        11        16     9        0.000000       -0.212917         1    ;  uncertainty k = 0.091573
        13        12        11        16     9      180.000000       11.683851         2    ;  uncertainty k = 0.179223
        13        12        11        16     9        0.000000       -0.521305         3    ;  uncertainty k = 0.369088
        13        12        11        16     9      180.000000        0.870767         4    ;  uncertainty k = 0.266459
        13        14        15        16     9        0.000000       -0.104533         1    ;  uncertainty k = 0.129373
        13        14        15        16     9      180.000000       10.727395         2    ;  uncertainty k = 0.268945
        13        14        15        16     9        0.000000       -0.412478         3    ;  uncertainty k = 0.543406
        13        14        15        16     9      180.000000        0.970855         4    ;  uncertainty k = 0.311106
        13        14        15        28     9        0.000000        0.006904         1    ;  uncertainty k = 0.118347
        13        14        15        28     9      180.000000        9.102209         2    ;  uncertainty k = 0.611877
        13        14        15        28     9        0.000000        1.572174         3    ;  uncertainty k = 0.437366
        13        14        15        28     9      180.000000        1.628699         4    ;  uncertainty k = 0.180914
        14        13        12        33     9        0.000000        0.052497         1    ;  uncertainty k = 0.039810
        14        13        12        33     9      180.000000        7.892808         2    ;  uncertainty k = 0.290827
        14        13        12        33     9        0.000000        1.431191         3    ;  uncertainty k = 0.269284
        14        13        12        33     9      180.000000        1.841152         4    ;  uncertainty k = 0.166965
        14        15        16        36     9        0.000000       -0.120757         1    ;  uncertainty k = 0.307659
        14        15        16        36     9      180.000000        6.496358         2    ;  uncertainty k = 0.574538
        14        15        16        36     9        0.000000        1.446404         3    ;  uncertainty k = 0.300052
        14        15        16        36     9      180.000000        1.617834         4    ;  uncertainty k = 0.164639
        15        14        13        34     9        0.000000        0.025643         1    ;  uncertainty k = 0.129336
        15        14        13        34     9      180.000000        7.678018         2    ;  uncertainty k = 0.283537
        15        14        13        34     9        0.000000        1.451725         3    ;  uncertainty k = 0.273818
        15        14        13        34     9      180.000000        1.867644         4    ;  uncertainty k = 0.192904
        16        11        12        33     9        0.000000        0.324149         1    ;  uncertainty k = 0.122340
        16        11        12        33     9      180.000000        7.117478         2    ;  uncertainty k = 0.546914
        16        11        12        33     9        0.000000        1.465171         3    ;  uncertainty k = 0.199227
        16        11        12        33     9      180.000000        1.654290         4    ;  uncertainty k = 0.242861
        16        15        14        35     9        0.000000       -0.023263         1    ;  uncertainty k = 0.167591
        16        15        14        35     9      180.000000        6.377782         2    ;  uncertainty k = 0.603311
        16        15        14        35     9        0.000000        1.454762         3    ;  uncertainty k = 0.329249
        16        15        14        35     9      180.000000        1.531060         4    ;  uncertainty k = 0.178833
        17         3         2        29     9        0.000000       -0.570256         1    ;  uncertainty k = 0.225437
        17         3         2        29     9      180.000000        8.036469         2    ;  uncertainty k = 0.539841
        17         3         2        29     9        0.000000        0.826404         3    ;  uncertainty k = 0.259178
        17         3         2        29     9      180.000000        1.188346         4    ;  uncertainty k = 0.226655
        17         3         4        30     9        0.000000       -0.452049         1    ;  uncertainty k = 0.327503
        17         3         4        30     9      180.000000        6.961909         2    ;  uncertainty k = 0.390567
        17         3         4        30     9        0.000000        0.803667         3    ;  uncertainty k = 0.225958
        17         3         4        30     9      180.000000        1.176718         4    ;  uncertainty k = 0.121576
        17        18        19        20     9        0.000000        0.284522         1    ;  uncertainty k = 0.937481
        17        18        19        20     9      180.000000        8.701419         2    ;  uncertainty k = 0.854399
        17        18        19        20     9        0.000000        0.836725         3    ;  uncertainty k = 0.185927
        17        18        19        20     9      180.000000        1.496108         4    ;  uncertainty k = 0.299674
        17        18        19        38     9        0.000000        0.007093         1    ;  uncertainty k = 0.499750
        17        18        19        38     9      180.000000        5.972503         2    ;  uncertainty k = 0.983101
        17        18        19        38     9        0.000000        0.942185         3    ;  uncertainty k = 0.273147
        17        18        19        38     9      180.000000        1.158934         4    ;  uncertainty k = 0.246634
        17        18        23        22     9        0.000000       -0.020825         1    ;  uncertainty k = 0.416438
        17        18        23        22     9      180.000000        7.821353         2    ;  uncertainty k = 0.442940
        17        18        23        22     9        0.000000        1.029527         3    ;  uncertainty k = 0.210996
        17        18        23        22     9      180.000000        1.524187         4    ;  uncertainty k = 0.257372
        17        18        23        24     9        0.000000       -0.506014         1    ;  uncertainty k = 0.475727
        17        18        23        24     9      180.000000        7.636457         2    ;  uncertainty k = 0.878998
        17        18        23        24     9        0.000000        1.159105         3    ;  uncertainty k = 0.332202
        17        18        23        24     9      180.000000        1.400876         4    ;  uncertainty k = 0.254665
        18        19        20        21     9        0.000000        0.036596         1    ;  uncertainty k = 0.371494
        18        19        20        21     9      180.000000       16.597051         2    ;  uncertainty k = 0.304805
        18        19        20        21     9        0.000000        0.966622         3    ;  uncertainty k = 0.517836
        18        19        20        21     9      180.000000        1.451098         4    ;  uncertainty k = 0.177715
        18        23        22        21     9        0.000000       -0.265671         1    ;  uncertainty k = 0.419233
        18        23        22        21     9      180.000000       10.460453         2    ;  uncertainty k = 0.389563
        18        23        22        21     9        0.000000       -0.366508         3    ;  uncertainty k = 0.514478
        18        23        22        21     9      180.000000        0.929899         4    ;  uncertainty k = 0.330294
        18        23        22        40     9        0.000000        0.238370         1    ;  uncertainty k = 0.382235
        18        23        22        40     9      180.000000        7.525224         2    ;  uncertainty k = 0.903253
        18        23        22        40     9        0.000000        1.267263         3    ;  uncertainty k = 0.290614
        18        23        22        40     9      180.000000        1.474858         4    ;  uncertainty k = 0.123420
        18        23        24        25     9        0.000000       -5.228558         1    ;  uncertainty k = 2.158654
        18        23        24        25     9      180.000000       -0.861345         2    ;  uncertainty k = 0.805164
        18        23        24        25     9        0.000000        1.201043         3    ;  uncertainty k = 0.425533
        18        23        24        25     9      180.000000       -0.042324         4    ;  uncertainty k = 0.375368
        18        23        24        26     9        0.000000       -5.228558         1    ;  uncertainty k = 2.158654
        18        23        24        26     9      180.000000       -0.861345         2    ;  uncertainty k = 0.805164
        18        23        24        26     9        0.000000        1.201043         3    ;  uncertainty k = 0.425533
        18        23        24        26     9      180.000000       -0.042324         4    ;  uncertainty k = 0.375368
        18        23        24        27     9        0.000000        0.262419         1    ;  uncertainty k = 1.833671
        18        23        24        27     9      180.000000       -1.026928         2    ;  uncertainty k = 0.798424
        18        23        24        27     9        0.000000        0.956202         3    ;  uncertainty k = 0.348086
        18        23        24        27     9      180.000000        0.178350         4    ;  uncertainty k = 0.195567
        19        18        17        37     9        0.000000        0.917544         1    ;  uncertainty k = 1.463600
        19        18        17        37     9      180.000000        4.182458         2    ;  uncertainty k = 0.765144
        19        18        17        37     9        0.000000       -0.106077         3    ;  uncertainty k = 0.498483
        19        18        17        37     9      180.000000       -0.220151         4    ;  uncertainty k = 0.253379
        19        18        23        22     9        0.000000       -0.438836         1    ;  uncertainty k = 0.840317
        19        18        23        22     9      180.000000        4.610451         2    ;  uncertainty k = 1.641700
        19        18        23        22     9        0.000000        0.358135         3    ;  uncertainty k = 0.323564
        19        18        23        22     9      180.000000        1.351096         4    ;  uncertainty k = 0.315699
        19        18        23        24     9        0.000000        0.917644         1    ;  uncertainty k = 0.634888
        19        18        23        24     9      180.000000        4.793052         2    ;  uncertainty k = 1.087369
        19        18        23        24     9        0.000000        1.108848         3    ;  uncertainty k = 0.290817
        19        18        23        24     9      180.000000        1.561542         4    ;  uncertainty k = 0.342191
        19        20        21        22     9        0.000000       -0.485016         1    ;  uncertainty k = 0.425215
        19        20        21        22     9      180.000000       15.189731         2    ;  uncertainty k = 0.461239
        19        20        21        22     9        0.000000        1.127628         3    ;  uncertainty k = 0.661679
        19        20        21        22     9      180.000000        1.285431         4    ;  uncertainty k = 0.097277
        19        20        21        39     9        0.000000        0.172532         1    ;  uncertainty k = 0.566096
        19        20        21        39     9      180.000000       15.445790         2    ;  uncertainty k = 0.425751
        19        20        21        39     9        0.000000        2.152702         3    ;  uncertainty k = 0.508048
        19        20        21        39     9      180.000000        1.381411         4    ;  uncertainty k = 0.359273
        20        19        18        23     9        0.000000       -0.562844         1    ;  uncertainty k = 0.540741
        20        19        18        23     9      180.000000        6.748516         2    ;  uncertainty k = 1.268444
        20        19        18        23     9        0.000000        0.077078         3    ;  uncertainty k = 0.370452
        20        19        18        23     9      180.000000        1.216829         4    ;  uncertainty k = 0.295894
        20        21        22        23     9        0.000000       -0.252470         1    ;  uncertainty k = 0.431541
        20        21        22        23     9      180.000000       13.556321         2    ;  uncertainty k = 0.574918
        20        21        22        23     9        0.000000       -1.106330         3    ;  uncertainty k = 1.113054
        20        21        22        23     9      180.000000        0.952273         4    ;  uncertainty k = 0.151718
        20        21        22        40     9        0.000000       -0.068096         1    ;  uncertainty k = 0.262319
        20        21        22        40     9      180.000000        9.165641         2    ;  uncertainty k = 0.726880
        20        21        22        40     9        0.000000        0.979809         3    ;  uncertainty k = 0.350348
        20        21        22        40     9      180.000000        1.652653         4    ;  uncertainty k = 0.185846
        21        20        19        38     9        0.000000        0.508068         1    ;  uncertainty k = 0.686768
        21        20        19        38     9      180.000000       16.706316         2    ;  uncertainty k = 0.583289
        21        20        19        38     9        0.000000        2.361241         3    ;  uncertainty k = 0.235965
        21        20        19        38     9      180.000000        1.517602         4    ;  uncertainty k = 0.508263
        21        22        23        24     9        0.000000        0.601785         1    ;  uncertainty k = 0.840720
        21        22        23        24     9      180.000000        9.254868         2    ;  uncertainty k = 0.664789
        21        22        23        24     9        0.000000        1.560648         3    ;  uncertainty k = 0.502423
        21        22        23        24     9      180.000000        1.838812         4    ;  uncertainty k = 0.146620
        22        23        24        25     9        0.000000       -0.492328         1    ;  uncertainty k = 1.108207
        22        23        24        25     9      180.000000        0.135604         2    ;  uncertainty k = 0.455038
        22        23        24        25     9        0.000000        0.177825         3    ;  uncertainty k = 0.237275
        22        23        24        25     9      180.000000        0.012963         4    ;  uncertainty k = 0.209193
        22        23        24        26     9        0.000000       -0.492328         1    ;  uncertainty k = 1.108207
        22        23        24        26     9      180.000000        0.135604         2    ;  uncertainty k = 0.455038
        22        23        24        26     9        0.000000        0.177825         3    ;  uncertainty k = 0.237275
        22        23        24        26     9      180.000000        0.012963         4    ;  uncertainty k = 0.209193
        22        23        24        27     9        0.000000        3.406873         1    ;  uncertainty k = 1.708515
        22        23        24        27     9      180.000000        0.171418         2    ;  uncertainty k = 0.576991
        22        23        24        27     9        0.000000       -0.078308         3    ;  uncertainty k = 0.399031
        22        23        24        27     9      180.000000        0.444416         4    ;  uncertainty k = 0.155672
        23        18        17        37     9        0.000000        9.262104         1    ;  uncertainty k = 0.773178
        23        18        17        37     9      180.000000        3.945832         2    ;  uncertainty k = 0.536442
        23        18        17        37     9        0.000000        0.752572         3    ;  uncertainty k = 0.273739
        23        18        17        37     9      180.000000       -0.119638         4    ;  uncertainty k = 0.176172
        23        18        19        38     9        0.000000        0.000816         1    ;  uncertainty k = 1.384590
        23        18        19        38     9      180.000000        4.685089         2    ;  uncertainty k = 1.110640
        23        18        19        38     9        0.000000        1.104676         3    ;  uncertainty k = 0.238511
        23        18        19        38     9      180.000000        1.089443         4    ;  uncertainty k = 0.205054
        23        22        21        39     9        0.000000       -0.148524         1    ;  uncertainty k = 0.589762
        23        22        21        39     9      180.000000        6.244191         2    ;  uncertainty k = 0.249577
        23        22        21        39     9        0.000000        1.014104         3    ;  uncertainty k = 0.237437
        23        22        21        39     9      180.000000        1.497615         4    ;  uncertainty k = 0.181166
        23        24        27        41     9        0.000000        2.345205         1    ;  uncertainty k = 0.643494
        23        24        27        41     9      180.000000       -2.433988         2    ;  uncertainty k = 0.375725
        23        24        27        41     9        0.000000        0.170343         3    ;  uncertainty k = 0.101207
        23        24        27        41     9      180.000000        0.001304         4    ;  uncertainty k = 0.149206
        23        24        27        42     9        0.000000        2.345205         1    ;  uncertainty k = 0.643494
        23        24        27        42     9      180.000000       -2.433988         2    ;  uncertainty k = 0.375725
        23        24        27        42     9        0.000000        0.170343         3    ;  uncertainty k = 0.101207
        23        24        27        42     9      180.000000        0.001304         4    ;  uncertainty k = 0.149206
        23        24        27        43     9        0.000000        2.345205         1    ;  uncertainty k = 0.643494
        23        24        27        43     9      180.000000       -2.433988         2    ;  uncertainty k = 0.375725
        23        24        27        43     9        0.000000        0.170343         3    ;  uncertainty k = 0.101207
        23        24        27        43     9      180.000000        0.001304         4    ;  uncertainty k = 0.149206
        24        23        22        40     9        0.000000       -0.424036         1    ;  uncertainty k = 0.616072
        24        23        22        40     9      180.000000        7.010376         2    ;  uncertainty k = 0.550571
        24        23        22        40     9        0.000000        0.781435         3    ;  uncertainty k = 0.169299
        24        23        22        40     9      180.000000        1.269235         4    ;  uncertainty k = 0.186788
        25        24        27        41     9        0.000000       -0.057641         1    ;  uncertainty k = 0.603700
        25        24        27        41     9      180.000000       -0.366450         2    ;  uncertainty k = 0.288160
        25        24        27        41     9        0.000000        0.801561         3    ;  uncertainty k = 0.057212
        25        24        27        41     9      180.000000        0.039212         4    ;  uncertainty k = 0.101280
        25        24        27        42     9        0.000000       -0.057641         1    ;  uncertainty k = 0.603700
        25        24        27        42     9      180.000000       -0.366450         2    ;  uncertainty k = 0.288160
        25        24        27        42     9        0.000000        0.801561         3    ;  uncertainty k = 0.057212
        25        24        27        42     9      180.000000        0.039212         4    ;  uncertainty k = 0.101280
        25        24        27        43     9        0.000000       -0.057641         1    ;  uncertainty k = 0.603700
        25        24        27        43     9      180.000000       -0.366450         2    ;  uncertainty k = 0.288160
        25        24        27        43     9        0.000000        0.801561         3    ;  uncertainty k = 0.057212
        25        24        27        43     9      180.000000        0.039212         4    ;  uncertainty k = 0.101280
        26        24        27        41     9        0.000000       -0.057641         1    ;  uncertainty k = 0.603700
        26        24        27        41     9      180.000000       -0.366450         2    ;  uncertainty k = 0.288160
        26        24        27        41     9        0.000000        0.801561         3    ;  uncertainty k = 0.057212
        26        24        27        41     9      180.000000        0.039212         4    ;  uncertainty k = 0.101280
        26        24        27        42     9        0.000000       -0.057641         1    ;  uncertainty k = 0.603700
        26        24        27        42     9      180.000000       -0.366450         2    ;  uncertainty k = 0.288160
        26        24        27        42     9        0.000000        0.801561         3    ;  uncertainty k = 0.057212
        26        24        27        42     9      180.000000        0.039212         4    ;  uncertainty k = 0.101280
        26        24        27        43     9        0.000000       -0.057641         1    ;  uncertainty k = 0.603700
        26        24        27        43     9      180.000000       -0.366450         2    ;  uncertainty k = 0.288160
        26        24        27        43     9        0.000000        0.801561         3    ;  uncertainty k = 0.057212
        26        24        27        43     9      180.000000        0.039212         4    ;  uncertainty k = 0.101280
        28        15        14        35     9        0.000000        0.050446         1    ;  uncertainty k = 0.361040
        28        15        14        35     9      180.000000        7.140029         2    ;  uncertainty k = 0.488642
        28        15        14        35     9        0.000000        0.652813         3    ;  uncertainty k = 0.406249
        28        15        14        35     9      180.000000        0.930136         4    ;  uncertainty k = 0.148325
        28        15        16        36     9        0.000000        0.017241         1    ;  uncertainty k = 0.349793
        28        15        16        36     9      180.000000        7.439959         2    ;  uncertainty k = 0.524694
        28        15        16        36     9        0.000000        0.655540         3    ;  uncertainty k = 0.352744
        28        15        16        36     9      180.000000        1.017691         4    ;  uncertainty k = 0.139123
        31         8         9        32     9        0.000000       -0.152652         1    ;  uncertainty k = 0.805688
        31         8         9        32     9      180.000000        5.398109         2    ;  uncertainty k = 0.723628
        31         8         9        32     9        0.000000        0.147471         3    ;  uncertainty k = 0.248173
        31         8         9        32     9      180.000000        0.216442         4    ;  uncertainty k = 0.153410
        33        12        13        34     9        0.000000       -0.121293         1    ;  uncertainty k = 0.090449
        33        12        13        34     9      180.000000        7.826037         2    ;  uncertainty k = 0.324506
        33        12        13        34     9        0.000000       -0.487647         3    ;  uncertainty k = 0.293062
        33        12        13        34     9      180.000000        0.124111         4    ;  uncertainty k = 0.132477
        34        13        14        35     9        0.000000       -0.058963         1    ;  uncertainty k = 0.080198
        34        13        14        35     9      180.000000        7.758992         2    ;  uncertainty k = 0.469752
        34        13        14        35     9        0.000000       -0.433864         3    ;  uncertainty k = 0.242898
        34        13        14        35     9      180.000000        0.039881         4    ;  uncertainty k = 0.166026
        39        21        22        40     9        0.000000       -0.307962         1    ;  uncertainty k = 0.440104
        39        21        22        40     9      180.000000        6.502709         2    ;  uncertainty k = 0.379417
        39        21        22        40     9        0.000000       -0.130867         3    ;  uncertainty k = 0.246878
        39        21        22        40     9      180.000000        0.283979         4    ;  uncertainty k = 0.141773

[ dihedrals ] ; impropers
;       ai        aj        ak        al funct           phase               k        pn
         1         4         6        11     4      180.000000       17.571002         2    ;  uncertainty k = 0.105079
         1         6        11         4     4      180.000000       17.571002         2    ;  uncertainty k = 0.105079
         1        11         4         6     4      180.000000       17.571002         2    ;  uncertainty k = 0.105079
         2         3         5        29     4      180.000000        2.538906         2    ;  uncertainty k = 0.373105
         2         5        29         3     4      180.000000        2.538906         2    ;  uncertainty k = 0.373105
         2        29         3         5     4      180.000000        2.538906         2    ;  uncertainty k = 0.373105
         3         2         4        17     4      180.000000       20.656996         2    ;  uncertainty k = 0.063650
         3         4        17         2     4      180.000000       20.656996         2    ;  uncertainty k = 0.063650
         3        17         2         4     4      180.000000       20.656996         2    ;  uncertainty k = 0.063650
         4         1         3        30     4      180.000000        3.197242         2    ;  uncertainty k = 0.344534
         4         3        30         1     4      180.000000        3.197242         2    ;  uncertainty k = 0.344534
         4        30         1         3     4      180.000000        3.197242         2    ;  uncertainty k = 0.344534
         5         2         6        10     4      180.000000       18.452158         2    ;  uncertainty k = 0.055457
         5         6        10         2     4      180.000000       18.452158         2    ;  uncertainty k = 0.055457
         5        10         2         6     4      180.000000       18.452158         2    ;  uncertainty k = 0.055457
         6         1         5         7     4      180.000000       16.644846         2    ;  uncertainty k = 0.068950
         6         5         7         1     4      180.000000       16.644846         2    ;  uncertainty k = 0.068950
         6         7         1         5     4      180.000000       16.644846         2    ;  uncertainty k = 0.068950
         8         7         9        31     4      180.000000       12.058352         2    ;  uncertainty k = 0.155869
         8         9        31         7     4      180.000000       12.058352         2    ;  uncertainty k = 0.155869
         8        31         7         9     4      180.000000       12.058352         2    ;  uncertainty k = 0.155869
         9         8        10        32     4      180.000000       11.948848         2    ;  uncertainty k = 0.101429
         9        10        32         8     4      180.000000       11.948848         2    ;  uncertainty k = 0.101429
         9        32         8        10     4      180.000000       11.948848         2    ;  uncertainty k = 0.101429
        11         1        12        16     4      180.000000       13.359177         2    ;  uncertainty k = 0.163614
        11        12        16         1     4      180.000000       13.359177         2    ;  uncertainty k = 0.163614
        11        16         1        12     4      180.000000       13.359177         2    ;  uncertainty k = 0.163614
        12        11        13        33     4      180.000000        4.054825         2    ;  uncertainty k = 0.105568
        12        13        33        11     4      180.000000        4.054825         2    ;  uncertainty k = 0.105568
        12        33        11        13     4      180.000000        4.054825         2    ;  uncertainty k = 0.105568
        13        12        14        34     4      180.000000        4.226297         2    ;  uncertainty k = 0.047195
        13        14        34        12     4      180.000000        4.226297         2    ;  uncertainty k = 0.047195
        13        34        12        14     4      180.000000        4.226297         2    ;  uncertainty k = 0.047195
        14        13        15        35     4      180.000000        3.892118         2    ;  uncertainty k = 0.148614
        14        15        35        13     4      180.000000        3.892118         2    ;  uncertainty k = 0.148614
        14        35        13        15     4      180.000000        3.892118         2    ;  uncertainty k = 0.148614
        15        14        16        28     4      180.000000       11.309743         2    ;  uncertainty k = 0.111530
        15        16        28        14     4      180.000000       11.309743         2    ;  uncertainty k = 0.111530
        15        28        14        16     4      180.000000       11.309743         2    ;  uncertainty k = 0.111530
        16        11        15        36     4      180.000000        3.933275         2    ;  uncertainty k = 0.186381
        16        15        36        11     4      180.000000        3.933275         2    ;  uncertainty k = 0.186381
        16        36        11        15     4      180.000000        3.933275         2    ;  uncertainty k = 0.186381
        17         3        18        37     4      180.000000        1.379953         2    ;  uncertainty k = 1.192013
        17        18        37         3     4      180.000000        1.379953         2    ;  uncertainty k = 1.192013
        17        37         3        18     4      180.000000        1.379953         2    ;  uncertainty k = 1.192013
        18        17        19        23     4      180.000000       22.010767         2    ;  uncertainty k = 0.077536
        18        19        23        17     4      180.000000       22.010767         2    ;  uncertainty k = 0.077536
        18        23        17        19     4      180.000000       22.010767         2    ;  uncertainty k = 0.077536
        19        18        20        38     4      180.000000       10.900442         2    ;  uncertainty k = 0.192114
        19        20        38        18     4      180.000000       10.900442         2    ;  uncertainty k = 0.192114
        19        38        18        20     4      180.000000       10.900442         2    ;  uncertainty k = 0.192114
        21        20        22        39     4      180.000000       11.385376         2    ;  uncertainty k = 0.107036
        21        22        39        20     4      180.000000       11.385376         2    ;  uncertainty k = 0.107036
        21        39        20        22     4      180.000000       11.385376         2    ;  uncertainty k = 0.107036
        22        21        23        40     4      180.000000        4.322236         2    ;  uncertainty k = 0.262313
        22        23        40        21     4      180.000000        4.322236         2    ;  uncertainty k = 0.262313
        22        40        21        23     4      180.000000        4.322236         2    ;  uncertainty k = 0.262313
        23        18        22        24     4      180.000000        5.945007         2    ;  uncertainty k = 0.459977
        23        22        24        18     4      180.000000        5.945007         2    ;  uncertainty k = 0.459977
        23        24        18        22     4      180.000000        5.945007         2    ;  uncertainty k = 0.459977

[ pairs ]
;       ai        aj funct
         1         2     1
         1         8     1
         1        10     1
         1        13     1
         1        15     1
         1        17     1
         1        33     1
         1        36     1
         2         7     1
         2         9     1
         2        18     1
         2        30     1
         2        37     1
         3         6     1
         3        10     1
         3        11     1
         3        19     1
         3        23     1
         4         5     1
         4         7     1
         4        12     1
         4        16     1
         4        18     1
         4        29     1
         4        37     1
         5         8     1
         5        11     1
         5        17     1
         5        32     1
         6         9     1
         6        12     1
         6        16     1
         6        29     1
         6        30     1
         6        31     1
         7        10     1
         7        11     1
         7        32     1
        10        29     1
        10        31     1
        11        14     1
        11        28     1
        11        30     1
        11        34     1
        12        15     1
        12        35     1
        12        36     1
        13        16     1
        13        28     1
        14        33     1
        14        36     1
        15        34     1
        16        33     1
        16        35     1
        17        20     1
        17        22     1
        17        24     1
        17        29     1
        17        30     1
        17        38     1
        18        21     1
        18        25     1
        18        26     1
        18        27     1
        18        40     1
        19        22     1
        19        24     1
        19        37     1
        19        39     1
        20        23     1
        20        40     1
        21        24     1
        21        38     1
        22        25     1
        22        26     1
        22        27     1
        23        37     1
        23        38     1
        23        39     1
        23        41     1
        23        42     1
        23        43     1
        24        40     1
        25        41     1
        25        42     1
        25        43     1
        26        41     1
        26        42     1
        26        43     1
        28        35     1
        28        36     1
        31        32     1
        33        34     1
        34        35     1
        39        40     1
