; ITP file created by ByteFF-joint-25, 2026-02-17 09:24:00.854642

[ atomtypes ]
;name           bonded.type        at.num        mass        charge   ptype           sigma         epsilon
 c0bf                                   6      0.0000       0.00000       A     3.31500e-01     4.12773e-01    ;  uncertainty sigma = 0.000010, epsilon = 0.000688
 c1bf                                   6      0.0000       0.00000       A     3.31509e-01     4.13539e-01    ;  uncertainty sigma = 0.000009, epsilon = 0.000465
 c2bf                                   6      0.0000       0.00000       A     3.31538e-01     4.13732e-01    ;  uncertainty sigma = 0.000012, epsilon = 0.001772
 c3bf                                   6      0.0000       0.00000       A     3.31494e-01     4.13424e-01    ;  uncertainty sigma = 0.000006, epsilon = 0.000718
 c4bf                                   6      0.0000       0.00000       A     3.31516e-01     4.13470e-01    ;  uncertainty sigma = 0.000011, epsilon = 0.000986
 c5bf                                   6      0.0000       0.00000       A     3.31521e-01     4.13012e-01    ;  uncertainty sigma = 0.000010, epsilon = 0.001115
 n6bf                                   7      0.0000       0.00000       A     3.38415e-01     3.93854e-01    ;  uncertainty sigma = 0.000010, epsilon = 0.001066
 c7bf                                   6      0.0000       0.00000       A     3.31531e-01     4.13178e-01    ;  uncertainty sigma = 0.000013, epsilon = 0.000482
 c8bf                                   6      0.0000       0.00000       A     3.31530e-01     4.13238e-01    ;  uncertainty sigma = 0.000010, epsilon = 0.000599
 n9bf                                   7      0.0000       0.00000       A     3.38414e-01     3.93827e-01    ;  uncertainty sigma = 0.000003, epsilon = 0.000862
 c10bf                                  6      0.0000       0.00000       A     3.31515e-01     4.13402e-01    ;  uncertainty sigma = 0.000013, epsilon = 0.000952
 c11bf                                  6      0.0000       0.00000       A     3.31515e-01     4.13354e-01    ;  uncertainty sigma = 0.000006, epsilon = 0.000542
 c12bf                                  6      0.0000       0.00000       A     3.31519e-01     4.13296e-01    ;  uncertainty sigma = 0.000007, epsilon = 0.000628
 c13bf                                  6      0.0000       0.00000       A     3.31515e-01     4.13354e-01    ;  uncertainty sigma = 0.000006, epsilon = 0.000542
 n14bf                                  7      0.0000       0.00000       A     3.27956e-01     6.47518e-01    ;  uncertainty sigma = 0.000036, epsilon = 0.003822
 c15bf                                  6      0.0000       0.00000       A     3.31502e-01     4.13462e-01    ;  uncertainty sigma = 0.000018, epsilon = 0.002180
 c16bf                                  6      0.0000       0.00000       A     3.31532e-01     4.13419e-01    ;  uncertainty sigma = 0.000012, epsilon = 0.000931
 n17bf                                  7      0.0000       0.00000       A     3.38420e-01     3.93806e-01    ;  uncertainty sigma = 0.000013, epsilon = 0.000881
 c18bf                                  6      0.0000       0.00000       A     3.31513e-01     4.13350e-01    ;  uncertainty sigma = 0.000011, epsilon = 0.000728
 c19bf                                  6      0.0000       0.00000       A     3.31518e-01     4.13124e-01    ;  uncertainty sigma = 0.000015, epsilon = 0.000361
 c20bf                                  6      0.0000       0.00000       A     3.31501e-01     4.13078e-01    ;  uncertainty sigma = 0.000025, epsilon = 0.001598
 s21bf                                 16      0.0000       0.00000       A     4.05775e-01     2.56504e-01    ;  uncertainty sigma = 0.000009, epsilon = 0.002944
 o22bf                                  8      0.0000       0.00000       A     3.04808e-01     6.12058e-01    ;  uncertainty sigma = 0.000011, epsilon = 0.001075
 o23bf                                  8      0.0000       0.00000       A     3.04808e-01     6.12058e-01    ;  uncertainty sigma = 0.000011, epsilon = 0.001075
 c24bf                                  6      0.0000       0.00000       A     3.39790e-01     4.50653e-01    ;  uncertainty sigma = 0.000003, epsilon = 0.000848
 c25bf                                  6      0.0000       0.00000       A     3.31519e-01     4.13296e-01    ;  uncertainty sigma = 0.000007, epsilon = 0.000628
 c26bf                                  6      0.0000       0.00000       A     3.31514e-01     4.13231e-01    ;  uncertainty sigma = 0.000008, epsilon = 0.000750
 c27bf                                  6      0.0000       0.00000       A     3.39800e-01     4.50131e-01    ;  uncertainty sigma = 0.000015, epsilon = 0.000646
 f28bf                                  9      0.0000       0.00000       A     3.03450e-01     3.47875e-01    ;  uncertainty sigma = 0.000008, epsilon = 0.001301
 f29bf                                  9      0.0000       0.00000       A     3.03450e-01     3.47875e-01    ;  uncertainty sigma = 0.000008, epsilon = 0.001301
 f30bf                                  9      0.0000       0.00000       A     3.03450e-01     3.47875e-01    ;  uncertainty sigma = 0.000008, epsilon = 0.001301
 h31bf                                  1      0.0000       0.00000       A     2.62540e-01     6.71221e-02    ;  uncertainty sigma = 0.000022, epsilon = 0.000645
 h32bf                                  1      0.0000       0.00000       A     2.62566e-01     6.71158e-02    ;  uncertainty sigma = 0.000015, epsilon = 0.000400
 h33bf                                  1      0.0000       0.00000       A     2.53628e-01     6.69333e-02    ;  uncertainty sigma = 0.000020, epsilon = 0.000763
 h34bf                                  1      0.0000       0.00000       A     2.53628e-01     6.69333e-02    ;  uncertainty sigma = 0.000020, epsilon = 0.000763
 h35bf                                  1      0.0000       0.00000       A     2.62567e-01     6.70631e-02    ;  uncertainty sigma = 0.000011, epsilon = 0.000524
 h36bf                                  1      0.0000       0.00000       A     2.62563e-01     6.70185e-02    ;  uncertainty sigma = 0.000015, epsilon = 0.000501
 h37bf                                  1      0.0000       0.00000       A     2.62567e-01     6.70631e-02    ;  uncertainty sigma = 0.000011, epsilon = 0.000524
 h38bf                                  1      0.0000       0.00000       A     1.10720e-01     4.14039e-02    ;  uncertainty sigma = 0.000106, epsilon = 0.001477
 h39bf                                  1      0.0000       0.00000       A     2.53624e-01     6.69778e-02    ;  uncertainty sigma = 0.000049, epsilon = 0.000568
 h40bf                                  1      0.0000       0.00000       A     2.53633e-01     6.70304e-02    ;  uncertainty sigma = 0.000014, epsilon = 0.000494
 h41bf                                  1      0.0000       0.00000       A     2.62533e-01     6.70950e-02    ;  uncertainty sigma = 0.000019, epsilon = 0.000754
 h42bf                                  1      0.0000       0.00000       A     2.42167e-01     8.68275e-02    ;  uncertainty sigma = 0.000012, epsilon = 0.000620
 h43bf                                  1      0.0000       0.00000       A     2.42167e-01     8.68275e-02    ;  uncertainty sigma = 0.000012, epsilon = 0.000620
 h44bf                                  1      0.0000       0.00000       A     2.42167e-01     8.68275e-02    ;  uncertainty sigma = 0.000012, epsilon = 0.000620
 h45bf                                  1      0.0000       0.00000       A     2.62563e-01     6.70185e-02    ;  uncertainty sigma = 0.000015, epsilon = 0.000501

[ moleculetype ]
;name             nrexcl
 MOL                   3

[ atoms ]
;       nr            type      resi   res      atom      cgnr      charge          mass ; qtot
         1            c0bf         1   UNL        c0         1    -0.02789       12.0110 ; qtot   -0.028
         2            c1bf         1   UNL        c1         2    -0.22162       12.0110 ; qtot   -0.250
         3            c2bf         1   UNL        c2         3     0.17383       12.0110 ; qtot   -0.076
         4            c3bf         1   UNL        c3         4    -0.15971       12.0110 ; qtot   -0.235
         5            c4bf         1   UNL        c4         5     0.32340       12.0110 ; qtot    0.088
         6            c5bf         1   UNL        c5         6     0.27599       12.0110 ; qtot    0.364
         7            n6bf         1   UNL        n6         7    -0.61814       14.0070 ; qtot   -0.254
         8            c7bf         1   UNL        c7         8     0.29560       12.0110 ; qtot    0.041
         9            c8bf         1   UNL        c8         9     0.29621       12.0110 ; qtot    0.338
        10            n9bf         1   UNL        n9        10    -0.62862       14.0070 ; qtot   -0.291
        11           c10bf         1   UNL       c10        11    -0.01818       12.0110 ; qtot   -0.309
        12           c11bf         1   UNL       c11        12    -0.11268       12.0110 ; qtot   -0.422
        13           c12bf         1   UNL       c12        13    -0.07564       12.0110 ; qtot   -0.497
        14           c13bf         1   UNL       c13        14    -0.11268       12.0110 ; qtot   -0.610
        15           n14bf         1   UNL       n14        15    -0.64735       14.0070 ; qtot   -1.257
        16           c15bf         1   UNL       c15        16     0.15628       12.0110 ; qtot   -1.101
        17           c16bf         1   UNL       c16        17     0.33325       12.0110 ; qtot   -0.768
        18           n17bf         1   UNL       n17        18    -0.60182       14.0070 ; qtot   -1.370
        19           c18bf         1   UNL       c18        19     0.35581       12.0110 ; qtot   -1.014
        20           c19bf         1   UNL       c19        20    -0.13704       12.0110 ; qtot   -1.151
        21           c20bf         1   UNL       c20        21    -0.26398       12.0110 ; qtot   -1.415
        22           s21bf         1   UNL       s21        22     1.01656       32.0670 ; qtot   -0.398
        23           o22bf         1   UNL       o22        23    -0.58472       15.9990 ; qtot   -0.983
        24           o23bf         1   UNL       o23        24    -0.58472       15.9990 ; qtot   -1.568
        25           c24bf         1   UNL       c24        25    -0.18352       12.0110 ; qtot   -1.751
        26           c25bf         1   UNL       c25        26    -0.07564       12.0110 ; qtot   -1.827
        27           c26bf         1   UNL       c26        27    -0.18657       12.0110 ; qtot   -2.014
        28           c27bf         1   UNL       c27        28     0.70885       12.0110 ; qtot   -1.305
        29           f28bf         1   UNL       f28        29    -0.22950       18.9980 ; qtot   -1.534
        30           f29bf         1   UNL       f29        30    -0.22950       18.9980 ; qtot   -1.764
        31           f30bf         1   UNL       f30        31    -0.22950       18.9980 ; qtot   -1.993
        32           h31bf         1   UNL       h31        32     0.15776        1.0080 ; qtot   -1.835
        33           h32bf         1   UNL       h32        33     0.14723        1.0080 ; qtot   -1.688
        34           h33bf         1   UNL       h33        34     0.03380        1.0080 ; qtot   -1.654
        35           h34bf         1   UNL       h34        35     0.03331        1.0080 ; qtot   -1.621
        36           h35bf         1   UNL       h35        36     0.14418        1.0080 ; qtot   -1.477
        37           h36bf         1   UNL       h36        37     0.15050        1.0080 ; qtot   -1.326
        38           h37bf         1   UNL       h37        38     0.14418        1.0080 ; qtot   -1.182
        39           h38bf         1   UNL       h38        39     0.47844        1.0080 ; qtot   -0.704
        40           h39bf         1   UNL       h39        40     0.03967        1.0080 ; qtot   -0.664
        41           h40bf         1   UNL       h40        41     0.03424        1.0080 ; qtot   -0.630
        42           h41bf         1   UNL       h41        42     0.16807        1.0080 ; qtot   -0.462
        43           h42bf         1   UNL       h42        43     0.10378        1.0080 ; qtot   -0.358
        44           h43bf         1   UNL       h43        44     0.10378        1.0080 ; qtot   -0.254
        45           h44bf         1   UNL       h44        45     0.10378        1.0080 ; qtot   -0.151
        46           h45bf         1   UNL       h45        46     0.15052        1.0080 ; qtot   -0.000

[ bonds ]
;       ai        aj funct               r               k
         1         4     1        0.137983   347565.038330    ;  uncertainty r = 0.000130, k = 16.431331
         1         6     1        0.143060   310262.982666    ;  uncertainty r = 0.000113, k = 16.803920
         1        11     1        0.148144   281058.616699    ;  uncertainty r = 0.000098, k = 15.131663
         2         3     1        0.138770   381943.426953    ;  uncertainty r = 0.000111, k = 9.337646
         2         5     1        0.141431   396079.468311    ;  uncertainty r = 0.000094, k = 15.205670
         2        32     1        0.108811   340366.765625    ;  uncertainty r = 0.000031, k = 1.855831
         3         4     1        0.142028   351861.401611    ;  uncertainty r = 0.000227, k = 12.579464
         3        15     1        0.141414   345942.921143    ;  uncertainty r = 0.000097, k = 12.910217
         4        33     1        0.108882   338495.201953    ;  uncertainty r = 0.000015, k = 3.632238
         5         6     1        0.142978   298967.076465    ;  uncertainty r = 0.000063, k = 15.491496
         5        10     1        0.136382   355171.598340    ;  uncertainty r = 0.000057, k = 8.738544
         6         7     1        0.135780   353419.139746    ;  uncertainty r = 0.000093, k = 12.280365
         7         8     1        0.131584   437137.956152    ;  uncertainty r = 0.000061, k = 11.801030
         8         9     1        0.141378   325245.374902    ;  uncertainty r = 0.000067, k = 16.241067
         8        34     1        0.109180   341408.015723    ;  uncertainty r = 0.000031, k = 1.111543
         9        10     1        0.131606   448634.967090    ;  uncertainty r = 0.000067, k = 6.059784
         9        35     1        0.109175   341608.175586    ;  uncertainty r = 0.000026, k = 2.358932
        11        12     1        0.140006   346626.626172    ;  uncertainty r = 0.000041, k = 4.748754
        11        14     1        0.140006   346626.626172    ;  uncertainty r = 0.000041, k = 4.748754
        12        13     1        0.139170   361610.499561    ;  uncertainty r = 0.000048, k = 1.964187
        12        36     1        0.108767   333994.388574    ;  uncertainty r = 0.000030, k = 1.330695
        13        27     1        0.139001   353726.019189    ;  uncertainty r = 0.000049, k = 1.867368
        13        37     1        0.108667   332229.135889    ;  uncertainty r = 0.000024, k = 0.495573
        14        26     1        0.139170   361610.499561    ;  uncertainty r = 0.000048, k = 1.964202
        14        38     1        0.108767   333994.388574    ;  uncertainty r = 0.000030, k = 1.330695
        15        16     1        0.139103   334487.356934    ;  uncertainty r = 0.000264, k = 9.014045
        15        39     1        0.101492   409720.242969    ;  uncertainty r = 0.000088, k = 5.983715
        16        17     1        0.140927   340447.897021    ;  uncertainty r = 0.000113, k = 16.488682
        16        21     1        0.141356   348414.581348    ;  uncertainty r = 0.000198, k = 15.946785
        17        18     1        0.132524   387119.543652    ;  uncertainty r = 0.000108, k = 11.004631
        17        40     1        0.108905   336131.001904    ;  uncertainty r = 0.000101, k = 3.724292
        18        19     1        0.133802   397972.278857    ;  uncertainty r = 0.000074, k = 5.323603
        19        20     1        0.139170   363105.084424    ;  uncertainty r = 0.000048, k = 3.861484
        19        41     1        0.108994   339519.240039    ;  uncertainty r = 0.000025, k = 1.411827
        20        21     1        0.138845   368349.257520    ;  uncertainty r = 0.000202, k = 14.185219
        20        42     1        0.108610   333138.767725    ;  uncertainty r = 0.000052, k = 1.956172
        21        22     1        0.180205   137177.894727    ;  uncertainty r = 0.000181, k = 18.369765
        22        23     1        0.147757   507438.247363    ;  uncertainty r = 0.000058, k = 6.198415
        22        24     1        0.147757   507438.247363    ;  uncertainty r = 0.000058, k = 6.198415
        22        25     1        0.181050   174448.795117    ;  uncertainty r = 0.000039, k = 9.209325
        25        43     1        0.109286   321567.954541    ;  uncertainty r = 0.000031, k = 1.364985
        25        44     1        0.109286   321567.954541    ;  uncertainty r = 0.000031, k = 1.364985
        25        45     1        0.109286   321567.954541    ;  uncertainty r = 0.000031, k = 1.364985
        26        27     1        0.139001   353726.019189    ;  uncertainty r = 0.000049, k = 1.867349
        26        46     1        0.108667   332229.110352    ;  uncertainty r = 0.000024, k = 0.495579
        27        28     1        0.149371   216841.622461    ;  uncertainty r = 0.000061, k = 1.694851
        28        29     1        0.135375   286716.720801    ;  uncertainty r = 0.000039, k = 3.613505
        28        30     1        0.135375   286716.720801    ;  uncertainty r = 0.000039, k = 3.613505
        28        31     1        0.135375   286716.720801    ;  uncertainty r = 0.000039, k = 3.613510

[ angles ]
;       ai        aj        ak funct           theta             cth
         1         4         3     1      122.325638      516.724447    ;  uncertainty theta = 0.004751, k = 0.261975
         1         4        33     1      118.702614      277.803529    ;  uncertainty theta = 0.004789, k = 0.045317
         1         6         5     1      120.657654      398.206786    ;  uncertainty theta = 0.005930, k = 0.076005
         1         6         7     1      118.045509      466.012089    ;  uncertainty theta = 0.003644, k = 0.235085
         1        11        12     1      120.671799      400.275484    ;  uncertainty theta = 0.002334, k = 0.075862
         1        11        14     1      120.671799      400.275484    ;  uncertainty theta = 0.002334, k = 0.075862
         2         3         4     1      119.354149      388.558004    ;  uncertainty theta = 0.003479, k = 0.061803
         2         3        15     1      122.010719      487.333915    ;  uncertainty theta = 0.006482, k = 0.189293
         2         5         6     1      119.497047      391.821392    ;  uncertainty theta = 0.005347, k = 0.191786
         2         5        10     1      122.312637      528.712396    ;  uncertainty theta = 0.003351, k = 0.210335
         3         2         5     1      118.206688      518.635612    ;  uncertainty theta = 0.002447, k = 0.073028
         3         2        32     1      121.438538      270.401917    ;  uncertainty theta = 0.001365, k = 0.142095
         3         4        33     1      119.378006      284.937384    ;  uncertainty theta = 0.005110, k = 0.129316
         3        15        16     1      115.247620      387.594010    ;  uncertainty theta = 0.002924, k = 0.212981
         3        15        39     1      115.334732      382.605017    ;  uncertainty theta = 0.007384, k = 0.160726
         4         1         6     1      121.244652      456.628638    ;  uncertainty theta = 0.004081, k = 0.131190
         4         1        11     1      121.027367      425.912922    ;  uncertainty theta = 0.004051, k = 0.151709
         4         3        15     1      120.269043      499.771605    ;  uncertainty theta = 0.004775, k = 0.338941
         5         2        32     1      120.837975      275.673543    ;  uncertainty theta = 0.003390, k = 0.103595
         5         6         7     1      119.715538      514.287664    ;  uncertainty theta = 0.004171, k = 0.058520
         5        10         9     1      114.458984      488.266148    ;  uncertainty theta = 0.001996, k = 0.147683
         6         1        11     1      119.131943      397.993136    ;  uncertainty theta = 0.003436, k = 0.217758
         6         5        10     1      119.215195      554.928154    ;  uncertainty theta = 0.007493, k = 0.084178
         6         7         8     1      116.467896      472.703067    ;  uncertainty theta = 0.004318, k = 0.126453
         7         8         9     1      121.240555      622.447314    ;  uncertainty theta = 0.002919, k = 0.205880
         7         8        34     1      116.813492      347.959523    ;  uncertainty theta = 0.001638, k = 0.087624
         8         9        10     1      120.931259      612.842998    ;  uncertainty theta = 0.002470, k = 0.239696
         8         9        35     1      121.868530      283.534439    ;  uncertainty theta = 0.002376, k = 0.096063
         9         8        34     1      121.994606      282.804174    ;  uncertainty theta = 0.002439, k = 0.090842
        10         9        35     1      116.754013      350.159800    ;  uncertainty theta = 0.001533, k = 0.075385
        11        12        13     1      120.914383      524.370226    ;  uncertainty theta = 0.001621, k = 0.064133
        11        12        36     1      119.722878      281.903161    ;  uncertainty theta = 0.002280, k = 0.070156
        11        14        26     1      120.914383      524.370257    ;  uncertainty theta = 0.001621, k = 0.064134
        11        14        38     1      119.722878      281.903161    ;  uncertainty theta = 0.002280, k = 0.070156
        12        11        14     1      118.939743      406.821251    ;  uncertainty theta = 0.002688, k = 0.143403
        12        13        27     1      120.531715      503.153389    ;  uncertainty theta = 0.003570, k = 0.035329
        12        13        37     1      120.025002      281.416583    ;  uncertainty theta = 0.001917, k = 0.015067
        13        12        36     1      119.763977      290.966983    ;  uncertainty theta = 0.001203, k = 0.049204
        13        27        26     1      121.346642      479.827122    ;  uncertainty theta = 0.002741, k = 0.085909
        13        27        28     1      116.425293      346.065850    ;  uncertainty theta = 0.006132, k = 0.087458
        14        26        27     1      120.531715      503.153325    ;  uncertainty theta = 0.003570, k = 0.035329
        14        26        46     1      120.025002      281.416583    ;  uncertainty theta = 0.001917, k = 0.015066
        15        16        17     1      118.512817      444.270049    ;  uncertainty theta = 0.006989, k = 0.276229
        15        16        21     1      122.762405      517.830874    ;  uncertainty theta = 0.007977, k = 0.368248
        16        15        39     1      114.408607      380.718431    ;  uncertainty theta = 0.008156, k = 0.169224
        16        17        18     1      124.922012      667.515332    ;  uncertainty theta = 0.002966, k = 0.161817
        16        17        40     1      118.731201      264.771767    ;  uncertainty theta = 0.008633, k = 0.144655
        16        21        20     1      123.289940      400.819392    ;  uncertainty theta = 0.003703, k = 0.311812
        16        21        22     1      119.668861      323.012512    ;  uncertainty theta = 0.009862, k = 0.668304
        17        16        21     1      118.657333      362.619739    ;  uncertainty theta = 0.004612, k = 0.362834
        17        18        19     1      118.268311      445.304685    ;  uncertainty theta = 0.004478, k = 0.098123
        18        17        40     1      116.579346      347.314743    ;  uncertainty theta = 0.005152, k = 0.066004
        18        19        20     1      122.431076      677.632432    ;  uncertainty theta = 0.002046, k = 0.093657
        18        19        41     1      116.840332      340.667018    ;  uncertainty theta = 0.001197, k = 0.068775
        19        20        21     1      118.808189      483.994172    ;  uncertainty theta = 0.004991, k = 0.079007
        19        20        42     1      122.214798      277.736813    ;  uncertainty theta = 0.004016, k = 0.070187
        20        19        41     1      120.256363      277.546307    ;  uncertainty theta = 0.002265, k = 0.082403
        20        21        22     1      114.589767      352.518918    ;  uncertainty theta = 0.008187, k = 0.213541
        21        20        42     1      119.535904      260.121156    ;  uncertainty theta = 0.004889, k = 0.124125
        21        22        23     1      112.903687      607.682204    ;  uncertainty theta = 0.002869, k = 0.171145
        21        22        24     1      112.903687      607.682204    ;  uncertainty theta = 0.002869, k = 0.171145
        21        22        25     1      104.371536      610.740911    ;  uncertainty theta = 0.002610, k = 0.101867
        22        25        43     1      107.113976      366.636120    ;  uncertainty theta = 0.002061, k = 0.075109
        22        25        44     1      107.113976      366.636120    ;  uncertainty theta = 0.002061, k = 0.075109
        22        25        45     1      107.113976      366.636120    ;  uncertainty theta = 0.002061, k = 0.075109
        23        22        24     1      123.473061      838.268448    ;  uncertainty theta = 0.001927, k = 0.047858
        23        22        25     1      112.603317      748.419512    ;  uncertainty theta = 0.000730, k = 0.122171
        24        22        25     1      112.603317      748.419512    ;  uncertainty theta = 0.000730, k = 0.122171
        26        14        38     1      119.763992      290.966951    ;  uncertainty theta = 0.001203, k = 0.049204
        26        27        28     1      116.425293      346.065818    ;  uncertainty theta = 0.006132, k = 0.087459
        27        13        37     1      118.333298      271.796467    ;  uncertainty theta = 0.003092, k = 0.046824
        27        26        46     1      118.333298      271.796435    ;  uncertainty theta = 0.003092, k = 0.046824
        27        28        29     1      113.114883      672.502155    ;  uncertainty theta = 0.002275, k = 0.031801
        27        28        30     1      113.114883      672.502155    ;  uncertainty theta = 0.002275, k = 0.031801
        27        28        31     1      113.114883      672.502155    ;  uncertainty theta = 0.002275, k = 0.031801
        29        28        30     1      107.636398      790.642632    ;  uncertainty theta = 0.001905, k = 0.020858
        29        28        31     1      107.636398      790.642632    ;  uncertainty theta = 0.001905, k = 0.020858
        30        28        31     1      107.636398      790.642632    ;  uncertainty theta = 0.001905, k = 0.020858
        43        25        44     1      108.843689      296.191780    ;  uncertainty theta = 0.002069, k = 0.023129
        43        25        45     1      108.843689      296.191780    ;  uncertainty theta = 0.002069, k = 0.023129
        44        25        45     1      108.843689      296.191780    ;  uncertainty theta = 0.002069, k = 0.023129

[ dihedrals ] ; propers for gromacs 4.5 or higher, use funct 9
;       ai        aj        ak        al funct           phase               k        pn
         1         4         3         2     9        0.000000       -0.075628         1    ;  uncertainty k = 0.305331
         1         4         3         2     9      180.000000        6.253897         2    ;  uncertainty k = 1.000823
         1         4         3         2     9        0.000000        0.293640         3    ;  uncertainty k = 0.228898
         1         4         3         2     9      180.000000        1.346626         4    ;  uncertainty k = 0.321119
         1         4         3        15     9        0.000000        0.296471         1    ;  uncertainty k = 0.693342
         1         4         3        15     9      180.000000        7.652700         2    ;  uncertainty k = 0.529987
         1         4         3        15     9        0.000000        0.796535         3    ;  uncertainty k = 0.272677
         1         4         3        15     9      180.000000        1.628908         4    ;  uncertainty k = 0.124999
         1         6         5         2     9        0.000000       -0.701302         1    ;  uncertainty k = 0.525101
         1         6         5         2     9      180.000000        4.604524         2    ;  uncertainty k = 1.549066
         1         6         5         2     9        0.000000        0.267393         3    ;  uncertainty k = 0.304996
         1         6         5         2     9      180.000000        1.238640         4    ;  uncertainty k = 0.355678
         1         6         5        10     9        0.000000       -0.304970         1    ;  uncertainty k = 0.682229
         1         6         5        10     9      180.000000        5.022747         2    ;  uncertainty k = 1.152438
         1         6         5        10     9        0.000000        0.082087         3    ;  uncertainty k = 0.372244
         1         6         5        10     9      180.000000        1.327637         4    ;  uncertainty k = 0.224200
         1         6         7         8     9        0.000000       -0.222227         1    ;  uncertainty k = 0.574841
         1         6         7         8     9      180.000000       12.387304         2    ;  uncertainty k = 0.592302
         1         6         7         8     9        0.000000        2.040852         3    ;  uncertainty k = 0.339494
         1         6         7         8     9      180.000000        1.325866         4    ;  uncertainty k = 0.192142
         1        11        12        13     9        0.000000        0.028607         1    ;  uncertainty k = 0.495110
         1        11        12        13     9      180.000000        8.507990         2    ;  uncertainty k = 0.788460
         1        11        12        13     9        0.000000        1.301104         3    ;  uncertainty k = 0.344228
         1        11        12        13     9      180.000000        1.874849         4    ;  uncertainty k = 0.179841
         1        11        12        36     9        0.000000       -0.123082         1    ;  uncertainty k = 0.128522
         1        11        12        36     9      180.000000        7.339104         2    ;  uncertainty k = 0.407879
         1        11        12        36     9        0.000000        0.822107         3    ;  uncertainty k = 0.239155
         1        11        12        36     9      180.000000        1.208752         4    ;  uncertainty k = 0.198496
         1        11        14        26     9        0.000000        0.028608         1    ;  uncertainty k = 0.495110
         1        11        14        26     9      180.000000        8.507987         2    ;  uncertainty k = 0.788459
         1        11        14        26     9        0.000000        1.301104         3    ;  uncertainty k = 0.344229
         1        11        14        26     9      180.000000        1.874850         4    ;  uncertainty k = 0.179840
         1        11        14        38     9        0.000000       -0.123082         1    ;  uncertainty k = 0.128522
         1        11        14        38     9      180.000000        7.339104         2    ;  uncertainty k = 0.407879
         1        11        14        38     9        0.000000        0.822107         3    ;  uncertainty k = 0.239155
         1        11        14        38     9      180.000000        1.208752         4    ;  uncertainty k = 0.198496
         2         3         4        33     9        0.000000        0.237751         1    ;  uncertainty k = 0.407272
         2         3         4        33     9      180.000000        5.911712         2    ;  uncertainty k = 0.917305
         2         3         4        33     9        0.000000        1.143639         3    ;  uncertainty k = 0.150774
         2         3         4        33     9      180.000000        1.435209         4    ;  uncertainty k = 0.269147
         2         3        15        16     9        0.000000        2.391292         1    ;  uncertainty k = 0.927258
         2         3        15        16     9      180.000000        5.627189         2    ;  uncertainty k = 0.345908
         2         3        15        16     9        0.000000        0.130796         3    ;  uncertainty k = 0.275597
         2         3        15        16     9      180.000000        0.108068         4    ;  uncertainty k = 0.070781
         2         3        15        39     9        0.000000        3.714210         1    ;  uncertainty k = 1.019186
         2         3        15        39     9      180.000000        4.537149         2    ;  uncertainty k = 0.136539
         2         3        15        39     9        0.000000        0.421528         3    ;  uncertainty k = 0.226094
         2         3        15        39     9      180.000000       -0.068003         4    ;  uncertainty k = 0.067047
         2         5         6         7     9        0.000000        0.075716         1    ;  uncertainty k = 0.292414
         2         5         6         7     9      180.000000        6.076566         2    ;  uncertainty k = 1.157135
         2         5         6         7     9        0.000000        0.106412         3    ;  uncertainty k = 0.161666
         2         5         6         7     9      180.000000        1.371570         4    ;  uncertainty k = 0.407671
         2         5        10         9     9        0.000000        0.427932         1    ;  uncertainty k = 1.029214
         2         5        10         9     9      180.000000       12.638436         2    ;  uncertainty k = 0.318597
         2         5        10         9     9        0.000000        2.227131         3    ;  uncertainty k = 0.470956
         2         5        10         9     9      180.000000        1.437848         4    ;  uncertainty k = 0.260470
         3         2         5         6     9        0.000000        0.124777         1    ;  uncertainty k = 0.469634
         3         2         5         6     9      180.000000        7.210380         2    ;  uncertainty k = 0.798365
         3         2         5         6     9        0.000000        0.036788         3    ;  uncertainty k = 0.281313
         3         2         5         6     9      180.000000        1.290165         4    ;  uncertainty k = 0.270790
         3         2         5        10     9        0.000000        0.146697         1    ;  uncertainty k = 0.428362
         3         2         5        10     9      180.000000        9.787397         2    ;  uncertainty k = 0.378069
         3         2         5        10     9        0.000000        0.568644         3    ;  uncertainty k = 0.286792
         3         2         5        10     9      180.000000        1.391199         4    ;  uncertainty k = 0.231273
         3         4         1         6     9        0.000000        0.028440         1    ;  uncertainty k = 0.535400
         3         4         1         6     9      180.000000       12.587037         2    ;  uncertainty k = 0.439271
         3         4         1         6     9        0.000000        0.368729         3    ;  uncertainty k = 0.238226
         3         4         1         6     9      180.000000        1.264935         4    ;  uncertainty k = 0.331376
         3         4         1        11     9        0.000000        0.178918         1    ;  uncertainty k = 0.165898
         3         4         1        11     9      180.000000       10.487765         2    ;  uncertainty k = 0.661366
         3         4         1        11     9        0.000000        1.344372         3    ;  uncertainty k = 0.278889
         3         4         1        11     9      180.000000        1.699396         4    ;  uncertainty k = 0.292671
         3        15        16        17     9        0.000000        4.219814         1    ;  uncertainty k = 1.204826
         3        15        16        17     9      180.000000        5.915026         2    ;  uncertainty k = 0.485741
         3        15        16        17     9        0.000000        0.506820         3    ;  uncertainty k = 0.114706
         3        15        16        17     9      180.000000        0.021030         4    ;  uncertainty k = 0.159761
         3        15        16        21     9        0.000000        0.589932         1    ;  uncertainty k = 1.531193
         3        15        16        21     9      180.000000        8.272739         2    ;  uncertainty k = 0.309915
         3        15        16        21     9        0.000000       -0.349199         3    ;  uncertainty k = 0.585019
         3        15        16        21     9      180.000000        0.078445         4    ;  uncertainty k = 0.210861
         4         1         6         5     9        0.000000       -0.087575         1    ;  uncertainty k = 0.452976
         4         1         6         5     9      180.000000        5.837417         2    ;  uncertainty k = 1.026369
         4         1         6         5     9        0.000000        0.071142         3    ;  uncertainty k = 0.281857
         4         1         6         5     9      180.000000        0.984532         4    ;  uncertainty k = 0.335452
         4         1         6         7     9        0.000000        0.253859         1    ;  uncertainty k = 0.569959
         4         1         6         7     9      180.000000        6.920319         2    ;  uncertainty k = 0.838555
         4         1         6         7     9        0.000000        0.373440         3    ;  uncertainty k = 0.324682
         4         1         6         7     9      180.000000        1.149414         4    ;  uncertainty k = 0.333131
         4         1        11        12     9        0.000000       -0.256433         1    ;  uncertainty k = 0.397034
         4         1        11        12     9      180.000000        5.398251         2    ;  uncertainty k = 0.217281
         4         1        11        12     9        0.000000        0.433018         3    ;  uncertainty k = 0.152649
         4         1        11        12     9      180.000000        0.487727         4    ;  uncertainty k = 0.095204
         4         1        11        14     9        0.000000       -0.256433         1    ;  uncertainty k = 0.397034
         4         1        11        14     9      180.000000        5.398251         2    ;  uncertainty k = 0.217281
         4         1        11        14     9        0.000000        0.433018         3    ;  uncertainty k = 0.152649
         4         1        11        14     9      180.000000        0.487727         4    ;  uncertainty k = 0.095204
         4         3         2         5     9        0.000000       -0.230094         1    ;  uncertainty k = 0.193613
         4         3         2         5     9      180.000000        9.799482         2    ;  uncertainty k = 0.334539
         4         3         2         5     9        0.000000        0.322865         3    ;  uncertainty k = 0.471328
         4         3         2         5     9      180.000000        1.352621         4    ;  uncertainty k = 0.303410
         4         3         2        32     9        0.000000        0.271865         1    ;  uncertainty k = 0.395472
         4         3         2        32     9      180.000000        7.009638         2    ;  uncertainty k = 0.650819
         4         3         2        32     9        0.000000        1.296696         3    ;  uncertainty k = 0.117301
         4         3         2        32     9      180.000000        1.627549         4    ;  uncertainty k = 0.152794
         4         3        15        16     9        0.000000        2.703023         1    ;  uncertainty k = 1.093474
         4         3        15        16     9      180.000000        5.646721         2    ;  uncertainty k = 0.287758
         4         3        15        16     9        0.000000        0.628331         3    ;  uncertainty k = 0.301753
         4         3        15        16     9      180.000000        0.075594         4    ;  uncertainty k = 0.163630
         4         3        15        39     9        0.000000        3.315350         1    ;  uncertainty k = 0.856350
         4         3        15        39     9      180.000000        4.508871         2    ;  uncertainty k = 0.528167
         4         3        15        39     9        0.000000        0.509564         3    ;  uncertainty k = 0.257911
         4         3        15        39     9      180.000000       -0.046361         4    ;  uncertainty k = 0.122570
         5         2         3        15     9        0.000000       -0.189602         1    ;  uncertainty k = 0.394616
         5         2         3        15     9      180.000000       11.233636         2    ;  uncertainty k = 0.435508
         5         2         3        15     9        0.000000        0.975271         3    ;  uncertainty k = 0.174800
         5         2         3        15     9      180.000000        1.594279         4    ;  uncertainty k = 0.138017
         5         6         1        11     9        0.000000        0.057012         1    ;  uncertainty k = 0.806824
         5         6         1        11     9      180.000000        4.971756         2    ;  uncertainty k = 0.553690
         5         6         1        11     9        0.000000        1.031184         3    ;  uncertainty k = 0.229537
         5         6         1        11     9      180.000000        1.247075         4    ;  uncertainty k = 0.341512
         5         6         7         8     9        0.000000       -0.121918         1    ;  uncertainty k = 0.899148
         5         6         7         8     9      180.000000       11.592838         2    ;  uncertainty k = 0.635161
         5         6         7         8     9        0.000000        1.459268         3    ;  uncertainty k = 0.284518
         5         6         7         8     9      180.000000        1.335516         4    ;  uncertainty k = 0.320568
         5        10         9         8     9        0.000000        0.013311         1    ;  uncertainty k = 0.131653
         5        10         9         8     9      180.000000       17.231919         2    ;  uncertainty k = 0.196674
         5        10         9         8     9        0.000000        0.888029         3    ;  uncertainty k = 0.629562
         5        10         9         8     9      180.000000        1.519865         4    ;  uncertainty k = 0.234840
         5        10         9        35     9        0.000000        0.424411         1    ;  uncertainty k = 0.517708
         5        10         9        35     9      180.000000       19.045700         2    ;  uncertainty k = 0.443936
         5        10         9        35     9        0.000000        2.354564         3    ;  uncertainty k = 0.582721
         5        10         9        35     9      180.000000        1.407429         4    ;  uncertainty k = 0.336465
         6         1         4        33     9        0.000000        0.112661         1    ;  uncertainty k = 0.266544
         6         1         4        33     9      180.000000        9.631938         2    ;  uncertainty k = 0.356324
         6         1         4        33     9        0.000000        1.471050         3    ;  uncertainty k = 0.157141
         6         1         4        33     9      180.000000        1.666633         4    ;  uncertainty k = 0.167434
         6         1        11        12     9        0.000000        0.358254         1    ;  uncertainty k = 0.626209
         6         1        11        12     9      180.000000        4.978773         2    ;  uncertainty k = 0.348558
         6         1        11        12     9        0.000000        0.390285         3    ;  uncertainty k = 0.340958
         6         1        11        12     9      180.000000        0.711006         4    ;  uncertainty k = 0.051358
         6         1        11        14     9        0.000000        0.358254         1    ;  uncertainty k = 0.626209
         6         1        11        14     9      180.000000        4.978773         2    ;  uncertainty k = 0.348558
         6         1        11        14     9        0.000000        0.390285         3    ;  uncertainty k = 0.340958
         6         1        11        14     9      180.000000        0.711006         4    ;  uncertainty k = 0.051358
         6         5         2        32     9        0.000000       -0.227944         1    ;  uncertainty k = 0.343151
         6         5         2        32     9      180.000000        5.855722         2    ;  uncertainty k = 0.873789
         6         5         2        32     9        0.000000        1.201888         3    ;  uncertainty k = 0.161541
         6         5         2        32     9      180.000000        1.243551         4    ;  uncertainty k = 0.340266
         6         5        10         9     9        0.000000       -0.066074         1    ;  uncertainty k = 1.326543
         6         5        10         9     9      180.000000       10.119061         2    ;  uncertainty k = 0.624084
         6         5        10         9     9        0.000000        1.274776         3    ;  uncertainty k = 0.483533
         6         5        10         9     9      180.000000        1.288278         4    ;  uncertainty k = 0.224413
         6         7         8         9     9        0.000000        0.032700         1    ;  uncertainty k = 0.371842
         6         7         8         9     9      180.000000       16.595219         2    ;  uncertainty k = 0.331031
         6         7         8         9     9        0.000000        0.830940         3    ;  uncertainty k = 0.755157
         6         7         8         9     9      180.000000        1.569816         4    ;  uncertainty k = 0.254727
         6         7         8        34     9        0.000000        0.273195         1    ;  uncertainty k = 0.534605
         6         7         8        34     9      180.000000       18.195196         2    ;  uncertainty k = 0.528958
         6         7         8        34     9        0.000000        2.346360         3    ;  uncertainty k = 0.656567
         6         7         8        34     9      180.000000        1.630137         4    ;  uncertainty k = 0.414697
         7         6         1        11     9        0.000000        0.151897         1    ;  uncertainty k = 1.257613
         7         6         1        11     9      180.000000        7.317285         2    ;  uncertainty k = 0.655387
         7         6         1        11     9        0.000000        0.768867         3    ;  uncertainty k = 0.536918
         7         6         1        11     9      180.000000        1.167025         4    ;  uncertainty k = 0.254487
         7         6         5        10     9        0.000000       -0.400758         1    ;  uncertainty k = 0.893249
         7         6         5        10     9      180.000000        7.082848         2    ;  uncertainty k = 0.717739
         7         6         5        10     9        0.000000        0.077325         3    ;  uncertainty k = 0.333985
         7         6         5        10     9      180.000000        1.332378         4    ;  uncertainty k = 0.355974
         7         8         9        10     9        0.000000       -0.202866         1    ;  uncertainty k = 0.782206
         7         8         9        10     9      180.000000       12.112991         2    ;  uncertainty k = 0.805807
         7         8         9        10     9        0.000000       -1.599825         3    ;  uncertainty k = 0.569696
         7         8         9        10     9      180.000000        0.918172         4    ;  uncertainty k = 0.463986
         7         8         9        35     9        0.000000        0.036887         1    ;  uncertainty k = 0.700692
         7         8         9        35     9      180.000000        6.513920         2    ;  uncertainty k = 1.135261
         7         8         9        35     9        0.000000        0.521732         3    ;  uncertainty k = 0.385188
         7         8         9        35     9      180.000000        1.117821         4    ;  uncertainty k = 0.330142
        10         5         2        32     9        0.000000        0.139927         1    ;  uncertainty k = 0.233388
        10         5         2        32     9      180.000000        8.199302         2    ;  uncertainty k = 0.492393
        10         5         2        32     9        0.000000        1.032825         3    ;  uncertainty k = 0.329116
        10         5         2        32     9      180.000000        1.219854         4    ;  uncertainty k = 0.291231
        10         9         8        34     9        0.000000       -0.033262         1    ;  uncertainty k = 0.634830
        10         9         8        34     9      180.000000        6.504272         2    ;  uncertainty k = 1.136878
        10         9         8        34     9        0.000000        0.521238         3    ;  uncertainty k = 0.433609
        10         9         8        34     9      180.000000        1.070757         4    ;  uncertainty k = 0.343719
        11         1         4        33     9        0.000000        0.150521         1    ;  uncertainty k = 0.257893
        11         1         4        33     9      180.000000        8.506221         2    ;  uncertainty k = 0.269368
        11         1         4        33     9        0.000000        1.031284         3    ;  uncertainty k = 0.150544
        11         1         4        33     9      180.000000        1.392268         4    ;  uncertainty k = 0.293606
        11        12        13        27     9        0.000000       -0.140300         1    ;  uncertainty k = 0.464300
        11        12        13        27     9      180.000000       13.166122         2    ;  uncertainty k = 0.106249
        11        12        13        27     9        0.000000       -0.614430         3    ;  uncertainty k = 0.301566
        11        12        13        27     9      180.000000        0.820801         4    ;  uncertainty k = 0.255247
        11        12        13        37     9        0.000000       -0.046231         1    ;  uncertainty k = 0.090971
        11        12        13        37     9      180.000000        8.008778         2    ;  uncertainty k = 0.386329
        11        12        13        37     9        0.000000        1.257858         3    ;  uncertainty k = 0.251358
        11        12        13        37     9      180.000000        1.808011         4    ;  uncertainty k = 0.145830
        11        14        26        27     9        0.000000       -0.140299         1    ;  uncertainty k = 0.464299
        11        14        26        27     9      180.000000       13.166122         2    ;  uncertainty k = 0.106249
        11        14        26        27     9        0.000000       -0.614430         3    ;  uncertainty k = 0.301566
        11        14        26        27     9      180.000000        0.820801         4    ;  uncertainty k = 0.255247
        11        14        26        46     9        0.000000       -0.046231         1    ;  uncertainty k = 0.090971
        11        14        26        46     9      180.000000        8.008778         2    ;  uncertainty k = 0.386330
        11        14        26        46     9        0.000000        1.257858         3    ;  uncertainty k = 0.251358
        11        14        26        46     9      180.000000        1.808011         4    ;  uncertainty k = 0.145830
        12        11        14        26     9        0.000000        0.074505         1    ;  uncertainty k = 0.135926
        12        11        14        26     9      180.000000       11.332208         2    ;  uncertainty k = 0.251217
        12        11        14        26     9        0.000000       -0.453855         3    ;  uncertainty k = 0.198721
        12        11        14        26     9      180.000000        0.906076         4    ;  uncertainty k = 0.264593
        12        11        14        38     9        0.000000        0.310938         1    ;  uncertainty k = 0.202325
        12        11        14        38     9      180.000000        7.195232         2    ;  uncertainty k = 0.556788
        12        11        14        38     9        0.000000        1.401106         3    ;  uncertainty k = 0.143904
        12        11        14        38     9      180.000000        1.629646         4    ;  uncertainty k = 0.263114
        12        13        27        26     9        0.000000       -0.079646         1    ;  uncertainty k = 0.188351
        12        13        27        26     9      180.000000       12.057160         2    ;  uncertainty k = 0.419416
        12        13        27        26     9        0.000000       -0.695771         3    ;  uncertainty k = 0.407889
        12        13        27        26     9      180.000000        0.771218         4    ;  uncertainty k = 0.428678
        12        13        27        28     9        0.000000        0.076764         1    ;  uncertainty k = 0.161147
        12        13        27        28     9      180.000000        9.915938         2    ;  uncertainty k = 0.823834
        12        13        27        28     9        0.000000        1.557792         3    ;  uncertainty k = 0.291576
        12        13        27        28     9      180.000000        1.930541         4    ;  uncertainty k = 0.390549
        13        12        11        14     9        0.000000        0.074505         1    ;  uncertainty k = 0.135924
        13        12        11        14     9      180.000000       11.332209         2    ;  uncertainty k = 0.251217
        13        12        11        14     9        0.000000       -0.453855         3    ;  uncertainty k = 0.198720
        13        12        11        14     9      180.000000        0.906076         4    ;  uncertainty k = 0.264593
        13        27        26        14     9        0.000000       -0.079648         1    ;  uncertainty k = 0.188350
        13        27        26        14     9      180.000000       12.057159         2    ;  uncertainty k = 0.419417
        13        27        26        14     9        0.000000       -0.695772         3    ;  uncertainty k = 0.407890
        13        27        26        14     9      180.000000        0.771218         4    ;  uncertainty k = 0.428677
        13        27        26        46     9        0.000000        0.169094         1    ;  uncertainty k = 0.198067
        13        27        26        46     9      180.000000        7.307129         2    ;  uncertainty k = 0.343050
        13        27        26        46     9        0.000000        1.342095         3    ;  uncertainty k = 0.422575
        13        27        26        46     9      180.000000        1.641164         4    ;  uncertainty k = 0.263367
        13        27        28        29     9        0.000000       -0.680754         1    ;  uncertainty k = 0.365045
        13        27        28        29     9      180.000000        2.772178         2    ;  uncertainty k = 0.048071
        13        27        28        29     9        0.000000        0.718439         3    ;  uncertainty k = 0.029548
        13        27        28        29     9      180.000000        0.156075         4    ;  uncertainty k = 0.059314
        13        27        28        30     9        0.000000       -0.680754         1    ;  uncertainty k = 0.365045
        13        27        28        30     9      180.000000        2.772178         2    ;  uncertainty k = 0.048071
        13        27        28        30     9        0.000000        0.718439         3    ;  uncertainty k = 0.029548
        13        27        28        30     9      180.000000        0.156075         4    ;  uncertainty k = 0.059314
        13        27        28        31     9        0.000000       -0.680754         1    ;  uncertainty k = 0.365045
        13        27        28        31     9      180.000000        2.772178         2    ;  uncertainty k = 0.048071
        13        27        28        31     9        0.000000        0.718439         3    ;  uncertainty k = 0.029548
        13        27        28        31     9      180.000000        0.156075         4    ;  uncertainty k = 0.059314
        14        11        12        36     9        0.000000        0.310938         1    ;  uncertainty k = 0.202325
        14        11        12        36     9      180.000000        7.195232         2    ;  uncertainty k = 0.556788
        14        11        12        36     9        0.000000        1.401106         3    ;  uncertainty k = 0.143904
        14        11        12        36     9      180.000000        1.629646         4    ;  uncertainty k = 0.263114
        14        26        27        28     9        0.000000        0.076764         1    ;  uncertainty k = 0.161150
        14        26        27        28     9      180.000000        9.915940         2    ;  uncertainty k = 0.823834
        14        26        27        28     9        0.000000        1.557792         3    ;  uncertainty k = 0.291577
        14        26        27        28     9      180.000000        1.930541         4    ;  uncertainty k = 0.390548
        15         3         2        32     9        0.000000       -0.570256         1    ;  uncertainty k = 0.225437
        15         3         2        32     9      180.000000        8.036469         2    ;  uncertainty k = 0.539841
        15         3         2        32     9        0.000000        0.826404         3    ;  uncertainty k = 0.259178
        15         3         2        32     9      180.000000        1.188346         4    ;  uncertainty k = 0.226655
        15         3         4        33     9        0.000000       -0.452049         1    ;  uncertainty k = 0.327503
        15         3         4        33     9      180.000000        6.961909         2    ;  uncertainty k = 0.390567
        15         3         4        33     9        0.000000        0.803667         3    ;  uncertainty k = 0.225958
        15         3         4        33     9      180.000000        1.176718         4    ;  uncertainty k = 0.121576
        15        16        17        18     9        0.000000        0.284522         1    ;  uncertainty k = 0.937481
        15        16        17        18     9      180.000000        8.701419         2    ;  uncertainty k = 0.854399
        15        16        17        18     9        0.000000        0.836725         3    ;  uncertainty k = 0.185927
        15        16        17        18     9      180.000000        1.496108         4    ;  uncertainty k = 0.299674
        15        16        17        40     9        0.000000        0.007093         1    ;  uncertainty k = 0.499750
        15        16        17        40     9      180.000000        5.972503         2    ;  uncertainty k = 0.983101
        15        16        17        40     9        0.000000        0.942185         3    ;  uncertainty k = 0.273147
        15        16        17        40     9      180.000000        1.158934         4    ;  uncertainty k = 0.246634
        15        16        21        20     9        0.000000       -0.020825         1    ;  uncertainty k = 0.416437
        15        16        21        20     9      180.000000        7.821352         2    ;  uncertainty k = 0.442940
        15        16        21        20     9        0.000000        1.029527         3    ;  uncertainty k = 0.210995
        15        16        21        20     9      180.000000        1.524188         4    ;  uncertainty k = 0.257372
        15        16        21        22     9        0.000000       -0.506013         1    ;  uncertainty k = 0.475729
        15        16        21        22     9      180.000000        7.636455         2    ;  uncertainty k = 0.878998
        15        16        21        22     9        0.000000        1.159105         3    ;  uncertainty k = 0.332203
        15        16        21        22     9      180.000000        1.400877         4    ;  uncertainty k = 0.254665
        16        17        18        19     9        0.000000        0.036596         1    ;  uncertainty k = 0.371494
        16        17        18        19     9      180.000000       16.597051         2    ;  uncertainty k = 0.304805
        16        17        18        19     9        0.000000        0.966622         3    ;  uncertainty k = 0.517836
        16        17        18        19     9      180.000000        1.451098         4    ;  uncertainty k = 0.177715
        16        21        20        19     9        0.000000       -0.265670         1    ;  uncertainty k = 0.419232
        16        21        20        19     9      180.000000       10.460451         2    ;  uncertainty k = 0.389563
        16        21        20        19     9        0.000000       -0.366509         3    ;  uncertainty k = 0.514479
        16        21        20        19     9      180.000000        0.929899         4    ;  uncertainty k = 0.330295
        16        21        20        42     9        0.000000        0.238370         1    ;  uncertainty k = 0.382236
        16        21        20        42     9      180.000000        7.525225         2    ;  uncertainty k = 0.903253
        16        21        20        42     9        0.000000        1.267263         3    ;  uncertainty k = 0.290614
        16        21        20        42     9      180.000000        1.474858         4    ;  uncertainty k = 0.123421
        16        21        22        23     9        0.000000       -5.228555         1    ;  uncertainty k = 2.158654
        16        21        22        23     9      180.000000       -0.861345         2    ;  uncertainty k = 0.805163
        16        21        22        23     9        0.000000        1.201042         3    ;  uncertainty k = 0.425532
        16        21        22        23     9      180.000000       -0.042324         4    ;  uncertainty k = 0.375368
        16        21        22        24     9        0.000000       -5.228555         1    ;  uncertainty k = 2.158654
        16        21        22        24     9      180.000000       -0.861345         2    ;  uncertainty k = 0.805163
        16        21        22        24     9        0.000000        1.201042         3    ;  uncertainty k = 0.425532
        16        21        22        24     9      180.000000       -0.042324         4    ;  uncertainty k = 0.375368
        16        21        22        25     9        0.000000        0.262419         1    ;  uncertainty k = 1.833672
        16        21        22        25     9      180.000000       -1.026928         2    ;  uncertainty k = 0.798423
        16        21        22        25     9        0.000000        0.956202         3    ;  uncertainty k = 0.348086
        16        21        22        25     9      180.000000        0.178350         4    ;  uncertainty k = 0.195566
        17        16        15        39     9        0.000000        0.917544         1    ;  uncertainty k = 1.463600
        17        16        15        39     9      180.000000        4.182458         2    ;  uncertainty k = 0.765144
        17        16        15        39     9        0.000000       -0.106077         3    ;  uncertainty k = 0.498483
        17        16        15        39     9      180.000000       -0.220151         4    ;  uncertainty k = 0.253379
        17        16        21        20     9        0.000000       -0.438834         1    ;  uncertainty k = 0.840319
        17        16        21        20     9      180.000000        4.610450         2    ;  uncertainty k = 1.641699
        17        16        21        20     9        0.000000        0.358135         3    ;  uncertainty k = 0.323563
        17        16        21        20     9      180.000000        1.351096         4    ;  uncertainty k = 0.315698
        17        16        21        22     9        0.000000        0.917642         1    ;  uncertainty k = 0.634888
        17        16        21        22     9      180.000000        4.793053         2    ;  uncertainty k = 1.087368
        17        16        21        22     9        0.000000        1.108846         3    ;  uncertainty k = 0.290817
        17        16        21        22     9      180.000000        1.561541         4    ;  uncertainty k = 0.342192
        17        18        19        20     9        0.000000       -0.485016         1    ;  uncertainty k = 0.425215
        17        18        19        20     9      180.000000       15.189731         2    ;  uncertainty k = 0.461239
        17        18        19        20     9        0.000000        1.127628         3    ;  uncertainty k = 0.661679
        17        18        19        20     9      180.000000        1.285431         4    ;  uncertainty k = 0.097277
        17        18        19        41     9        0.000000        0.172532         1    ;  uncertainty k = 0.566096
        17        18        19        41     9      180.000000       15.445790         2    ;  uncertainty k = 0.425751
        17        18        19        41     9        0.000000        2.152702         3    ;  uncertainty k = 0.508048
        17        18        19        41     9      180.000000        1.381411         4    ;  uncertainty k = 0.359273
        18        17        16        21     9        0.000000       -0.562844         1    ;  uncertainty k = 0.540738
        18        17        16        21     9      180.000000        6.748516         2    ;  uncertainty k = 1.268444
        18        17        16        21     9        0.000000        0.077078         3    ;  uncertainty k = 0.370451
        18        17        16        21     9      180.000000        1.216829         4    ;  uncertainty k = 0.295894
        18        19        20        21     9        0.000000       -0.252470         1    ;  uncertainty k = 0.431541
        18        19        20        21     9      180.000000       13.556324         2    ;  uncertainty k = 0.574918
        18        19        20        21     9        0.000000       -1.106331         3    ;  uncertainty k = 1.113055
        18        19        20        21     9      180.000000        0.952273         4    ;  uncertainty k = 0.151718
        18        19        20        42     9        0.000000       -0.068096         1    ;  uncertainty k = 0.262319
        18        19        20        42     9      180.000000        9.165641         2    ;  uncertainty k = 0.726880
        18        19        20        42     9        0.000000        0.979809         3    ;  uncertainty k = 0.350348
        18        19        20        42     9      180.000000        1.652653         4    ;  uncertainty k = 0.185846
        19        18        17        40     9        0.000000        0.508068         1    ;  uncertainty k = 0.686768
        19        18        17        40     9      180.000000       16.706316         2    ;  uncertainty k = 0.583289
        19        18        17        40     9        0.000000        2.361241         3    ;  uncertainty k = 0.235965
        19        18        17        40     9      180.000000        1.517602         4    ;  uncertainty k = 0.508263
        19        20        21        22     9        0.000000        0.601785         1    ;  uncertainty k = 0.840722
        19        20        21        22     9      180.000000        9.254868         2    ;  uncertainty k = 0.664789
        19        20        21        22     9        0.000000        1.560649         3    ;  uncertainty k = 0.502422
        19        20        21        22     9      180.000000        1.838812         4    ;  uncertainty k = 0.146620
        20        21        22        23     9        0.000000       -0.492326         1    ;  uncertainty k = 1.108210
        20        21        22        23     9      180.000000        0.135604         2    ;  uncertainty k = 0.455039
        20        21        22        23     9        0.000000        0.177824         3    ;  uncertainty k = 0.237275
        20        21        22        23     9      180.000000        0.012962         4    ;  uncertainty k = 0.209193
        20        21        22        24     9        0.000000       -0.492326         1    ;  uncertainty k = 1.108210
        20        21        22        24     9      180.000000        0.135604         2    ;  uncertainty k = 0.455039
        20        21        22        24     9        0.000000        0.177824         3    ;  uncertainty k = 0.237275
        20        21        22        24     9      180.000000        0.012962         4    ;  uncertainty k = 0.209193
        20        21        22        25     9        0.000000        3.406872         1    ;  uncertainty k = 1.708514
        20        21        22        25     9      180.000000        0.171419         2    ;  uncertainty k = 0.576994
        20        21        22        25     9        0.000000       -0.078308         3    ;  uncertainty k = 0.399032
        20        21        22        25     9      180.000000        0.444415         4    ;  uncertainty k = 0.155672
        21        16        15        39     9        0.000000        9.262100         1    ;  uncertainty k = 0.773179
        21        16        15        39     9      180.000000        3.945832         2    ;  uncertainty k = 0.536445
        21        16        15        39     9        0.000000        0.752572         3    ;  uncertainty k = 0.273740
        21        16        15        39     9      180.000000       -0.119638         4    ;  uncertainty k = 0.176171
        21        16        17        40     9        0.000000        0.000816         1    ;  uncertainty k = 1.384589
        21        16        17        40     9      180.000000        4.685090         2    ;  uncertainty k = 1.110639
        21        16        17        40     9        0.000000        1.104676         3    ;  uncertainty k = 0.238511
        21        16        17        40     9      180.000000        1.089444         4    ;  uncertainty k = 0.205054
        21        20        19        41     9        0.000000       -0.148525         1    ;  uncertainty k = 0.589763
        21        20        19        41     9      180.000000        6.244193         2    ;  uncertainty k = 0.249576
        21        20        19        41     9        0.000000        1.014104         3    ;  uncertainty k = 0.237437
        21        20        19        41     9      180.000000        1.497615         4    ;  uncertainty k = 0.181166
        21        22        25        43     9        0.000000        2.345204         1    ;  uncertainty k = 0.643496
        21        22        25        43     9      180.000000       -2.433990         2    ;  uncertainty k = 0.375724
        21        22        25        43     9        0.000000        0.170343         3    ;  uncertainty k = 0.101207
        21        22        25        43     9      180.000000        0.001305         4    ;  uncertainty k = 0.149206
        21        22        25        44     9        0.000000        2.345204         1    ;  uncertainty k = 0.643496
        21        22        25        44     9      180.000000       -2.433990         2    ;  uncertainty k = 0.375724
        21        22        25        44     9        0.000000        0.170343         3    ;  uncertainty k = 0.101207
        21        22        25        44     9      180.000000        0.001305         4    ;  uncertainty k = 0.149206
        21        22        25        45     9        0.000000        2.345204         1    ;  uncertainty k = 0.643496
        21        22        25        45     9      180.000000       -2.433990         2    ;  uncertainty k = 0.375724
        21        22        25        45     9        0.000000        0.170343         3    ;  uncertainty k = 0.101207
        21        22        25        45     9      180.000000        0.001305         4    ;  uncertainty k = 0.149206
        22        21        20        42     9        0.000000       -0.424035         1    ;  uncertainty k = 0.616074
        22        21        20        42     9      180.000000        7.010378         2    ;  uncertainty k = 0.550571
        22        21        20        42     9        0.000000        0.781435         3    ;  uncertainty k = 0.169299
        22        21        20        42     9      180.000000        1.269235         4    ;  uncertainty k = 0.186787
        23        22        25        43     9        0.000000       -0.057641         1    ;  uncertainty k = 0.603700
        23        22        25        43     9      180.000000       -0.366449         2    ;  uncertainty k = 0.288160
        23        22        25        43     9        0.000000        0.801561         3    ;  uncertainty k = 0.057211
        23        22        25        43     9      180.000000        0.039211         4    ;  uncertainty k = 0.101280
        23        22        25        44     9        0.000000       -0.057641         1    ;  uncertainty k = 0.603700
        23        22        25        44     9      180.000000       -0.366449         2    ;  uncertainty k = 0.288160
        23        22        25        44     9        0.000000        0.801561         3    ;  uncertainty k = 0.057211
        23        22        25        44     9      180.000000        0.039211         4    ;  uncertainty k = 0.101280
        23        22        25        45     9        0.000000       -0.057641         1    ;  uncertainty k = 0.603700
        23        22        25        45     9      180.000000       -0.366449         2    ;  uncertainty k = 0.288160
        23        22        25        45     9        0.000000        0.801561         3    ;  uncertainty k = 0.057211
        23        22        25        45     9      180.000000        0.039211         4    ;  uncertainty k = 0.101280
        24        22        25        43     9        0.000000       -0.057641         1    ;  uncertainty k = 0.603700
        24        22        25        43     9      180.000000       -0.366449         2    ;  uncertainty k = 0.288160
        24        22        25        43     9        0.000000        0.801561         3    ;  uncertainty k = 0.057211
        24        22        25        43     9      180.000000        0.039211         4    ;  uncertainty k = 0.101280
        24        22        25        44     9        0.000000       -0.057641         1    ;  uncertainty k = 0.603700
        24        22        25        44     9      180.000000       -0.366449         2    ;  uncertainty k = 0.288160
        24        22        25        44     9        0.000000        0.801561         3    ;  uncertainty k = 0.057211
        24        22        25        44     9      180.000000        0.039211         4    ;  uncertainty k = 0.101280
        24        22        25        45     9        0.000000       -0.057641         1    ;  uncertainty k = 0.603700
        24        22        25        45     9      180.000000       -0.366449         2    ;  uncertainty k = 0.288160
        24        22        25        45     9        0.000000        0.801561         3    ;  uncertainty k = 0.057211
        24        22        25        45     9      180.000000        0.039211         4    ;  uncertainty k = 0.101280
        26        27        13        37     9        0.000000        0.169096         1    ;  uncertainty k = 0.198068
        26        27        13        37     9      180.000000        7.307130         2    ;  uncertainty k = 0.343049
        26        27        13        37     9        0.000000        1.342095         3    ;  uncertainty k = 0.422576
        26        27        13        37     9      180.000000        1.641164         4    ;  uncertainty k = 0.263367
        26        27        28        29     9        0.000000       -0.680754         1    ;  uncertainty k = 0.365044
        26        27        28        29     9      180.000000        2.772177         2    ;  uncertainty k = 0.048073
        26        27        28        29     9        0.000000        0.718439         3    ;  uncertainty k = 0.029548
        26        27        28        29     9      180.000000        0.156075         4    ;  uncertainty k = 0.059314
        26        27        28        30     9        0.000000       -0.680754         1    ;  uncertainty k = 0.365044
        26        27        28        30     9      180.000000        2.772177         2    ;  uncertainty k = 0.048073
        26        27        28        30     9        0.000000        0.718439         3    ;  uncertainty k = 0.029548
        26        27        28        30     9      180.000000        0.156075         4    ;  uncertainty k = 0.059314
        26        27        28        31     9        0.000000       -0.680754         1    ;  uncertainty k = 0.365044
        26        27        28        31     9      180.000000        2.772177         2    ;  uncertainty k = 0.048073
        26        27        28        31     9        0.000000        0.718439         3    ;  uncertainty k = 0.029548
        26        27        28        31     9      180.000000        0.156075         4    ;  uncertainty k = 0.059314
        27        13        12        36     9        0.000000        0.055498         1    ;  uncertainty k = 0.223125
        27        13        12        36     9      180.000000        8.024075         2    ;  uncertainty k = 0.331706
        27        13        12        36     9        0.000000        1.427752         3    ;  uncertainty k = 0.217432
        27        13        12        36     9      180.000000        1.846191         4    ;  uncertainty k = 0.208164
        27        26        14        38     9        0.000000        0.055498         1    ;  uncertainty k = 0.223125
        27        26        14        38     9      180.000000        8.024077         2    ;  uncertainty k = 0.331708
        27        26        14        38     9        0.000000        1.427752         3    ;  uncertainty k = 0.217432
        27        26        14        38     9      180.000000        1.846191         4    ;  uncertainty k = 0.208164
        28        27        13        37     9        0.000000       -0.064265         1    ;  uncertainty k = 0.333848
        28        27        13        37     9      180.000000        8.769278         2    ;  uncertainty k = 0.525460
        28        27        13        37     9        0.000000        0.634680         3    ;  uncertainty k = 0.233662
        28        27        13        37     9      180.000000        0.967674         4    ;  uncertainty k = 0.215608
        28        27        26        46     9        0.000000       -0.064267         1    ;  uncertainty k = 0.333848
        28        27        26        46     9      180.000000        8.769279         2    ;  uncertainty k = 0.525461
        28        27        26        46     9        0.000000        0.634681         3    ;  uncertainty k = 0.233663
        28        27        26        46     9      180.000000        0.967674         4    ;  uncertainty k = 0.215609
        34         8         9        35     9        0.000000       -0.152652         1    ;  uncertainty k = 0.805688
        34         8         9        35     9      180.000000        5.398109         2    ;  uncertainty k = 0.723628
        34         8         9        35     9        0.000000        0.147471         3    ;  uncertainty k = 0.248173
        34         8         9        35     9      180.000000        0.216442         4    ;  uncertainty k = 0.153410
        36        12        13        37     9        0.000000       -0.078118         1    ;  uncertainty k = 0.156003
        36        12        13        37     9      180.000000        7.979659         2    ;  uncertainty k = 0.382854
        36        12        13        37     9        0.000000       -0.462536         3    ;  uncertainty k = 0.274684
        36        12        13        37     9      180.000000        0.202562         4    ;  uncertainty k = 0.149909
        38        14        26        46     9        0.000000       -0.078117         1    ;  uncertainty k = 0.156002
        38        14        26        46     9      180.000000        7.979657         2    ;  uncertainty k = 0.382853
        38        14        26        46     9        0.000000       -0.462536         3    ;  uncertainty k = 0.274684
        38        14        26        46     9      180.000000        0.202562         4    ;  uncertainty k = 0.149909
        41        19        20        42     9        0.000000       -0.307962         1    ;  uncertainty k = 0.440104
        41        19        20        42     9      180.000000        6.502709         2    ;  uncertainty k = 0.379417
        41        19        20        42     9        0.000000       -0.130867         3    ;  uncertainty k = 0.246878
        41        19        20        42     9      180.000000        0.283979         4    ;  uncertainty k = 0.141773

[ dihedrals ] ; impropers
;       ai        aj        ak        al funct           phase               k        pn
         1         4         6        11     4      180.000000       18.048186         2    ;  uncertainty k = 0.112676
         1         6        11         4     4      180.000000       18.048186         2    ;  uncertainty k = 0.112676
         1        11         4         6     4      180.000000       18.048186         2    ;  uncertainty k = 0.112676
         2         3         5        32     4      180.000000        2.538906         2    ;  uncertainty k = 0.373105
         2         5        32         3     4      180.000000        2.538906         2    ;  uncertainty k = 0.373105
         2        32         3         5     4      180.000000        2.538906         2    ;  uncertainty k = 0.373105
         3         2         4        15     4      180.000000       20.656996         2    ;  uncertainty k = 0.063650
         3         4        15         2     4      180.000000       20.656996         2    ;  uncertainty k = 0.063650
         3        15         2         4     4      180.000000       20.656996         2    ;  uncertainty k = 0.063650
         4         1         3        33     4      180.000000        3.170965         2    ;  uncertainty k = 0.344238
         4         3        33         1     4      180.000000        3.170965         2    ;  uncertainty k = 0.344238
         4        33         1         3     4      180.000000        3.170965         2    ;  uncertainty k = 0.344238
         5         2         6        10     4      180.000000       18.452158         2    ;  uncertainty k = 0.055457
         5         6        10         2     4      180.000000       18.452158         2    ;  uncertainty k = 0.055457
         5        10         2         6     4      180.000000       18.452158         2    ;  uncertainty k = 0.055457
         6         1         5         7     4      180.000000       16.651839         2    ;  uncertainty k = 0.073584
         6         5         7         1     4      180.000000       16.651839         2    ;  uncertainty k = 0.073584
         6         7         1         5     4      180.000000       16.651839         2    ;  uncertainty k = 0.073584
         8         7         9        34     4      180.000000       12.058352         2    ;  uncertainty k = 0.155869
         8         9        34         7     4      180.000000       12.058352         2    ;  uncertainty k = 0.155869
         8        34         7         9     4      180.000000       12.058352         2    ;  uncertainty k = 0.155869
         9         8        10        35     4      180.000000       11.948848         2    ;  uncertainty k = 0.101429
         9        10        35         8     4      180.000000       11.948848         2    ;  uncertainty k = 0.101429
         9        35         8        10     4      180.000000       11.948848         2    ;  uncertainty k = 0.101429
        11         1        12        14     4      180.000000       14.004271         2    ;  uncertainty k = 0.183952
        11        12        14         1     4      180.000000       14.004271         2    ;  uncertainty k = 0.183952
        11        14         1        12     4      180.000000       14.004271         2    ;  uncertainty k = 0.183952
        12        11        13        36     4      180.000000        3.781459         2    ;  uncertainty k = 0.141975
        12        13        36        11     4      180.000000        3.781459         2    ;  uncertainty k = 0.141975
        12        36        11        13     4      180.000000        3.781459         2    ;  uncertainty k = 0.141975
        13        12        27        37     4      180.000000        4.623415         2    ;  uncertainty k = 0.069884
        13        27        37        12     4      180.000000        4.623415         2    ;  uncertainty k = 0.069884
        13        37        12        27     4      180.000000        4.623415         2    ;  uncertainty k = 0.069884
        14        11        26        38     4      180.000000        3.781456         2    ;  uncertainty k = 0.141976
        14        26        38        11     4      180.000000        3.781456         2    ;  uncertainty k = 0.141976
        14        38        11        26     4      180.000000        3.781456         2    ;  uncertainty k = 0.141976
        15         3        16        39     4      180.000000        1.379953         2    ;  uncertainty k = 1.192013
        15        16        39         3     4      180.000000        1.379953         2    ;  uncertainty k = 1.192013
        15        39         3        16     4      180.000000        1.379953         2    ;  uncertainty k = 1.192013
        16        15        17        21     4      180.000000       22.010771         2    ;  uncertainty k = 0.077536
        16        17        21        15     4      180.000000       22.010771         2    ;  uncertainty k = 0.077536
        16        21        15        17     4      180.000000       22.010771         2    ;  uncertainty k = 0.077536
        17        16        18        40     4      180.000000       10.900437         2    ;  uncertainty k = 0.192114
        17        18        40        16     4      180.000000       10.900437         2    ;  uncertainty k = 0.192114
        17        40        16        18     4      180.000000       10.900437         2    ;  uncertainty k = 0.192114
        19        18        20        41     4      180.000000       11.385376         2    ;  uncertainty k = 0.107036
        19        20        41        18     4      180.000000       11.385376         2    ;  uncertainty k = 0.107036
        19        41        18        20     4      180.000000       11.385376         2    ;  uncertainty k = 0.107036
        20        19        21        42     4      180.000000        4.322239         2    ;  uncertainty k = 0.262311
        20        21        42        19     4      180.000000        4.322239         2    ;  uncertainty k = 0.262311
        20        42        19        21     4      180.000000        4.322239         2    ;  uncertainty k = 0.262311
        21        16        20        22     4      180.000000        5.945008         2    ;  uncertainty k = 0.459977
        21        20        22        16     4      180.000000        5.945008         2    ;  uncertainty k = 0.459977
        21        22        16        20     4      180.000000        5.945008         2    ;  uncertainty k = 0.459977
        26        14        27        46     4      180.000000        4.623416         2    ;  uncertainty k = 0.069885
        26        27        46        14     4      180.000000        4.623416         2    ;  uncertainty k = 0.069885
        26        46        14        27     4      180.000000        4.623416         2    ;  uncertainty k = 0.069885
        27        13        26        28     4      180.000000        8.213018         2    ;  uncertainty k = 0.173841
        27        26        28        13     4      180.000000        8.213018         2    ;  uncertainty k = 0.173841
        27        28        13        26     4      180.000000        8.213018         2    ;  uncertainty k = 0.173841

[ pairs ]
;       ai        aj funct
         1         2     1
         1         8     1
         1        10     1
         1        13     1
         1        15     1
         1        26     1
         1        36     1
         1        38     1
         2         7     1
         2         9     1
         2        16     1
         2        33     1
         2        39     1
         3         6     1
         3        10     1
         3        11     1
         3        17     1
         3        21     1
         4         5     1
         4         7     1
         4        12     1
         4        14     1
         4        16     1
         4        32     1
         4        39     1
         5         8     1
         5        11     1
         5        15     1
         5        35     1
         6         9     1
         6        12     1
         6        14     1
         6        32     1
         6        33     1
         6        34     1
         7        10     1
         7        11     1
         7        35     1
        10        32     1
        10        34     1
        11        27     1
        11        33     1
        11        37     1
        11        46     1
        12        26     1
        12        28     1
        12        38     1
        13        14     1
        13        29     1
        13        30     1
        13        31     1
        13        46     1
        14        28     1
        14        36     1
        15        18     1
        15        20     1
        15        22     1
        15        32     1
        15        33     1
        15        40     1
        16        19     1
        16        23     1
        16        24     1
        16        25     1
        16        42     1
        17        20     1
        17        22     1
        17        39     1
        17        41     1
        18        21     1
        18        42     1
        19        22     1
        19        40     1
        20        23     1
        20        24     1
        20        25     1
        21        39     1
        21        40     1
        21        41     1
        21        43     1
        21        44     1
        21        45     1
        22        42     1
        23        43     1
        23        44     1
        23        45     1
        24        43     1
        24        44     1
        24        45     1
        26        29     1
        26        30     1
        26        31     1
        26        37     1
        27        36     1
        27        38     1
        28        37     1
        28        46     1
        34        35     1
        36        37     1
        38        46     1
        41        42     1
