; ITP file created by ByteFF-joint-25, 2026-02-17 09:26:28.753840

[ atomtypes ]
;name           bonded.type        at.num        mass        charge   ptype           sigma         epsilon
 c0bf                                   6      0.0000       0.00000       A     3.31538e-01     4.13732e-01    ;  uncertainty sigma = 0.000012, epsilon = 0.001772
 c1bf                                   6      0.0000       0.00000       A     3.31494e-01     4.13424e-01    ;  uncertainty sigma = 0.000006, epsilon = 0.000718
 c2bf                                   6      0.0000       0.00000       A     3.31500e-01     4.12773e-01    ;  uncertainty sigma = 0.000010, epsilon = 0.000688
 c3bf                                   6      0.0000       0.00000       A     3.31509e-01     4.13539e-01    ;  uncertainty sigma = 0.000009, epsilon = 0.000465
 c4bf                                   6      0.0000       0.00000       A     3.31516e-01     4.13470e-01    ;  uncertainty sigma = 0.000011, epsilon = 0.000986
 c5bf                                   6      0.0000       0.00000       A     3.31521e-01     4.13012e-01    ;  uncertainty sigma = 0.000010, epsilon = 0.001115
 n6bf                                   7      0.0000       0.00000       A     3.38415e-01     3.93854e-01    ;  uncertainty sigma = 0.000010, epsilon = 0.001066
 c7bf                                   6      0.0000       0.00000       A     3.31531e-01     4.13178e-01    ;  uncertainty sigma = 0.000013, epsilon = 0.000482
 c8bf                                   6      0.0000       0.00000       A     3.31530e-01     4.13238e-01    ;  uncertainty sigma = 0.000010, epsilon = 0.000599
 n9bf                                   7      0.0000       0.00000       A     3.38414e-01     3.93827e-01    ;  uncertainty sigma = 0.000003, epsilon = 0.000862
 n10bf                                  7      0.0000       0.00000       A     3.27956e-01     6.47518e-01    ;  uncertainty sigma = 0.000036, epsilon = 0.003822
 c11bf                                  6      0.0000       0.00000       A     3.31515e-01     4.13402e-01    ;  uncertainty sigma = 0.000013, epsilon = 0.000952
 c12bf                                  6      0.0000       0.00000       A     3.31519e-01     4.13324e-01    ;  uncertainty sigma = 0.000004, epsilon = 0.000598
 c13bf                                  6      0.0000       0.00000       A     3.31524e-01     4.13349e-01    ;  uncertainty sigma = 0.000004, epsilon = 0.000440
 c14bf                                  6      0.0000       0.00000       A     3.31519e-01     4.13324e-01    ;  uncertainty sigma = 0.000004, epsilon = 0.000598
 c15bf                                  6      0.0000       0.00000       A     3.31524e-01     4.13349e-01    ;  uncertainty sigma = 0.000004, epsilon = 0.000440
 c16bf                                  6      0.0000       0.00000       A     3.31533e-01     4.13194e-01    ;  uncertainty sigma = 0.000004, epsilon = 0.000837
 c17bf                                  6      0.0000       0.00000       A     3.31502e-01     4.13462e-01    ;  uncertainty sigma = 0.000018, epsilon = 0.002180
 c18bf                                  6      0.0000       0.00000       A     3.31532e-01     4.13419e-01    ;  uncertainty sigma = 0.000012, epsilon = 0.000931
 n19bf                                  7      0.0000       0.00000       A     3.38420e-01     3.93806e-01    ;  uncertainty sigma = 0.000013, epsilon = 0.000881
 c20bf                                  6      0.0000       0.00000       A     3.31513e-01     4.13350e-01    ;  uncertainty sigma = 0.000011, epsilon = 0.000728
 c21bf                                  6      0.0000       0.00000       A     3.31518e-01     4.13124e-01    ;  uncertainty sigma = 0.000015, epsilon = 0.000361
 c22bf                                  6      0.0000       0.00000       A     3.31501e-01     4.13078e-01    ;  uncertainty sigma = 0.000025, epsilon = 0.001598
 s23bf                                 16      0.0000       0.00000       A     4.05775e-01     2.56504e-01    ;  uncertainty sigma = 0.000009, epsilon = 0.002944
 o24bf                                  8      0.0000       0.00000       A     3.04808e-01     6.12058e-01    ;  uncertainty sigma = 0.000011, epsilon = 0.001075
 o25bf                                  8      0.0000       0.00000       A     3.04808e-01     6.12058e-01    ;  uncertainty sigma = 0.000011, epsilon = 0.001075
 c26bf                                  6      0.0000       0.00000       A     3.39790e-01     4.50653e-01    ;  uncertainty sigma = 0.000003, epsilon = 0.000848
 c27bf                                  6      0.0000       0.00000       A     3.39751e-01     4.50352e-01    ;  uncertainty sigma = 0.000013, epsilon = 0.000872
 c28bf                                  6      0.0000       0.00000       A     3.39786e-01     4.50780e-01    ;  uncertainty sigma = 0.000004, epsilon = 0.000302
 h29bf                                  1      0.0000       0.00000       A     2.62566e-01     6.71158e-02    ;  uncertainty sigma = 0.000015, epsilon = 0.000400
 h30bf                                  1      0.0000       0.00000       A     2.62540e-01     6.71221e-02    ;  uncertainty sigma = 0.000022, epsilon = 0.000645
 h31bf                                  1      0.0000       0.00000       A     2.53628e-01     6.69333e-02    ;  uncertainty sigma = 0.000020, epsilon = 0.000763
 h32bf                                  1      0.0000       0.00000       A     2.53628e-01     6.69333e-02    ;  uncertainty sigma = 0.000020, epsilon = 0.000763
 h33bf                                  1      0.0000       0.00000       A     1.10720e-01     4.14040e-02    ;  uncertainty sigma = 0.000106, epsilon = 0.001477
 h34bf                                  1      0.0000       0.00000       A     2.62567e-01     6.70632e-02    ;  uncertainty sigma = 0.000011, epsilon = 0.000524
 h35bf                                  1      0.0000       0.00000       A     2.62563e-01     6.71231e-02    ;  uncertainty sigma = 0.000008, epsilon = 0.000477
 h36bf                                  1      0.0000       0.00000       A     2.62567e-01     6.70632e-02    ;  uncertainty sigma = 0.000011, epsilon = 0.000524
 h37bf                                  1      0.0000       0.00000       A     2.62563e-01     6.71232e-02    ;  uncertainty sigma = 0.000008, epsilon = 0.000477
 h38bf                                  1      0.0000       0.00000       A     2.53624e-01     6.69778e-02    ;  uncertainty sigma = 0.000049, epsilon = 0.000568
 h39bf                                  1      0.0000       0.00000       A     2.53633e-01     6.70304e-02    ;  uncertainty sigma = 0.000014, epsilon = 0.000494
 h40bf                                  1      0.0000       0.00000       A     2.62533e-01     6.70950e-02    ;  uncertainty sigma = 0.000019, epsilon = 0.000754
 h41bf                                  1      0.0000       0.00000       A     2.42167e-01     8.68275e-02    ;  uncertainty sigma = 0.000012, epsilon = 0.000620
 h42bf                                  1      0.0000       0.00000       A     2.42167e-01     8.68275e-02    ;  uncertainty sigma = 0.000012, epsilon = 0.000620
 h43bf                                  1      0.0000       0.00000       A     2.42167e-01     8.68275e-02    ;  uncertainty sigma = 0.000012, epsilon = 0.000620
 h44bf                                  1      0.0000       0.00000       A     2.60022e-01     8.67255e-02    ;  uncertainty sigma = 0.000019, epsilon = 0.000696
 h45bf                                  1      0.0000       0.00000       A     2.60022e-01     8.67255e-02    ;  uncertainty sigma = 0.000019, epsilon = 0.000696
 h46bf                                  1      0.0000       0.00000       A     2.60024e-01     8.66317e-02    ;  uncertainty sigma = 0.000009, epsilon = 0.000658
 h47bf                                  1      0.0000       0.00000       A     2.60024e-01     8.66317e-02    ;  uncertainty sigma = 0.000009, epsilon = 0.000658
 h48bf                                  1      0.0000       0.00000       A     2.60024e-01     8.66315e-02    ;  uncertainty sigma = 0.000009, epsilon = 0.000658

[ moleculetype ]
;name             nrexcl
 MOL                   3

[ atoms ]
;       nr            type      resi   res      atom      cgnr      charge          mass ; qtot
         1            c0bf         1   UNL        c0         1     0.17383       12.0110 ; qtot    0.174
         2            c1bf         1   UNL        c1         2    -0.15971       12.0110 ; qtot    0.014
         3            c2bf         1   UNL        c2         3    -0.02789       12.0110 ; qtot   -0.014
         4            c3bf         1   UNL        c3         4    -0.22162       12.0110 ; qtot   -0.235
         5            c4bf         1   UNL        c4         5     0.32340       12.0110 ; qtot    0.088
         6            c5bf         1   UNL        c5         6     0.27599       12.0110 ; qtot    0.364
         7            n6bf         1   UNL        n6         7    -0.61814       14.0070 ; qtot   -0.254
         8            c7bf         1   UNL        c7         8     0.29560       12.0110 ; qtot    0.041
         9            c8bf         1   UNL        c8         9     0.29621       12.0110 ; qtot    0.338
        10            n9bf         1   UNL        n9        10    -0.62862       14.0070 ; qtot   -0.291
        11           n10bf         1   UNL       n10        11    -0.64735       14.0070 ; qtot   -0.938
        12           c11bf         1   UNL       c11        12    -0.03966       12.0110 ; qtot   -0.978
        13           c12bf         1   UNL       c12        13    -0.10492       12.0110 ; qtot   -1.083
        14           c13bf         1   UNL       c13        14    -0.13041       12.0110 ; qtot   -1.213
        15           c14bf         1   UNL       c14        15    -0.10492       12.0110 ; qtot   -1.318
        16           c15bf         1   UNL       c15        16    -0.13041       12.0110 ; qtot   -1.449
        17           c16bf         1   UNL       c16        17    -0.07385       12.0110 ; qtot   -1.522
        18           c17bf         1   UNL       c17        18     0.15628       12.0110 ; qtot   -1.366
        19           c18bf         1   UNL       c18        19     0.33325       12.0110 ; qtot   -1.033
        20           n19bf         1   UNL       n19        20    -0.60182       14.0070 ; qtot   -1.635
        21           c20bf         1   UNL       c20        21     0.35581       12.0110 ; qtot   -1.279
        22           c21bf         1   UNL       c21        22    -0.13704       12.0110 ; qtot   -1.416
        23           c22bf         1   UNL       c22        23    -0.26398       12.0110 ; qtot   -1.680
        24           s23bf         1   UNL       s23        24     1.01656       32.0670 ; qtot   -0.663
        25           o24bf         1   UNL       o24        25    -0.58472       15.9990 ; qtot   -1.248
        26           o25bf         1   UNL       o25        26    -0.58472       15.9990 ; qtot   -1.833
        27           c26bf         1   UNL       c26        27    -0.18352       12.0110 ; qtot   -2.016
        28           c27bf         1   UNL       c27        28    -0.03460       12.0110 ; qtot   -2.051
        29           c28bf         1   UNL       c28        29    -0.08925       12.0110 ; qtot   -2.140
        30           h29bf         1   UNL       h29        30     0.14723        1.0080 ; qtot   -1.993
        31           h30bf         1   UNL       h30        31     0.15776        1.0080 ; qtot   -1.835
        32           h31bf         1   UNL       h31        32     0.03380        1.0080 ; qtot   -1.801
        33           h32bf         1   UNL       h32        33     0.03331        1.0080 ; qtot   -1.768
        34           h33bf         1   UNL       h33        34     0.47844        1.0080 ; qtot   -1.290
        35           h34bf         1   UNL       h34        35     0.13767        1.0080 ; qtot   -1.152
        36           h35bf         1   UNL       h35        36     0.13271        1.0080 ; qtot   -1.019
        37           h36bf         1   UNL       h36        37     0.13767        1.0080 ; qtot   -0.882
        38           h37bf         1   UNL       h37        38     0.13271        1.0080 ; qtot   -0.749
        39           h38bf         1   UNL       h38        39     0.03967        1.0080 ; qtot   -0.709
        40           h39bf         1   UNL       h39        40     0.03424        1.0080 ; qtot   -0.675
        41           h40bf         1   UNL       h40        41     0.16807        1.0080 ; qtot   -0.507
        42           h41bf         1   UNL       h41        42     0.10378        1.0080 ; qtot   -0.403
        43           h42bf         1   UNL       h42        43     0.10378        1.0080 ; qtot   -0.299
        44           h43bf         1   UNL       h43        44     0.10378        1.0080 ; qtot   -0.196
        45           h44bf         1   UNL       h44        45     0.04468        1.0080 ; qtot   -0.151
        46           h45bf         1   UNL       h45        46     0.04468        1.0080 ; qtot   -0.106
        47           h46bf         1   UNL       h46        47     0.03541        1.0080 ; qtot   -0.071
        48           h47bf         1   UNL       h47        48     0.03541        1.0080 ; qtot   -0.035
        49           h48bf         1   UNL       h48        49     0.03542        1.0080 ; qtot   -0.000

[ bonds ]
;       ai        aj funct               r               k
         1         2     1        0.142028   351861.401611    ;  uncertainty r = 0.000227, k = 12.579464
         1         4     1        0.138770   381943.426953    ;  uncertainty r = 0.000111, k = 9.337646
         1        11     1        0.141414   345942.921143    ;  uncertainty r = 0.000097, k = 12.910217
         2         3     1        0.137983   347565.038330    ;  uncertainty r = 0.000130, k = 16.431331
         2        30     1        0.108882   338495.201953    ;  uncertainty r = 0.000015, k = 3.632238
         3         6     1        0.143060   310262.982666    ;  uncertainty r = 0.000113, k = 16.803920
         3        12     1        0.148144   281058.616699    ;  uncertainty r = 0.000098, k = 15.131663
         4         5     1        0.141431   396079.468311    ;  uncertainty r = 0.000094, k = 15.205670
         4        31     1        0.108811   340366.765625    ;  uncertainty r = 0.000031, k = 1.855831
         5         6     1        0.142978   298967.076465    ;  uncertainty r = 0.000063, k = 15.491496
         5        10     1        0.136382   355171.598340    ;  uncertainty r = 0.000057, k = 8.738544
         6         7     1        0.135780   353419.139746    ;  uncertainty r = 0.000093, k = 12.280365
         7         8     1        0.131584   437137.956152    ;  uncertainty r = 0.000061, k = 11.801030
         8         9     1        0.141378   325245.374902    ;  uncertainty r = 0.000067, k = 16.241067
         8        32     1        0.109180   341408.015723    ;  uncertainty r = 0.000031, k = 1.111543
         9        10     1        0.131606   448634.967090    ;  uncertainty r = 0.000067, k = 6.059784
         9        33     1        0.109175   341608.175586    ;  uncertainty r = 0.000026, k = 2.358932
        11        18     1        0.139103   334487.280322    ;  uncertainty r = 0.000264, k = 9.014066
        11        34     1        0.101492   409720.294043    ;  uncertainty r = 0.000088, k = 5.983707
        12        13     1        0.140072   347870.462158    ;  uncertainty r = 0.000020, k = 2.142212
        12        15     1        0.140072   347870.462158    ;  uncertainty r = 0.000020, k = 2.142212
        13        14     1        0.139421   363406.881982    ;  uncertainty r = 0.000050, k = 1.717980
        13        35     1        0.108799   334189.185645    ;  uncertainty r = 0.000024, k = 1.444958
        14        17     1        0.139845   352767.432715    ;  uncertainty r = 0.000025, k = 0.812675
        14        36     1        0.108919   333983.560840    ;  uncertainty r = 0.000017, k = 0.754375
        15        16     1        0.139421   363406.881982    ;  uncertainty r = 0.000050, k = 1.717980
        15        37     1        0.108799   334189.185645    ;  uncertainty r = 0.000024, k = 1.444984
        16        17     1        0.139845   352767.381641    ;  uncertainty r = 0.000025, k = 0.812700
        16        38     1        0.108919   333983.560840    ;  uncertainty r = 0.000017, k = 0.754367
        17        28     1        0.151258   234468.714355    ;  uncertainty r = 0.000023, k = 2.855693
        18        19     1        0.140927   340447.897021    ;  uncertainty r = 0.000113, k = 16.488682
        18        23     1        0.141356   348414.581348    ;  uncertainty r = 0.000198, k = 15.946785
        19        20     1        0.132524   387119.492578    ;  uncertainty r = 0.000108, k = 11.004632
        19        39     1        0.108905   336131.001904    ;  uncertainty r = 0.000101, k = 3.724292
        20        21     1        0.133802   397972.227783    ;  uncertainty r = 0.000074, k = 5.323604
        21        22     1        0.139170   363105.084424    ;  uncertainty r = 0.000048, k = 3.861484
        21        40     1        0.108994   339519.240039    ;  uncertainty r = 0.000025, k = 1.411827
        22        23     1        0.138845   368349.257520    ;  uncertainty r = 0.000202, k = 14.185219
        22        41     1        0.108610   333138.767725    ;  uncertainty r = 0.000052, k = 1.956172
        23        24     1        0.180205   137177.907495    ;  uncertainty r = 0.000181, k = 18.369734
        24        25     1        0.147757   507438.247363    ;  uncertainty r = 0.000058, k = 6.198415
        24        26     1        0.147757   507438.298437    ;  uncertainty r = 0.000058, k = 6.198373
        24        27     1        0.181050   174448.795117    ;  uncertainty r = 0.000039, k = 9.209325
        27        42     1        0.109286   321567.954541    ;  uncertainty r = 0.000031, k = 1.364985
        27        43     1        0.109286   321567.954541    ;  uncertainty r = 0.000031, k = 1.364985
        27        44     1        0.109286   321567.954541    ;  uncertainty r = 0.000031, k = 1.364985
        28        29     1        0.154176   229470.233789    ;  uncertainty r = 0.000050, k = 5.033043
        28        45     1        0.109674   306909.602686    ;  uncertainty r = 0.000029, k = 2.580545
        28        46     1        0.109674   306909.602686    ;  uncertainty r = 0.000029, k = 2.580545
        29        47     1        0.109610   309233.607324    ;  uncertainty r = 0.000011, k = 0.969522
        29        48     1        0.109610   309233.607324    ;  uncertainty r = 0.000011, k = 0.969522
        29        49     1        0.109610   309233.607324    ;  uncertainty r = 0.000011, k = 0.969522

[ angles ]
;       ai        aj        ak funct           theta             cth
         1         2         3     1      122.325638      516.724447    ;  uncertainty theta = 0.004751, k = 0.261975
         1         2        30     1      119.378006      284.937384    ;  uncertainty theta = 0.005110, k = 0.129316
         1         4         5     1      118.206688      518.635612    ;  uncertainty theta = 0.002447, k = 0.073028
         1         4        31     1      121.438538      270.401917    ;  uncertainty theta = 0.001365, k = 0.142095
         1        11        18     1      115.247620      387.594010    ;  uncertainty theta = 0.002924, k = 0.212981
         1        11        34     1      115.334732      382.605049    ;  uncertainty theta = 0.007384, k = 0.160726
         2         1         4     1      119.354149      388.558004    ;  uncertainty theta = 0.003479, k = 0.061803
         2         1        11     1      120.269043      499.771605    ;  uncertainty theta = 0.004775, k = 0.338941
         2         3         6     1      121.244652      456.628638    ;  uncertainty theta = 0.004081, k = 0.131190
         2         3        12     1      121.027367      425.912922    ;  uncertainty theta = 0.004051, k = 0.151709
         3         2        30     1      118.702614      277.803529    ;  uncertainty theta = 0.004789, k = 0.045317
         3         6         5     1      120.657654      398.206786    ;  uncertainty theta = 0.005930, k = 0.076005
         3         6         7     1      118.045509      466.012089    ;  uncertainty theta = 0.003644, k = 0.235085
         3        12        13     1      120.686806      400.823127    ;  uncertainty theta = 0.001841, k = 0.068971
         3        12        15     1      120.686806      400.823127    ;  uncertainty theta = 0.001841, k = 0.068971
         4         1        11     1      122.010719      487.333915    ;  uncertainty theta = 0.006482, k = 0.189293
         4         5         6     1      119.497047      391.821392    ;  uncertainty theta = 0.005347, k = 0.191786
         4         5        10     1      122.312637      528.712396    ;  uncertainty theta = 0.003351, k = 0.210335
         5         4        31     1      120.837975      275.673543    ;  uncertainty theta = 0.003390, k = 0.103595
         5         6         7     1      119.715538      514.287664    ;  uncertainty theta = 0.004171, k = 0.058520
         5        10         9     1      114.458984      488.266148    ;  uncertainty theta = 0.001996, k = 0.147683
         6         3        12     1      119.131943      397.993136    ;  uncertainty theta = 0.003436, k = 0.217758
         6         5        10     1      119.215195      554.928154    ;  uncertainty theta = 0.007493, k = 0.084178
         6         7         8     1      116.467896      472.703067    ;  uncertainty theta = 0.004318, k = 0.126453
         7         8         9     1      121.240555      622.447314    ;  uncertainty theta = 0.002919, k = 0.205880
         7         8        32     1      116.813492      347.959523    ;  uncertainty theta = 0.001638, k = 0.087624
         8         9        10     1      120.931259      612.842998    ;  uncertainty theta = 0.002470, k = 0.239696
         8         9        33     1      121.868530      283.534439    ;  uncertainty theta = 0.002376, k = 0.096063
         9         8        32     1      121.994606      282.804174    ;  uncertainty theta = 0.002439, k = 0.090842
        10         9        33     1      116.754013      350.159800    ;  uncertainty theta = 0.001533, k = 0.075385
        11        18        19     1      118.512817      444.270049    ;  uncertainty theta = 0.006989, k = 0.276229
        11        18        23     1      122.762405      517.830874    ;  uncertainty theta = 0.007977, k = 0.368248
        12        13        14     1      120.990921      518.752157    ;  uncertainty theta = 0.001151, k = 0.090168
        12        13        35     1      119.649185      280.448695    ;  uncertainty theta = 0.001954, k = 0.084553
        12        15        16     1      120.990921      518.752157    ;  uncertainty theta = 0.001151, k = 0.090168
        12        15        37     1      119.649185      280.448695    ;  uncertainty theta = 0.001954, k = 0.084553
        13        12        15     1      119.038696      411.925257    ;  uncertainty theta = 0.002604, k = 0.062772
        13        14        17     1      121.453491      515.057257    ;  uncertainty theta = 0.002812, k = 0.044398
        13        14        36     1      119.835678      288.637935    ;  uncertainty theta = 0.002406, k = 0.038835
        14        13        35     1      120.164391      291.981668    ;  uncertainty theta = 0.001652, k = 0.024331
        14        17        16     1      118.497643      457.199743    ;  uncertainty theta = 0.002548, k = 0.073042
        14        17        28     1      121.329025      430.100752    ;  uncertainty theta = 0.002453, k = 0.079696
        15        16        17     1      121.453491      515.057257    ;  uncertainty theta = 0.002812, k = 0.044398
        15        16        38     1      119.835678      288.637935    ;  uncertainty theta = 0.002406, k = 0.038835
        16        15        37     1      120.164391      291.981668    ;  uncertainty theta = 0.001652, k = 0.024331
        16        17        28     1      121.329025      430.100752    ;  uncertainty theta = 0.002453, k = 0.079696
        17        14        36     1      119.043503      270.788421    ;  uncertainty theta = 0.001572, k = 0.027011
        17        16        38     1      119.043503      270.788421    ;  uncertainty theta = 0.001572, k = 0.027012
        17        28        29     1      111.744186      563.495535    ;  uncertainty theta = 0.002191, k = 0.058984
        17        28        45     1      107.107483      393.630281    ;  uncertainty theta = 0.001971, k = 0.040224
        17        28        46     1      107.107483      393.630281    ;  uncertainty theta = 0.001971, k = 0.040224
        18        11        34     1      114.408607      380.718399    ;  uncertainty theta = 0.008156, k = 0.169224
        18        19        20     1      124.922012      667.515332    ;  uncertainty theta = 0.002966, k = 0.161817
        18        19        39     1      118.731201      264.771767    ;  uncertainty theta = 0.008633, k = 0.144655
        18        23        22     1      123.289940      400.819392    ;  uncertainty theta = 0.003703, k = 0.311812
        18        23        24     1      119.668861      323.012512    ;  uncertainty theta = 0.009862, k = 0.668304
        19        18        23     1      118.657333      362.619739    ;  uncertainty theta = 0.004612, k = 0.362834
        19        20        21     1      118.268311      445.304685    ;  uncertainty theta = 0.004478, k = 0.098123
        20        19        39     1      116.579346      347.314743    ;  uncertainty theta = 0.005152, k = 0.066004
        20        21        22     1      122.431076      677.632432    ;  uncertainty theta = 0.002046, k = 0.093657
        20        21        40     1      116.840332      340.667018    ;  uncertainty theta = 0.001197, k = 0.068775
        21        22        23     1      118.808189      483.994204    ;  uncertainty theta = 0.004991, k = 0.079007
        21        22        41     1      122.214798      277.736813    ;  uncertainty theta = 0.004016, k = 0.070187
        22        21        40     1      120.256363      277.546307    ;  uncertainty theta = 0.002265, k = 0.082403
        22        23        24     1      114.589760      352.518918    ;  uncertainty theta = 0.008187, k = 0.213541
        23        22        41     1      119.535904      260.121156    ;  uncertainty theta = 0.004889, k = 0.124125
        23        24        25     1      112.903671      607.682204    ;  uncertainty theta = 0.002869, k = 0.171145
        23        24        26     1      112.903671      607.682204    ;  uncertainty theta = 0.002869, k = 0.171145
        23        24        27     1      104.371536      610.740975    ;  uncertainty theta = 0.002610, k = 0.101867
        24        27        42     1      107.113976      366.636120    ;  uncertainty theta = 0.002061, k = 0.075109
        24        27        43     1      107.113976      366.636120    ;  uncertainty theta = 0.002061, k = 0.075109
        24        27        44     1      107.113976      366.636120    ;  uncertainty theta = 0.002061, k = 0.075109
        25        24        26     1      123.473061      838.268448    ;  uncertainty theta = 0.001927, k = 0.047858
        25        24        27     1      112.603317      748.419512    ;  uncertainty theta = 0.000730, k = 0.122171
        26        24        27     1      112.603317      748.419512    ;  uncertainty theta = 0.000730, k = 0.122171
        28        29        47     1      108.485817      413.596725    ;  uncertainty theta = 0.001715, k = 0.032644
        28        29        48     1      108.485817      413.596725    ;  uncertainty theta = 0.001715, k = 0.032644
        28        29        49     1      108.485817      413.596725    ;  uncertainty theta = 0.001715, k = 0.032644
        29        28        45     1      107.851074      407.897449    ;  uncertainty theta = 0.001854, k = 0.042131
        29        28        46     1      107.851074      407.897449    ;  uncertainty theta = 0.001854, k = 0.042131
        42        27        43     1      108.843689      296.191780    ;  uncertainty theta = 0.002069, k = 0.023129
        42        27        44     1      108.843689      296.191780    ;  uncertainty theta = 0.002069, k = 0.023129
        43        27        44     1      108.843689      296.191780    ;  uncertainty theta = 0.002069, k = 0.023129
        45        28        46     1      103.862755      310.477877    ;  uncertainty theta = 0.002748, k = 0.059351
        47        29        48     1      105.139038      315.510156    ;  uncertainty theta = 0.002270, k = 0.015366
        47        29        49     1      105.139038      315.510156    ;  uncertainty theta = 0.002270, k = 0.015366
        48        29        49     1      105.139038      315.510156    ;  uncertainty theta = 0.002270, k = 0.015366

[ dihedrals ] ; propers for gromacs 4.5 or higher, use funct 9
;       ai        aj        ak        al funct           phase               k        pn
         1         2         3         6     9        0.000000        0.028440         1    ;  uncertainty k = 0.535400
         1         2         3         6     9      180.000000       12.587037         2    ;  uncertainty k = 0.439271
         1         2         3         6     9        0.000000        0.368729         3    ;  uncertainty k = 0.238226
         1         2         3         6     9      180.000000        1.264935         4    ;  uncertainty k = 0.331376
         1         2         3        12     9        0.000000        0.178918         1    ;  uncertainty k = 0.165898
         1         2         3        12     9      180.000000       10.487765         2    ;  uncertainty k = 0.661366
         1         2         3        12     9        0.000000        1.344372         3    ;  uncertainty k = 0.278889
         1         2         3        12     9      180.000000        1.699396         4    ;  uncertainty k = 0.292671
         1         4         5         6     9        0.000000        0.124777         1    ;  uncertainty k = 0.469634
         1         4         5         6     9      180.000000        7.210380         2    ;  uncertainty k = 0.798365
         1         4         5         6     9        0.000000        0.036788         3    ;  uncertainty k = 0.281313
         1         4         5         6     9      180.000000        1.290165         4    ;  uncertainty k = 0.270790
         1         4         5        10     9        0.000000        0.146697         1    ;  uncertainty k = 0.428362
         1         4         5        10     9      180.000000        9.787397         2    ;  uncertainty k = 0.378069
         1         4         5        10     9        0.000000        0.568644         3    ;  uncertainty k = 0.286792
         1         4         5        10     9      180.000000        1.391199         4    ;  uncertainty k = 0.231273
         1        11        18        19     9        0.000000        4.219814         1    ;  uncertainty k = 1.204826
         1        11        18        19     9      180.000000        5.915026         2    ;  uncertainty k = 0.485741
         1        11        18        19     9        0.000000        0.506820         3    ;  uncertainty k = 0.114706
         1        11        18        19     9      180.000000        0.021030         4    ;  uncertainty k = 0.159761
         1        11        18        23     9        0.000000        0.589932         1    ;  uncertainty k = 1.531193
         1        11        18        23     9      180.000000        8.272739         2    ;  uncertainty k = 0.309915
         1        11        18        23     9        0.000000       -0.349199         3    ;  uncertainty k = 0.585019
         1        11        18        23     9      180.000000        0.078445         4    ;  uncertainty k = 0.210861
         2         1         4         5     9        0.000000       -0.230094         1    ;  uncertainty k = 0.193613
         2         1         4         5     9      180.000000        9.799482         2    ;  uncertainty k = 0.334539
         2         1         4         5     9        0.000000        0.322865         3    ;  uncertainty k = 0.471328
         2         1         4         5     9      180.000000        1.352621         4    ;  uncertainty k = 0.303410
         2         1         4        31     9        0.000000        0.271865         1    ;  uncertainty k = 0.395472
         2         1         4        31     9      180.000000        7.009638         2    ;  uncertainty k = 0.650819
         2         1         4        31     9        0.000000        1.296696         3    ;  uncertainty k = 0.117301
         2         1         4        31     9      180.000000        1.627549         4    ;  uncertainty k = 0.152794
         2         1        11        18     9        0.000000        2.703023         1    ;  uncertainty k = 1.093474
         2         1        11        18     9      180.000000        5.646721         2    ;  uncertainty k = 0.287758
         2         1        11        18     9        0.000000        0.628331         3    ;  uncertainty k = 0.301753
         2         1        11        18     9      180.000000        0.075594         4    ;  uncertainty k = 0.163630
         2         1        11        34     9        0.000000        3.315351         1    ;  uncertainty k = 0.856352
         2         1        11        34     9      180.000000        4.508873         2    ;  uncertainty k = 0.528168
         2         1        11        34     9        0.000000        0.509564         3    ;  uncertainty k = 0.257912
         2         1        11        34     9      180.000000       -0.046361         4    ;  uncertainty k = 0.122571
         2         3         6         5     9        0.000000       -0.087575         1    ;  uncertainty k = 0.452976
         2         3         6         5     9      180.000000        5.837417         2    ;  uncertainty k = 1.026369
         2         3         6         5     9        0.000000        0.071142         3    ;  uncertainty k = 0.281857
         2         3         6         5     9      180.000000        0.984532         4    ;  uncertainty k = 0.335452
         2         3         6         7     9        0.000000        0.253859         1    ;  uncertainty k = 0.569959
         2         3         6         7     9      180.000000        6.920319         2    ;  uncertainty k = 0.838555
         2         3         6         7     9        0.000000        0.373440         3    ;  uncertainty k = 0.324682
         2         3         6         7     9      180.000000        1.149414         4    ;  uncertainty k = 0.333131
         2         3        12        13     9        0.000000       -0.370487         1    ;  uncertainty k = 0.344125
         2         3        12        13     9      180.000000        5.375778         2    ;  uncertainty k = 0.124148
         2         3        12        13     9        0.000000        0.418993         3    ;  uncertainty k = 0.137675
         2         3        12        13     9      180.000000        0.496076         4    ;  uncertainty k = 0.088134
         2         3        12        15     9        0.000000       -0.370487         1    ;  uncertainty k = 0.344125
         2         3        12        15     9      180.000000        5.375778         2    ;  uncertainty k = 0.124148
         2         3        12        15     9        0.000000        0.418993         3    ;  uncertainty k = 0.137675
         2         3        12        15     9      180.000000        0.496076         4    ;  uncertainty k = 0.088134
         3         2         1         4     9        0.000000       -0.075628         1    ;  uncertainty k = 0.305331
         3         2         1         4     9      180.000000        6.253897         2    ;  uncertainty k = 1.000823
         3         2         1         4     9        0.000000        0.293640         3    ;  uncertainty k = 0.228898
         3         2         1         4     9      180.000000        1.346626         4    ;  uncertainty k = 0.321119
         3         2         1        11     9        0.000000        0.296471         1    ;  uncertainty k = 0.693342
         3         2         1        11     9      180.000000        7.652700         2    ;  uncertainty k = 0.529987
         3         2         1        11     9        0.000000        0.796535         3    ;  uncertainty k = 0.272677
         3         2         1        11     9      180.000000        1.628908         4    ;  uncertainty k = 0.124999
         3         6         5         4     9        0.000000       -0.701302         1    ;  uncertainty k = 0.525101
         3         6         5         4     9      180.000000        4.604524         2    ;  uncertainty k = 1.549066
         3         6         5         4     9        0.000000        0.267393         3    ;  uncertainty k = 0.304996
         3         6         5         4     9      180.000000        1.238640         4    ;  uncertainty k = 0.355678
         3         6         5        10     9        0.000000       -0.304970         1    ;  uncertainty k = 0.682229
         3         6         5        10     9      180.000000        5.022747         2    ;  uncertainty k = 1.152438
         3         6         5        10     9        0.000000        0.082087         3    ;  uncertainty k = 0.372244
         3         6         5        10     9      180.000000        1.327637         4    ;  uncertainty k = 0.224200
         3         6         7         8     9        0.000000       -0.222227         1    ;  uncertainty k = 0.574841
         3         6         7         8     9      180.000000       12.387304         2    ;  uncertainty k = 0.592302
         3         6         7         8     9        0.000000        2.040852         3    ;  uncertainty k = 0.339494
         3         6         7         8     9      180.000000        1.325866         4    ;  uncertainty k = 0.192142
         3        12        13        14     9        0.000000        0.071694         1    ;  uncertainty k = 0.402814
         3        12        13        14     9      180.000000        8.397446         2    ;  uncertainty k = 0.659477
         3        12        13        14     9        0.000000        1.281405         3    ;  uncertainty k = 0.298373
         3        12        13        14     9      180.000000        1.894856         4    ;  uncertainty k = 0.168334
         3        12        13        35     9        0.000000       -0.152743         1    ;  uncertainty k = 0.117607
         3        12        13        35     9      180.000000        7.277299         2    ;  uncertainty k = 0.411138
         3        12        13        35     9        0.000000        0.832313         3    ;  uncertainty k = 0.228313
         3        12        13        35     9      180.000000        1.194253         4    ;  uncertainty k = 0.204346
         3        12        15        16     9        0.000000        0.071694         1    ;  uncertainty k = 0.402814
         3        12        15        16     9      180.000000        8.397446         2    ;  uncertainty k = 0.659477
         3        12        15        16     9        0.000000        1.281405         3    ;  uncertainty k = 0.298373
         3        12        15        16     9      180.000000        1.894856         4    ;  uncertainty k = 0.168334
         3        12        15        37     9        0.000000       -0.152743         1    ;  uncertainty k = 0.117607
         3        12        15        37     9      180.000000        7.277299         2    ;  uncertainty k = 0.411138
         3        12        15        37     9        0.000000        0.832313         3    ;  uncertainty k = 0.228313
         3        12        15        37     9      180.000000        1.194253         4    ;  uncertainty k = 0.204346
         4         1         2        30     9        0.000000        0.237751         1    ;  uncertainty k = 0.407272
         4         1         2        30     9      180.000000        5.911712         2    ;  uncertainty k = 0.917305
         4         1         2        30     9        0.000000        1.143639         3    ;  uncertainty k = 0.150774
         4         1         2        30     9      180.000000        1.435209         4    ;  uncertainty k = 0.269147
         4         1        11        18     9        0.000000        2.391292         1    ;  uncertainty k = 0.927258
         4         1        11        18     9      180.000000        5.627189         2    ;  uncertainty k = 0.345908
         4         1        11        18     9        0.000000        0.130796         3    ;  uncertainty k = 0.275597
         4         1        11        18     9      180.000000        0.108068         4    ;  uncertainty k = 0.070781
         4         1        11        34     9        0.000000        3.714210         1    ;  uncertainty k = 1.019186
         4         1        11        34     9      180.000000        4.537151         2    ;  uncertainty k = 0.136540
         4         1        11        34     9        0.000000        0.421528         3    ;  uncertainty k = 0.226094
         4         1        11        34     9      180.000000       -0.068003         4    ;  uncertainty k = 0.067046
         4         5         6         7     9        0.000000        0.075716         1    ;  uncertainty k = 0.292414
         4         5         6         7     9      180.000000        6.076566         2    ;  uncertainty k = 1.157135
         4         5         6         7     9        0.000000        0.106412         3    ;  uncertainty k = 0.161666
         4         5         6         7     9      180.000000        1.371570         4    ;  uncertainty k = 0.407671
         4         5        10         9     9        0.000000        0.427932         1    ;  uncertainty k = 1.029214
         4         5        10         9     9      180.000000       12.638436         2    ;  uncertainty k = 0.318597
         4         5        10         9     9        0.000000        2.227131         3    ;  uncertainty k = 0.470956
         4         5        10         9     9      180.000000        1.437848         4    ;  uncertainty k = 0.260470
         5         4         1        11     9        0.000000       -0.189602         1    ;  uncertainty k = 0.394616
         5         4         1        11     9      180.000000       11.233636         2    ;  uncertainty k = 0.435508
         5         4         1        11     9        0.000000        0.975271         3    ;  uncertainty k = 0.174800
         5         4         1        11     9      180.000000        1.594279         4    ;  uncertainty k = 0.138017
         5         6         3        12     9        0.000000        0.057012         1    ;  uncertainty k = 0.806824
         5         6         3        12     9      180.000000        4.971756         2    ;  uncertainty k = 0.553690
         5         6         3        12     9        0.000000        1.031184         3    ;  uncertainty k = 0.229537
         5         6         3        12     9      180.000000        1.247075         4    ;  uncertainty k = 0.341512
         5         6         7         8     9        0.000000       -0.121918         1    ;  uncertainty k = 0.899148
         5         6         7         8     9      180.000000       11.592838         2    ;  uncertainty k = 0.635161
         5         6         7         8     9        0.000000        1.459268         3    ;  uncertainty k = 0.284518
         5         6         7         8     9      180.000000        1.335516         4    ;  uncertainty k = 0.320568
         5        10         9         8     9        0.000000        0.013311         1    ;  uncertainty k = 0.131653
         5        10         9         8     9      180.000000       17.231919         2    ;  uncertainty k = 0.196674
         5        10         9         8     9        0.000000        0.888029         3    ;  uncertainty k = 0.629562
         5        10         9         8     9      180.000000        1.519865         4    ;  uncertainty k = 0.234840
         5        10         9        33     9        0.000000        0.424411         1    ;  uncertainty k = 0.517708
         5        10         9        33     9      180.000000       19.045700         2    ;  uncertainty k = 0.443936
         5        10         9        33     9        0.000000        2.354564         3    ;  uncertainty k = 0.582721
         5        10         9        33     9      180.000000        1.407429         4    ;  uncertainty k = 0.336465
         6         3         2        30     9        0.000000        0.112661         1    ;  uncertainty k = 0.266544
         6         3         2        30     9      180.000000        9.631938         2    ;  uncertainty k = 0.356324
         6         3         2        30     9        0.000000        1.471050         3    ;  uncertainty k = 0.157141
         6         3         2        30     9      180.000000        1.666633         4    ;  uncertainty k = 0.167434
         6         3        12        13     9        0.000000        0.261171         1    ;  uncertainty k = 0.756246
         6         3        12        13     9      180.000000        4.928511         2    ;  uncertainty k = 0.337434
         6         3        12        13     9        0.000000        0.386776         3    ;  uncertainty k = 0.266529
         6         3        12        13     9      180.000000        0.715241         4    ;  uncertainty k = 0.048332
         6         3        12        15     9        0.000000        0.261171         1    ;  uncertainty k = 0.756246
         6         3        12        15     9      180.000000        4.928511         2    ;  uncertainty k = 0.337434
         6         3        12        15     9        0.000000        0.386776         3    ;  uncertainty k = 0.266529
         6         3        12        15     9      180.000000        0.715241         4    ;  uncertainty k = 0.048332
         6         5         4        31     9        0.000000       -0.227944         1    ;  uncertainty k = 0.343151
         6         5         4        31     9      180.000000        5.855722         2    ;  uncertainty k = 0.873789
         6         5         4        31     9        0.000000        1.201888         3    ;  uncertainty k = 0.161541
         6         5         4        31     9      180.000000        1.243551         4    ;  uncertainty k = 0.340266
         6         5        10         9     9        0.000000       -0.066074         1    ;  uncertainty k = 1.326543
         6         5        10         9     9      180.000000       10.119061         2    ;  uncertainty k = 0.624084
         6         5        10         9     9        0.000000        1.274776         3    ;  uncertainty k = 0.483533
         6         5        10         9     9      180.000000        1.288278         4    ;  uncertainty k = 0.224413
         6         7         8         9     9        0.000000        0.032700         1    ;  uncertainty k = 0.371842
         6         7         8         9     9      180.000000       16.595219         2    ;  uncertainty k = 0.331031
         6         7         8         9     9        0.000000        0.830940         3    ;  uncertainty k = 0.755157
         6         7         8         9     9      180.000000        1.569816         4    ;  uncertainty k = 0.254727
         6         7         8        32     9        0.000000        0.273195         1    ;  uncertainty k = 0.534605
         6         7         8        32     9      180.000000       18.195196         2    ;  uncertainty k = 0.528958
         6         7         8        32     9        0.000000        2.346360         3    ;  uncertainty k = 0.656567
         6         7         8        32     9      180.000000        1.630137         4    ;  uncertainty k = 0.414697
         7         6         3        12     9        0.000000        0.151897         1    ;  uncertainty k = 1.257613
         7         6         3        12     9      180.000000        7.317285         2    ;  uncertainty k = 0.655387
         7         6         3        12     9        0.000000        0.768867         3    ;  uncertainty k = 0.536918
         7         6         3        12     9      180.000000        1.167025         4    ;  uncertainty k = 0.254487
         7         6         5        10     9        0.000000       -0.400758         1    ;  uncertainty k = 0.893249
         7         6         5        10     9      180.000000        7.082848         2    ;  uncertainty k = 0.717739
         7         6         5        10     9        0.000000        0.077325         3    ;  uncertainty k = 0.333985
         7         6         5        10     9      180.000000        1.332378         4    ;  uncertainty k = 0.355974
         7         8         9        10     9        0.000000       -0.202866         1    ;  uncertainty k = 0.782206
         7         8         9        10     9      180.000000       12.112991         2    ;  uncertainty k = 0.805807
         7         8         9        10     9        0.000000       -1.599825         3    ;  uncertainty k = 0.569696
         7         8         9        10     9      180.000000        0.918172         4    ;  uncertainty k = 0.463986
         7         8         9        33     9        0.000000        0.036887         1    ;  uncertainty k = 0.700692
         7         8         9        33     9      180.000000        6.513920         2    ;  uncertainty k = 1.135261
         7         8         9        33     9        0.000000        0.521732         3    ;  uncertainty k = 0.385188
         7         8         9        33     9      180.000000        1.117821         4    ;  uncertainty k = 0.330142
        10         5         4        31     9        0.000000        0.139927         1    ;  uncertainty k = 0.233388
        10         5         4        31     9      180.000000        8.199302         2    ;  uncertainty k = 0.492393
        10         5         4        31     9        0.000000        1.032825         3    ;  uncertainty k = 0.329116
        10         5         4        31     9      180.000000        1.219854         4    ;  uncertainty k = 0.291231
        10         9         8        32     9        0.000000       -0.033262         1    ;  uncertainty k = 0.634830
        10         9         8        32     9      180.000000        6.504272         2    ;  uncertainty k = 1.136878
        10         9         8        32     9        0.000000        0.521238         3    ;  uncertainty k = 0.433609
        10         9         8        32     9      180.000000        1.070757         4    ;  uncertainty k = 0.343719
        11         1         2        30     9        0.000000       -0.452049         1    ;  uncertainty k = 0.327503
        11         1         2        30     9      180.000000        6.961909         2    ;  uncertainty k = 0.390567
        11         1         2        30     9        0.000000        0.803667         3    ;  uncertainty k = 0.225958
        11         1         2        30     9      180.000000        1.176718         4    ;  uncertainty k = 0.121576
        11         1         4        31     9        0.000000       -0.570256         1    ;  uncertainty k = 0.225437
        11         1         4        31     9      180.000000        8.036469         2    ;  uncertainty k = 0.539841
        11         1         4        31     9        0.000000        0.826404         3    ;  uncertainty k = 0.259178
        11         1         4        31     9      180.000000        1.188346         4    ;  uncertainty k = 0.226655
        11        18        19        20     9        0.000000        0.284522         1    ;  uncertainty k = 0.937481
        11        18        19        20     9      180.000000        8.701419         2    ;  uncertainty k = 0.854399
        11        18        19        20     9        0.000000        0.836725         3    ;  uncertainty k = 0.185927
        11        18        19        20     9      180.000000        1.496108         4    ;  uncertainty k = 0.299674
        11        18        19        39     9        0.000000        0.007093         1    ;  uncertainty k = 0.499750
        11        18        19        39     9      180.000000        5.972503         2    ;  uncertainty k = 0.983101
        11        18        19        39     9        0.000000        0.942185         3    ;  uncertainty k = 0.273147
        11        18        19        39     9      180.000000        1.158934         4    ;  uncertainty k = 0.246634
        11        18        23        22     9        0.000000       -0.020825         1    ;  uncertainty k = 0.416437
        11        18        23        22     9      180.000000        7.821352         2    ;  uncertainty k = 0.442940
        11        18        23        22     9        0.000000        1.029527         3    ;  uncertainty k = 0.210995
        11        18        23        22     9      180.000000        1.524188         4    ;  uncertainty k = 0.257372
        11        18        23        24     9        0.000000       -0.506013         1    ;  uncertainty k = 0.475729
        11        18        23        24     9      180.000000        7.636455         2    ;  uncertainty k = 0.878998
        11        18        23        24     9        0.000000        1.159105         3    ;  uncertainty k = 0.332203
        11        18        23        24     9      180.000000        1.400877         4    ;  uncertainty k = 0.254665
        12         3         2        30     9        0.000000        0.150521         1    ;  uncertainty k = 0.257893
        12         3         2        30     9      180.000000        8.506221         2    ;  uncertainty k = 0.269368
        12         3         2        30     9        0.000000        1.031284         3    ;  uncertainty k = 0.150544
        12         3         2        30     9      180.000000        1.392268         4    ;  uncertainty k = 0.293606
        12        13        14        17     9        0.000000       -0.098515         1    ;  uncertainty k = 0.325741
        12        13        14        17     9      180.000000       13.478847         2    ;  uncertainty k = 0.209052
        12        13        14        17     9        0.000000       -0.724662         3    ;  uncertainty k = 0.398599
        12        13        14        17     9      180.000000        0.822311         4    ;  uncertainty k = 0.260296
        12        13        14        36     9        0.000000       -0.073273         1    ;  uncertainty k = 0.109559
        12        13        14        36     9      180.000000        7.985298         2    ;  uncertainty k = 0.307122
        12        13        14        36     9        0.000000        1.356102         3    ;  uncertainty k = 0.242947
        12        13        14        36     9      180.000000        1.869337         4    ;  uncertainty k = 0.184198
        12        15        16        17     9        0.000000       -0.098515         1    ;  uncertainty k = 0.325741
        12        15        16        17     9      180.000000       13.478847         2    ;  uncertainty k = 0.209052
        12        15        16        17     9        0.000000       -0.724662         3    ;  uncertainty k = 0.398599
        12        15        16        17     9      180.000000        0.822311         4    ;  uncertainty k = 0.260296
        12        15        16        38     9        0.000000       -0.073273         1    ;  uncertainty k = 0.109559
        12        15        16        38     9      180.000000        7.985297         2    ;  uncertainty k = 0.307120
        12        15        16        38     9        0.000000        1.356101         3    ;  uncertainty k = 0.242947
        12        15        16        38     9      180.000000        1.869337         4    ;  uncertainty k = 0.184197
        13        12        15        16     9        0.000000       -0.081586         1    ;  uncertainty k = 0.103121
        13        12        15        16     9      180.000000       11.725941         2    ;  uncertainty k = 0.255603
        13        12        15        16     9        0.000000       -0.620677         3    ;  uncertainty k = 0.308034
        13        12        15        16     9      180.000000        0.836675         4    ;  uncertainty k = 0.344905
        13        12        15        37     9        0.000000        0.251869         1    ;  uncertainty k = 0.112267
        13        12        15        37     9      180.000000        7.064816         2    ;  uncertainty k = 0.540813
        13        12        15        37     9        0.000000        1.396412         3    ;  uncertainty k = 0.205032
        13        12        15        37     9      180.000000        1.635303         4    ;  uncertainty k = 0.246312
        13        14        17        16     9        0.000000       -0.141956         1    ;  uncertainty k = 0.208121
        13        14        17        16     9      180.000000       11.497685         2    ;  uncertainty k = 0.398742
        13        14        17        16     9        0.000000       -0.425909         3    ;  uncertainty k = 0.304141
        13        14        17        16     9      180.000000        0.786457         4    ;  uncertainty k = 0.408444
        13        14        17        28     9        0.000000        0.174173         1    ;  uncertainty k = 0.314053
        13        14        17        28     9      180.000000        8.891077         2    ;  uncertainty k = 0.410468
        13        14        17        28     9        0.000000        1.424590         3    ;  uncertainty k = 0.332707
        13        14        17        28     9      180.000000        1.830635         4    ;  uncertainty k = 0.185675
        14        13        12        15     9        0.000000       -0.081586         1    ;  uncertainty k = 0.103121
        14        13        12        15     9      180.000000       11.725941         2    ;  uncertainty k = 0.255603
        14        13        12        15     9        0.000000       -0.620677         3    ;  uncertainty k = 0.308034
        14        13        12        15     9      180.000000        0.836675         4    ;  uncertainty k = 0.344905
        14        17        16        15     9        0.000000       -0.141956         1    ;  uncertainty k = 0.208121
        14        17        16        15     9      180.000000       11.497685         2    ;  uncertainty k = 0.398742
        14        17        16        15     9        0.000000       -0.425909         3    ;  uncertainty k = 0.304141
        14        17        16        15     9      180.000000        0.786457         4    ;  uncertainty k = 0.408444
        14        17        16        38     9        0.000000        0.093152         1    ;  uncertainty k = 0.211402
        14        17        16        38     9      180.000000        7.054098         2    ;  uncertainty k = 0.467527
        14        17        16        38     9        0.000000        1.422751         3    ;  uncertainty k = 0.362667
        14        17        16        38     9      180.000000        1.632844         4    ;  uncertainty k = 0.131790
        14        17        28        29     9        0.000000       -0.651211         1    ;  uncertainty k = 0.401623
        14        17        28        29     9      180.000000        1.947535         2    ;  uncertainty k = 0.155603
        14        17        28        29     9        0.000000        0.520890         3    ;  uncertainty k = 0.089497
        14        17        28        29     9      180.000000        0.437430         4    ;  uncertainty k = 0.017357
        14        17        28        45     9        0.000000       -0.008939         1    ;  uncertainty k = 0.250944
        14        17        28        45     9      180.000000        1.742876         2    ;  uncertainty k = 0.230739
        14        17        28        45     9        0.000000        0.471184         3    ;  uncertainty k = 0.076984
        14        17        28        45     9      180.000000        0.193136         4    ;  uncertainty k = 0.028676
        14        17        28        46     9        0.000000       -0.008939         1    ;  uncertainty k = 0.250944
        14        17        28        46     9      180.000000        1.742876         2    ;  uncertainty k = 0.230739
        14        17        28        46     9        0.000000        0.471184         3    ;  uncertainty k = 0.076984
        14        17        28        46     9      180.000000        0.193136         4    ;  uncertainty k = 0.028676
        15        12        13        35     9        0.000000        0.251869         1    ;  uncertainty k = 0.112267
        15        12        13        35     9      180.000000        7.064816         2    ;  uncertainty k = 0.540813
        15        12        13        35     9        0.000000        1.396412         3    ;  uncertainty k = 0.205032
        15        12        13        35     9      180.000000        1.635303         4    ;  uncertainty k = 0.246312
        15        16        17        28     9        0.000000        0.174173         1    ;  uncertainty k = 0.314053
        15        16        17        28     9      180.000000        8.891077         2    ;  uncertainty k = 0.410468
        15        16        17        28     9        0.000000        1.424590         3    ;  uncertainty k = 0.332707
        15        16        17        28     9      180.000000        1.830635         4    ;  uncertainty k = 0.185675
        16        17        14        36     9        0.000000        0.093153         1    ;  uncertainty k = 0.211402
        16        17        14        36     9      180.000000        7.054097         2    ;  uncertainty k = 0.467527
        16        17        14        36     9        0.000000        1.422750         3    ;  uncertainty k = 0.362668
        16        17        14        36     9      180.000000        1.632843         4    ;  uncertainty k = 0.131790
        16        17        28        29     9        0.000000       -0.651211         1    ;  uncertainty k = 0.401623
        16        17        28        29     9      180.000000        1.947535         2    ;  uncertainty k = 0.155603
        16        17        28        29     9        0.000000        0.520890         3    ;  uncertainty k = 0.089497
        16        17        28        29     9      180.000000        0.437430         4    ;  uncertainty k = 0.017357
        16        17        28        45     9        0.000000       -0.008939         1    ;  uncertainty k = 0.250944
        16        17        28        45     9      180.000000        1.742876         2    ;  uncertainty k = 0.230739
        16        17        28        45     9        0.000000        0.471184         3    ;  uncertainty k = 0.076984
        16        17        28        45     9      180.000000        0.193136         4    ;  uncertainty k = 0.028676
        16        17        28        46     9        0.000000       -0.008939         1    ;  uncertainty k = 0.250944
        16        17        28        46     9      180.000000        1.742876         2    ;  uncertainty k = 0.230739
        16        17        28        46     9        0.000000        0.471184         3    ;  uncertainty k = 0.076984
        16        17        28        46     9      180.000000        0.193136         4    ;  uncertainty k = 0.028676
        17        14        13        35     9        0.000000        0.033378         1    ;  uncertainty k = 0.165554
        17        14        13        35     9      180.000000        7.704053         2    ;  uncertainty k = 0.362585
        17        14        13        35     9        0.000000        1.381961         3    ;  uncertainty k = 0.277062
        17        14        13        35     9      180.000000        1.879479         4    ;  uncertainty k = 0.216706
        17        16        15        37     9        0.000000        0.033378         1    ;  uncertainty k = 0.165554
        17        16        15        37     9      180.000000        7.704053         2    ;  uncertainty k = 0.362585
        17        16        15        37     9        0.000000        1.381961         3    ;  uncertainty k = 0.277062
        17        16        15        37     9      180.000000        1.879479         4    ;  uncertainty k = 0.216706
        17        28        29        47     9        0.000000       -0.007060         1    ;  uncertainty k = 0.151627
        17        28        29        47     9      180.000000       -0.427519         2    ;  uncertainty k = 0.370383
        17        28        29        47     9        0.000000        1.461267         3    ;  uncertainty k = 0.066247
        17        28        29        47     9      180.000000       -0.053111         4    ;  uncertainty k = 0.054641
        17        28        29        48     9        0.000000       -0.007060         1    ;  uncertainty k = 0.151627
        17        28        29        48     9      180.000000       -0.427519         2    ;  uncertainty k = 0.370383
        17        28        29        48     9        0.000000        1.461267         3    ;  uncertainty k = 0.066247
        17        28        29        48     9      180.000000       -0.053111         4    ;  uncertainty k = 0.054641
        17        28        29        49     9        0.000000       -0.007060         1    ;  uncertainty k = 0.151627
        17        28        29        49     9      180.000000       -0.427519         2    ;  uncertainty k = 0.370383
        17        28        29        49     9        0.000000        1.461267         3    ;  uncertainty k = 0.066247
        17        28        29        49     9      180.000000       -0.053111         4    ;  uncertainty k = 0.054641
        18        19        20        21     9        0.000000        0.036596         1    ;  uncertainty k = 0.371494
        18        19        20        21     9      180.000000       16.597051         2    ;  uncertainty k = 0.304805
        18        19        20        21     9        0.000000        0.966622         3    ;  uncertainty k = 0.517836
        18        19        20        21     9      180.000000        1.451098         4    ;  uncertainty k = 0.177715
        18        23        22        21     9        0.000000       -0.265670         1    ;  uncertainty k = 0.419232
        18        23        22        21     9      180.000000       10.460451         2    ;  uncertainty k = 0.389563
        18        23        22        21     9        0.000000       -0.366509         3    ;  uncertainty k = 0.514479
        18        23        22        21     9      180.000000        0.929899         4    ;  uncertainty k = 0.330295
        18        23        22        41     9        0.000000        0.238370         1    ;  uncertainty k = 0.382236
        18        23        22        41     9      180.000000        7.525225         2    ;  uncertainty k = 0.903253
        18        23        22        41     9        0.000000        1.267263         3    ;  uncertainty k = 0.290614
        18        23        22        41     9      180.000000        1.474858         4    ;  uncertainty k = 0.123421
        18        23        24        25     9        0.000000       -5.228555         1    ;  uncertainty k = 2.158654
        18        23        24        25     9      180.000000       -0.861345         2    ;  uncertainty k = 0.805163
        18        23        24        25     9        0.000000        1.201042         3    ;  uncertainty k = 0.425532
        18        23        24        25     9      180.000000       -0.042324         4    ;  uncertainty k = 0.375368
        18        23        24        26     9        0.000000       -5.228556         1    ;  uncertainty k = 2.158655
        18        23        24        26     9      180.000000       -0.861345         2    ;  uncertainty k = 0.805163
        18        23        24        26     9        0.000000        1.201043         3    ;  uncertainty k = 0.425533
        18        23        24        26     9      180.000000       -0.042324         4    ;  uncertainty k = 0.375368
        18        23        24        27     9        0.000000        0.262419         1    ;  uncertainty k = 1.833672
        18        23        24        27     9      180.000000       -1.026928         2    ;  uncertainty k = 0.798423
        18        23        24        27     9        0.000000        0.956202         3    ;  uncertainty k = 0.348086
        18        23        24        27     9      180.000000        0.178350         4    ;  uncertainty k = 0.195566
        19        18        11        34     9        0.000000        0.917546         1    ;  uncertainty k = 1.463601
        19        18        11        34     9      180.000000        4.182459         2    ;  uncertainty k = 0.765145
        19        18        11        34     9        0.000000       -0.106076         3    ;  uncertainty k = 0.498484
        19        18        11        34     9      180.000000       -0.220151         4    ;  uncertainty k = 0.253379
        19        18        23        22     9        0.000000       -0.438834         1    ;  uncertainty k = 0.840319
        19        18        23        22     9      180.000000        4.610450         2    ;  uncertainty k = 1.641699
        19        18        23        22     9        0.000000        0.358135         3    ;  uncertainty k = 0.323563
        19        18        23        22     9      180.000000        1.351096         4    ;  uncertainty k = 0.315698
        19        18        23        24     9        0.000000        0.917642         1    ;  uncertainty k = 0.634888
        19        18        23        24     9      180.000000        4.793053         2    ;  uncertainty k = 1.087368
        19        18        23        24     9        0.000000        1.108846         3    ;  uncertainty k = 0.290817
        19        18        23        24     9      180.000000        1.561541         4    ;  uncertainty k = 0.342192
        19        20        21        22     9        0.000000       -0.485016         1    ;  uncertainty k = 0.425215
        19        20        21        22     9      180.000000       15.189731         2    ;  uncertainty k = 0.461239
        19        20        21        22     9        0.000000        1.127628         3    ;  uncertainty k = 0.661679
        19        20        21        22     9      180.000000        1.285431         4    ;  uncertainty k = 0.097277
        19        20        21        40     9        0.000000        0.172532         1    ;  uncertainty k = 0.566096
        19        20        21        40     9      180.000000       15.445790         2    ;  uncertainty k = 0.425751
        19        20        21        40     9        0.000000        2.152702         3    ;  uncertainty k = 0.508048
        19        20        21        40     9      180.000000        1.381411         4    ;  uncertainty k = 0.359273
        20        19        18        23     9        0.000000       -0.562844         1    ;  uncertainty k = 0.540738
        20        19        18        23     9      180.000000        6.748516         2    ;  uncertainty k = 1.268444
        20        19        18        23     9        0.000000        0.077078         3    ;  uncertainty k = 0.370451
        20        19        18        23     9      180.000000        1.216829         4    ;  uncertainty k = 0.295894
        20        21        22        23     9        0.000000       -0.252470         1    ;  uncertainty k = 0.431541
        20        21        22        23     9      180.000000       13.556324         2    ;  uncertainty k = 0.574918
        20        21        22        23     9        0.000000       -1.106331         3    ;  uncertainty k = 1.113055
        20        21        22        23     9      180.000000        0.952273         4    ;  uncertainty k = 0.151718
        20        21        22        41     9        0.000000       -0.068096         1    ;  uncertainty k = 0.262319
        20        21        22        41     9      180.000000        9.165641         2    ;  uncertainty k = 0.726880
        20        21        22        41     9        0.000000        0.979809         3    ;  uncertainty k = 0.350348
        20        21        22        41     9      180.000000        1.652653         4    ;  uncertainty k = 0.185846
        21        20        19        39     9        0.000000        0.508068         1    ;  uncertainty k = 0.686768
        21        20        19        39     9      180.000000       16.706316         2    ;  uncertainty k = 0.583289
        21        20        19        39     9        0.000000        2.361241         3    ;  uncertainty k = 0.235965
        21        20        19        39     9      180.000000        1.517602         4    ;  uncertainty k = 0.508263
        21        22        23        24     9        0.000000        0.601785         1    ;  uncertainty k = 0.840722
        21        22        23        24     9      180.000000        9.254868         2    ;  uncertainty k = 0.664789
        21        22        23        24     9        0.000000        1.560649         3    ;  uncertainty k = 0.502422
        21        22        23        24     9      180.000000        1.838812         4    ;  uncertainty k = 0.146620
        22        23        24        25     9        0.000000       -0.492326         1    ;  uncertainty k = 1.108210
        22        23        24        25     9      180.000000        0.135604         2    ;  uncertainty k = 0.455039
        22        23        24        25     9        0.000000        0.177824         3    ;  uncertainty k = 0.237275
        22        23        24        25     9      180.000000        0.012962         4    ;  uncertainty k = 0.209193
        22        23        24        26     9        0.000000       -0.492326         1    ;  uncertainty k = 1.108209
        22        23        24        26     9      180.000000        0.135603         2    ;  uncertainty k = 0.455040
        22        23        24        26     9        0.000000        0.177824         3    ;  uncertainty k = 0.237274
        22        23        24        26     9      180.000000        0.012963         4    ;  uncertainty k = 0.209193
        22        23        24        27     9        0.000000        3.406872         1    ;  uncertainty k = 1.708514
        22        23        24        27     9      180.000000        0.171419         2    ;  uncertainty k = 0.576994
        22        23        24        27     9        0.000000       -0.078308         3    ;  uncertainty k = 0.399032
        22        23        24        27     9      180.000000        0.444415         4    ;  uncertainty k = 0.155672
        23        18        11        34     9        0.000000        9.262104         1    ;  uncertainty k = 0.773179
        23        18        11        34     9      180.000000        3.945831         2    ;  uncertainty k = 0.536445
        23        18        11        34     9        0.000000        0.752572         3    ;  uncertainty k = 0.273739
        23        18        11        34     9      180.000000       -0.119638         4    ;  uncertainty k = 0.176171
        23        18        19        39     9        0.000000        0.000816         1    ;  uncertainty k = 1.384589
        23        18        19        39     9      180.000000        4.685090         2    ;  uncertainty k = 1.110639
        23        18        19        39     9        0.000000        1.104676         3    ;  uncertainty k = 0.238511
        23        18        19        39     9      180.000000        1.089444         4    ;  uncertainty k = 0.205054
        23        22        21        40     9        0.000000       -0.148525         1    ;  uncertainty k = 0.589763
        23        22        21        40     9      180.000000        6.244193         2    ;  uncertainty k = 0.249576
        23        22        21        40     9        0.000000        1.014104         3    ;  uncertainty k = 0.237437
        23        22        21        40     9      180.000000        1.497615         4    ;  uncertainty k = 0.181166
        23        24        27        42     9        0.000000        2.345204         1    ;  uncertainty k = 0.643496
        23        24        27        42     9      180.000000       -2.433990         2    ;  uncertainty k = 0.375724
        23        24        27        42     9        0.000000        0.170343         3    ;  uncertainty k = 0.101207
        23        24        27        42     9      180.000000        0.001305         4    ;  uncertainty k = 0.149206
        23        24        27        43     9        0.000000        2.345204         1    ;  uncertainty k = 0.643496
        23        24        27        43     9      180.000000       -2.433990         2    ;  uncertainty k = 0.375724
        23        24        27        43     9        0.000000        0.170343         3    ;  uncertainty k = 0.101207
        23        24        27        43     9      180.000000        0.001305         4    ;  uncertainty k = 0.149206
        23        24        27        44     9        0.000000        2.345204         1    ;  uncertainty k = 0.643496
        23        24        27        44     9      180.000000       -2.433990         2    ;  uncertainty k = 0.375724
        23        24        27        44     9        0.000000        0.170343         3    ;  uncertainty k = 0.101207
        23        24        27        44     9      180.000000        0.001305         4    ;  uncertainty k = 0.149206
        24        23        22        41     9        0.000000       -0.424035         1    ;  uncertainty k = 0.616074
        24        23        22        41     9      180.000000        7.010378         2    ;  uncertainty k = 0.550571
        24        23        22        41     9        0.000000        0.781435         3    ;  uncertainty k = 0.169299
        24        23        22        41     9      180.000000        1.269235         4    ;  uncertainty k = 0.186787
        25        24        27        42     9        0.000000       -0.057641         1    ;  uncertainty k = 0.603700
        25        24        27        42     9      180.000000       -0.366449         2    ;  uncertainty k = 0.288160
        25        24        27        42     9        0.000000        0.801561         3    ;  uncertainty k = 0.057211
        25        24        27        42     9      180.000000        0.039211         4    ;  uncertainty k = 0.101280
        25        24        27        43     9        0.000000       -0.057641         1    ;  uncertainty k = 0.603700
        25        24        27        43     9      180.000000       -0.366449         2    ;  uncertainty k = 0.288160
        25        24        27        43     9        0.000000        0.801561         3    ;  uncertainty k = 0.057211
        25        24        27        43     9      180.000000        0.039211         4    ;  uncertainty k = 0.101280
        25        24        27        44     9        0.000000       -0.057641         1    ;  uncertainty k = 0.603700
        25        24        27        44     9      180.000000       -0.366449         2    ;  uncertainty k = 0.288160
        25        24        27        44     9        0.000000        0.801561         3    ;  uncertainty k = 0.057211
        25        24        27        44     9      180.000000        0.039211         4    ;  uncertainty k = 0.101280
        26        24        27        42     9        0.000000       -0.057641         1    ;  uncertainty k = 0.603701
        26        24        27        42     9      180.000000       -0.366450         2    ;  uncertainty k = 0.288160
        26        24        27        42     9        0.000000        0.801561         3    ;  uncertainty k = 0.057211
        26        24        27        42     9      180.000000        0.039212         4    ;  uncertainty k = 0.101280
        26        24        27        43     9        0.000000       -0.057641         1    ;  uncertainty k = 0.603701
        26        24        27        43     9      180.000000       -0.366450         2    ;  uncertainty k = 0.288160
        26        24        27        43     9        0.000000        0.801561         3    ;  uncertainty k = 0.057211
        26        24        27        43     9      180.000000        0.039212         4    ;  uncertainty k = 0.101280
        26        24        27        44     9        0.000000       -0.057641         1    ;  uncertainty k = 0.603701
        26        24        27        44     9      180.000000       -0.366450         2    ;  uncertainty k = 0.288160
        26        24        27        44     9        0.000000        0.801561         3    ;  uncertainty k = 0.057211
        26        24        27        44     9      180.000000        0.039212         4    ;  uncertainty k = 0.101280
        28        17        14        36     9        0.000000       -0.224458         1    ;  uncertainty k = 0.310273
        28        17        14        36     9      180.000000        7.823161         2    ;  uncertainty k = 0.230554
        28        17        14        36     9        0.000000        0.591907         3    ;  uncertainty k = 0.302130
        28        17        14        36     9      180.000000        0.955259         4    ;  uncertainty k = 0.171706
        28        17        16        38     9        0.000000       -0.224459         1    ;  uncertainty k = 0.310274
        28        17        16        38     9      180.000000        7.823163         2    ;  uncertainty k = 0.230552
        28        17        16        38     9        0.000000        0.591907         3    ;  uncertainty k = 0.302130
        28        17        16        38     9      180.000000        0.955260         4    ;  uncertainty k = 0.171707
        32         8         9        33     9        0.000000       -0.152652         1    ;  uncertainty k = 0.805688
        32         8         9        33     9      180.000000        5.398109         2    ;  uncertainty k = 0.723628
        32         8         9        33     9        0.000000        0.147471         3    ;  uncertainty k = 0.248173
        32         8         9        33     9      180.000000        0.216442         4    ;  uncertainty k = 0.153410
        35        13        14        36     9        0.000000       -0.166251         1    ;  uncertainty k = 0.055404
        35        13        14        36     9      180.000000        7.852746         2    ;  uncertainty k = 0.325428
        35        13        14        36     9        0.000000       -0.518701         3    ;  uncertainty k = 0.265914
        35        13        14        36     9      180.000000        0.184829         4    ;  uncertainty k = 0.175470
        37        15        16        38     9        0.000000       -0.166251         1    ;  uncertainty k = 0.055405
        37        15        16        38     9      180.000000        7.852745         2    ;  uncertainty k = 0.325428
        37        15        16        38     9        0.000000       -0.518702         3    ;  uncertainty k = 0.265913
        37        15        16        38     9      180.000000        0.184829         4    ;  uncertainty k = 0.175470
        40        21        22        41     9        0.000000       -0.307962         1    ;  uncertainty k = 0.440104
        40        21        22        41     9      180.000000        6.502709         2    ;  uncertainty k = 0.379417
        40        21        22        41     9        0.000000       -0.130867         3    ;  uncertainty k = 0.246878
        40        21        22        41     9      180.000000        0.283979         4    ;  uncertainty k = 0.141773
        45        28        29        47     9        0.000000        0.502175         1    ;  uncertainty k = 0.190244
        45        28        29        47     9      180.000000       -0.610325         2    ;  uncertainty k = 0.247144
        45        28        29        47     9        0.000000        0.712813         3    ;  uncertainty k = 0.035196
        45        28        29        47     9      180.000000        0.004478         4    ;  uncertainty k = 0.030738
        45        28        29        48     9        0.000000        0.502175         1    ;  uncertainty k = 0.190244
        45        28        29        48     9      180.000000       -0.610325         2    ;  uncertainty k = 0.247144
        45        28        29        48     9        0.000000        0.712813         3    ;  uncertainty k = 0.035196
        45        28        29        48     9      180.000000        0.004478         4    ;  uncertainty k = 0.030738
        45        28        29        49     9        0.000000        0.502175         1    ;  uncertainty k = 0.190244
        45        28        29        49     9      180.000000       -0.610325         2    ;  uncertainty k = 0.247144
        45        28        29        49     9        0.000000        0.712813         3    ;  uncertainty k = 0.035196
        45        28        29        49     9      180.000000        0.004478         4    ;  uncertainty k = 0.030738
        46        28        29        47     9        0.000000        0.502175         1    ;  uncertainty k = 0.190244
        46        28        29        47     9      180.000000       -0.610325         2    ;  uncertainty k = 0.247144
        46        28        29        47     9        0.000000        0.712813         3    ;  uncertainty k = 0.035196
        46        28        29        47     9      180.000000        0.004478         4    ;  uncertainty k = 0.030738
        46        28        29        48     9        0.000000        0.502175         1    ;  uncertainty k = 0.190244
        46        28        29        48     9      180.000000       -0.610325         2    ;  uncertainty k = 0.247144
        46        28        29        48     9        0.000000        0.712813         3    ;  uncertainty k = 0.035196
        46        28        29        48     9      180.000000        0.004478         4    ;  uncertainty k = 0.030738
        46        28        29        49     9        0.000000        0.502175         1    ;  uncertainty k = 0.190244
        46        28        29        49     9      180.000000       -0.610325         2    ;  uncertainty k = 0.247144
        46        28        29        49     9        0.000000        0.712813         3    ;  uncertainty k = 0.035196
        46        28        29        49     9      180.000000        0.004478         4    ;  uncertainty k = 0.030738

[ dihedrals ] ; impropers
;       ai        aj        ak        al funct           phase               k        pn
         1         2         4        11     4      180.000000       20.656996         2    ;  uncertainty k = 0.063650
         1         4        11         2     4      180.000000       20.656996         2    ;  uncertainty k = 0.063650
         1        11         2         4     4      180.000000       20.656996         2    ;  uncertainty k = 0.063650
         2         1         3        30     4      180.000000        3.170965         2    ;  uncertainty k = 0.344238
         2         3        30         1     4      180.000000        3.170965         2    ;  uncertainty k = 0.344238
         2        30         1         3     4      180.000000        3.170965         2    ;  uncertainty k = 0.344238
         3         2         6        12     4      180.000000       18.048186         2    ;  uncertainty k = 0.112676
         3         6        12         2     4      180.000000       18.048186         2    ;  uncertainty k = 0.112676
         3        12         2         6     4      180.000000       18.048186         2    ;  uncertainty k = 0.112676
         4         1         5        31     4      180.000000        2.538906         2    ;  uncertainty k = 0.373105
         4         5        31         1     4      180.000000        2.538906         2    ;  uncertainty k = 0.373105
         4        31         1         5     4      180.000000        2.538906         2    ;  uncertainty k = 0.373105
         5         4         6        10     4      180.000000       18.452158         2    ;  uncertainty k = 0.055457
         5         6        10         4     4      180.000000       18.452158         2    ;  uncertainty k = 0.055457
         5        10         4         6     4      180.000000       18.452158         2    ;  uncertainty k = 0.055457
         6         3         5         7     4      180.000000       16.651839         2    ;  uncertainty k = 0.073584
         6         5         7         3     4      180.000000       16.651839         2    ;  uncertainty k = 0.073584
         6         7         3         5     4      180.000000       16.651839         2    ;  uncertainty k = 0.073584
         8         7         9        32     4      180.000000       12.058352         2    ;  uncertainty k = 0.155869
         8         9        32         7     4      180.000000       12.058352         2    ;  uncertainty k = 0.155869
         8        32         7         9     4      180.000000       12.058352         2    ;  uncertainty k = 0.155869
         9         8        10        33     4      180.000000       11.948848         2    ;  uncertainty k = 0.101429
         9        10        33         8     4      180.000000       11.948848         2    ;  uncertainty k = 0.101429
         9        33         8        10     4      180.000000       11.948848         2    ;  uncertainty k = 0.101429
        11         1        18        34     4      180.000000        1.379952         2    ;  uncertainty k = 1.192013
        11        18        34         1     4      180.000000        1.379952         2    ;  uncertainty k = 1.192013
        11        34         1        18     4      180.000000        1.379952         2    ;  uncertainty k = 1.192013
        12         3        13        15     4      180.000000       12.728774         2    ;  uncertainty k = 0.115301
        12        13        15         3     4      180.000000       12.728774         2    ;  uncertainty k = 0.115301
        12        15         3        13     4      180.000000       12.728774         2    ;  uncertainty k = 0.115301
        13        12        14        35     4      180.000000        3.913673         2    ;  uncertainty k = 0.123423
        13        14        35        12     4      180.000000        3.913673         2    ;  uncertainty k = 0.123423
        13        35        12        14     4      180.000000        3.913673         2    ;  uncertainty k = 0.123423
        14        13        17        36     4      180.000000        3.942627         2    ;  uncertainty k = 0.097782
        14        17        36        13     4      180.000000        3.942627         2    ;  uncertainty k = 0.097782
        14        36        13        17     4      180.000000        3.942627         2    ;  uncertainty k = 0.097782
        15        12        16        37     4      180.000000        3.913673         2    ;  uncertainty k = 0.123423
        15        16        37        12     4      180.000000        3.913673         2    ;  uncertainty k = 0.123423
        15        37        12        16     4      180.000000        3.913673         2    ;  uncertainty k = 0.123423
        16        15        17        38     4      180.000000        3.942626         2    ;  uncertainty k = 0.097782
        16        17        38        15     4      180.000000        3.942626         2    ;  uncertainty k = 0.097782
        16        38        15        17     4      180.000000        3.942626         2    ;  uncertainty k = 0.097782
        17        14        16        28     4      180.000000       14.408705         2    ;  uncertainty k = 0.054802
        17        16        28        14     4      180.000000       14.408705         2    ;  uncertainty k = 0.054802
        17        28        14        16     4      180.000000       14.408705         2    ;  uncertainty k = 0.054802
        18        11        19        23     4      180.000000       22.010771         2    ;  uncertainty k = 0.077536
        18        19        23        11     4      180.000000       22.010771         2    ;  uncertainty k = 0.077536
        18        23        11        19     4      180.000000       22.010771         2    ;  uncertainty k = 0.077536
        19        18        20        39     4      180.000000       10.900442         2    ;  uncertainty k = 0.192114
        19        20        39        18     4      180.000000       10.900442         2    ;  uncertainty k = 0.192114
        19        39        18        20     4      180.000000       10.900442         2    ;  uncertainty k = 0.192114
        21        20        22        40     4      180.000000       11.385376         2    ;  uncertainty k = 0.107036
        21        22        40        20     4      180.000000       11.385376         2    ;  uncertainty k = 0.107036
        21        40        20        22     4      180.000000       11.385376         2    ;  uncertainty k = 0.107036
        22        21        23        41     4      180.000000        4.322239         2    ;  uncertainty k = 0.262311
        22        23        41        21     4      180.000000        4.322239         2    ;  uncertainty k = 0.262311
        22        41        21        23     4      180.000000        4.322239         2    ;  uncertainty k = 0.262311
        23        18        22        24     4      180.000000        5.945008         2    ;  uncertainty k = 0.459977
        23        22        24        18     4      180.000000        5.945008         2    ;  uncertainty k = 0.459977
        23        24        18        22     4      180.000000        5.945008         2    ;  uncertainty k = 0.459977

[ pairs ]
;       ai        aj funct
         1         6     1
         1        10     1
         1        12     1
         1        19     1
         1        23     1
         2         5     1
         2         7     1
         2        13     1
         2        15     1
         2        18     1
         2        31     1
         2        34     1
         3         4     1
         3         8     1
         3        10     1
         3        11     1
         3        14     1
         3        16     1
         3        35     1
         3        37     1
         4         7     1
         4         9     1
         4        18     1
         4        30     1
         4        34     1
         5         8     1
         5        11     1
         5        12     1
         5        33     1
         6         9     1
         6        13     1
         6        15     1
         6        30     1
         6        31     1
         6        32     1
         7        10     1
         7        12     1
         7        33     1
        10        31     1
        10        32     1
        11        20     1
        11        22     1
        11        24     1
        11        30     1
        11        31     1
        11        39     1
        12        17     1
        12        30     1
        12        36     1
        12        38     1
        13        16     1
        13        28     1
        13        37     1
        14        15     1
        14        29     1
        14        38     1
        14        45     1
        14        46     1
        15        28     1
        15        35     1
        16        29     1
        16        36     1
        16        45     1
        16        46     1
        17        35     1
        17        37     1
        17        47     1
        17        48     1
        17        49     1
        18        21     1
        18        25     1
        18        26     1
        18        27     1
        18        41     1
        19        22     1
        19        24     1
        19        34     1
        19        40     1
        20        23     1
        20        41     1
        21        24     1
        21        39     1
        22        25     1
        22        26     1
        22        27     1
        23        34     1
        23        39     1
        23        40     1
        23        42     1
        23        43     1
        23        44     1
        24        41     1
        25        42     1
        25        43     1
        25        44     1
        26        42     1
        26        43     1
        26        44     1
        28        36     1
        28        38     1
        32        33     1
        35        36     1
        37        38     1
        40        41     1
        45        47     1
        45        48     1
        45        49     1
        46        47     1
        46        48     1
        46        49     1
