; ITP file created by ByteFF-joint-25, 2026-02-17 09:21:35.550201

[ atomtypes ]
;name           bonded.type        at.num        mass        charge   ptype           sigma         epsilon
 c0bf                                   6      0.0000       0.00000       A     3.31500e-01     4.12773e-01    ;  uncertainty sigma = 0.000010, epsilon = 0.000688
 c1bf                                   6      0.0000       0.00000       A     3.31509e-01     4.13539e-01    ;  uncertainty sigma = 0.000009, epsilon = 0.000465
 c2bf                                   6      0.0000       0.00000       A     3.31538e-01     4.13732e-01    ;  uncertainty sigma = 0.000012, epsilon = 0.001772
 c3bf                                   6      0.0000       0.00000       A     3.31494e-01     4.13424e-01    ;  uncertainty sigma = 0.000006, epsilon = 0.000718
 c4bf                                   6      0.0000       0.00000       A     3.31516e-01     4.13470e-01    ;  uncertainty sigma = 0.000011, epsilon = 0.000986
 c5bf                                   6      0.0000       0.00000       A     3.31521e-01     4.13012e-01    ;  uncertainty sigma = 0.000010, epsilon = 0.001115
 n6bf                                   7      0.0000       0.00000       A     3.38415e-01     3.93854e-01    ;  uncertainty sigma = 0.000010, epsilon = 0.001066
 c7bf                                   6      0.0000       0.00000       A     3.31531e-01     4.13178e-01    ;  uncertainty sigma = 0.000013, epsilon = 0.000482
 c8bf                                   6      0.0000       0.00000       A     3.31530e-01     4.13238e-01    ;  uncertainty sigma = 0.000010, epsilon = 0.000599
 n9bf                                   7      0.0000       0.00000       A     3.38414e-01     3.93827e-01    ;  uncertainty sigma = 0.000003, epsilon = 0.000862
 c10bf                                  6      0.0000       0.00000       A     3.31517e-01     4.13332e-01    ;  uncertainty sigma = 0.000011, epsilon = 0.000930
 c11bf                                  6      0.0000       0.00000       A     3.31525e-01     4.13343e-01    ;  uncertainty sigma = 0.000008, epsilon = 0.000539
 c12bf                                  6      0.0000       0.00000       A     3.31518e-01     4.13375e-01    ;  uncertainty sigma = 0.000006, epsilon = 0.000482
 c13bf                                  6      0.0000       0.00000       A     3.31559e-01     4.13062e-01    ;  uncertainty sigma = 0.000018, epsilon = 0.000878
 c14bf                                  6      0.0000       0.00000       A     3.31518e-01     4.13375e-01    ;  uncertainty sigma = 0.000006, epsilon = 0.000482
 c15bf                                  6      0.0000       0.00000       A     3.31525e-01     4.13343e-01    ;  uncertainty sigma = 0.000008, epsilon = 0.000539
 n16bf                                  7      0.0000       0.00000       A     3.27956e-01     6.47518e-01    ;  uncertainty sigma = 0.000036, epsilon = 0.003822
 c17bf                                  6      0.0000       0.00000       A     3.31502e-01     4.13462e-01    ;  uncertainty sigma = 0.000018, epsilon = 0.002180
 c18bf                                  6      0.0000       0.00000       A     3.31532e-01     4.13419e-01    ;  uncertainty sigma = 0.000012, epsilon = 0.000931
 n19bf                                  7      0.0000       0.00000       A     3.38420e-01     3.93806e-01    ;  uncertainty sigma = 0.000013, epsilon = 0.000881
 c20bf                                  6      0.0000       0.00000       A     3.31513e-01     4.13350e-01    ;  uncertainty sigma = 0.000011, epsilon = 0.000728
 c21bf                                  6      0.0000       0.00000       A     3.31518e-01     4.13124e-01    ;  uncertainty sigma = 0.000015, epsilon = 0.000361
 c22bf                                  6      0.0000       0.00000       A     3.31501e-01     4.13078e-01    ;  uncertainty sigma = 0.000025, epsilon = 0.001598
 s23bf                                 16      0.0000       0.00000       A     4.05775e-01     2.56504e-01    ;  uncertainty sigma = 0.000009, epsilon = 0.002944
 o24bf                                  8      0.0000       0.00000       A     3.04808e-01     6.12058e-01    ;  uncertainty sigma = 0.000011, epsilon = 0.001075
 o25bf                                  8      0.0000       0.00000       A     3.04808e-01     6.12058e-01    ;  uncertainty sigma = 0.000011, epsilon = 0.001075
 c26bf                                  6      0.0000       0.00000       A     3.39790e-01     4.50653e-01    ;  uncertainty sigma = 0.000003, epsilon = 0.000848
 n27bf                                  7      0.0000       0.00000       A     3.36826e-01     4.68523e-01    ;  uncertainty sigma = 0.000038, epsilon = 0.002253
 h28bf                                  1      0.0000       0.00000       A     2.62540e-01     6.71221e-02    ;  uncertainty sigma = 0.000022, epsilon = 0.000645
 h29bf                                  1      0.0000       0.00000       A     2.62566e-01     6.71158e-02    ;  uncertainty sigma = 0.000015, epsilon = 0.000400
 h30bf                                  1      0.0000       0.00000       A     2.53628e-01     6.69333e-02    ;  uncertainty sigma = 0.000020, epsilon = 0.000763
 h31bf                                  1      0.0000       0.00000       A     2.53628e-01     6.69333e-02    ;  uncertainty sigma = 0.000020, epsilon = 0.000763
 h32bf                                  1      0.0000       0.00000       A     2.62563e-01     6.70802e-02    ;  uncertainty sigma = 0.000011, epsilon = 0.000555
 h33bf                                  1      0.0000       0.00000       A     2.62550e-01     6.70404e-02    ;  uncertainty sigma = 0.000013, epsilon = 0.000387
 h34bf                                  1      0.0000       0.00000       A     2.62550e-01     6.70405e-02    ;  uncertainty sigma = 0.000013, epsilon = 0.000387
 h35bf                                  1      0.0000       0.00000       A     2.62563e-01     6.70802e-02    ;  uncertainty sigma = 0.000011, epsilon = 0.000555
 h36bf                                  1      0.0000       0.00000       A     1.10720e-01     4.14039e-02    ;  uncertainty sigma = 0.000106, epsilon = 0.001477
 h37bf                                  1      0.0000       0.00000       A     2.53624e-01     6.69778e-02    ;  uncertainty sigma = 0.000049, epsilon = 0.000568
 h38bf                                  1      0.0000       0.00000       A     2.53633e-01     6.70304e-02    ;  uncertainty sigma = 0.000014, epsilon = 0.000494
 h39bf                                  1      0.0000       0.00000       A     2.62533e-01     6.70950e-02    ;  uncertainty sigma = 0.000019, epsilon = 0.000754
 h40bf                                  1      0.0000       0.00000       A     2.42167e-01     8.68275e-02    ;  uncertainty sigma = 0.000012, epsilon = 0.000620
 h41bf                                  1      0.0000       0.00000       A     2.42167e-01     8.68275e-02    ;  uncertainty sigma = 0.000012, epsilon = 0.000620
 h42bf                                  1      0.0000       0.00000       A     2.42167e-01     8.68275e-02    ;  uncertainty sigma = 0.000012, epsilon = 0.000620
 h43bf                                  1      0.0000       0.00000       A     1.10707e-01     4.12908e-02    ;  uncertainty sigma = 0.000048, epsilon = 0.000456
 h44bf                                  1      0.0000       0.00000       A     1.10707e-01     4.12908e-02    ;  uncertainty sigma = 0.000048, epsilon = 0.000456

[ moleculetype ]
;name             nrexcl
 MOL                   3

[ atoms ]
;       nr            type      resi   res      atom      cgnr      charge          mass ; qtot
         1            c0bf         1   UNL        c0         1    -0.02497       12.0110 ; qtot   -0.025
         2            c1bf         1   UNL        c1         2    -0.22162       12.0110 ; qtot   -0.247
         3            c2bf         1   UNL        c2         3     0.17383       12.0110 ; qtot   -0.073
         4            c3bf         1   UNL        c3         4    -0.15971       12.0110 ; qtot   -0.232
         5            c4bf         1   UNL        c4         5     0.32340       12.0110 ; qtot    0.091
         6            c5bf         1   UNL        c5         6     0.27599       12.0110 ; qtot    0.367
         7            n6bf         1   UNL        n6         7    -0.61814       14.0070 ; qtot   -0.251
         8            c7bf         1   UNL        c7         8     0.29560       12.0110 ; qtot    0.044
         9            c8bf         1   UNL        c8         9     0.29621       12.0110 ; qtot    0.341
        10            n9bf         1   UNL        n9        10    -0.62862       14.0070 ; qtot   -0.288
        11           c10bf         1   UNL       c10        11    -0.07169       12.0110 ; qtot   -0.360
        12           c11bf         1   UNL       c11        12    -0.07117       12.0110 ; qtot   -0.431
        13           c12bf         1   UNL       c12        13    -0.19881       12.0110 ; qtot   -0.630
        14           c13bf         1   UNL       c13        14     0.14482       12.0110 ; qtot   -0.485
        15           c14bf         1   UNL       c14        15    -0.19881       12.0110 ; qtot   -0.684
        16           c15bf         1   UNL       c15        16    -0.07117       12.0110 ; qtot   -0.755
        17           n16bf         1   UNL       n16        17    -0.64735       14.0070 ; qtot   -1.402
        18           c17bf         1   UNL       c17        18     0.15628       12.0110 ; qtot   -1.246
        19           c18bf         1   UNL       c18        19     0.33325       12.0110 ; qtot   -0.913
        20           n19bf         1   UNL       n19        20    -0.60182       14.0070 ; qtot   -1.514
        21           c20bf         1   UNL       c20        21     0.35581       12.0110 ; qtot   -1.159
        22           c21bf         1   UNL       c21        22    -0.13704       12.0110 ; qtot   -1.296
        23           c22bf         1   UNL       c22        23    -0.26398       12.0110 ; qtot   -1.560
        24           s23bf         1   UNL       s23        24     1.01656       32.0670 ; qtot   -0.543
        25           o24bf         1   UNL       o24        25    -0.58472       15.9990 ; qtot   -1.128
        26           o25bf         1   UNL       o25        26    -0.58472       15.9990 ; qtot   -1.713
        27           c26bf         1   UNL       c26        27    -0.18352       12.0110 ; qtot   -1.896
        28           n27bf         1   UNL       n27        28    -0.81187       14.0070 ; qtot   -2.708
        29           h28bf         1   UNL       h28        29     0.15776        1.0080 ; qtot   -2.550
        30           h29bf         1   UNL       h29        30     0.14723        1.0080 ; qtot   -2.403
        31           h30bf         1   UNL       h30        31     0.03380        1.0080 ; qtot   -2.369
        32           h31bf         1   UNL       h31        32     0.03331        1.0080 ; qtot   -2.336
        33           h32bf         1   UNL       h32        33     0.13766        1.0080 ; qtot   -2.198
        34           h33bf         1   UNL       h33        34     0.13133        1.0080 ; qtot   -2.067
        35           h34bf         1   UNL       h34        35     0.13133        1.0080 ; qtot   -1.936
        36           h35bf         1   UNL       h35        36     0.13766        1.0080 ; qtot   -1.798
        37           h36bf         1   UNL       h36        37     0.47844        1.0080 ; qtot   -1.319
        38           h37bf         1   UNL       h37        38     0.03967        1.0080 ; qtot   -1.280
        39           h38bf         1   UNL       h38        39     0.03424        1.0080 ; qtot   -1.246
        40           h39bf         1   UNL       h39        40     0.16807        1.0080 ; qtot   -1.077
        41           h40bf         1   UNL       h40        41     0.10378        1.0080 ; qtot   -0.974
        42           h41bf         1   UNL       h41        42     0.10378        1.0080 ; qtot   -0.870
        43           h42bf         1   UNL       h42        43     0.10378        1.0080 ; qtot   -0.766
        44           h43bf         1   UNL       h43        44     0.38307        1.0080 ; qtot   -0.383
        45           h44bf         1   UNL       h44        45     0.38307        1.0080 ; qtot    0.000

[ bonds ]
;       ai        aj funct               r               k
         1         4     1        0.137983   347565.038330    ;  uncertainty r = 0.000130, k = 16.431331
         1         6     1        0.143060   310262.982666    ;  uncertainty r = 0.000113, k = 16.803920
         1        11     1        0.148067   280645.732715    ;  uncertainty r = 0.000092, k = 14.744724
         2         3     1        0.138770   381943.426953    ;  uncertainty r = 0.000111, k = 9.337646
         2         5     1        0.141431   396079.468311    ;  uncertainty r = 0.000094, k = 15.205670
         2        29     1        0.108811   340366.765625    ;  uncertainty r = 0.000031, k = 1.855831
         3         4     1        0.142028   351861.401611    ;  uncertainty r = 0.000227, k = 12.579464
         3        17     1        0.141414   345942.921143    ;  uncertainty r = 0.000097, k = 12.910217
         4        30     1        0.108882   338495.201953    ;  uncertainty r = 0.000015, k = 3.632238
         5         6     1        0.142978   298967.076465    ;  uncertainty r = 0.000063, k = 15.491496
         5        10     1        0.136382   355171.598340    ;  uncertainty r = 0.000057, k = 8.738544
         6         7     1        0.135780   353419.139746    ;  uncertainty r = 0.000093, k = 12.280365
         7         8     1        0.131584   437137.956152    ;  uncertainty r = 0.000061, k = 11.801030
         8         9     1        0.141378   325245.374902    ;  uncertainty r = 0.000067, k = 16.241067
         8        31     1        0.109180   341408.015723    ;  uncertainty r = 0.000031, k = 1.111543
         9        10     1        0.131606   448634.967090    ;  uncertainty r = 0.000067, k = 6.059784
         9        32     1        0.109175   341608.175586    ;  uncertainty r = 0.000026, k = 2.358932
        11        12     1        0.140261   346504.405566    ;  uncertainty r = 0.000055, k = 3.976295
        11        16     1        0.140261   346504.405566    ;  uncertainty r = 0.000055, k = 3.976295
        12        13     1        0.139029   365384.399121    ;  uncertainty r = 0.000083, k = 2.714266
        12        33     1        0.108738   333860.344287    ;  uncertainty r = 0.000023, k = 0.978807
        13        14     1        0.140713   384434.291064    ;  uncertainty r = 0.000056, k = 2.193541
        13        34     1        0.108976   336398.554199    ;  uncertainty r = 0.000011, k = 0.875473
        14        15     1        0.140713   384434.291064    ;  uncertainty r = 0.000056, k = 2.193541
        14        28     1        0.140545   369259.604395    ;  uncertainty r = 0.000050, k = 6.163199
        15        16     1        0.139029   365384.399121    ;  uncertainty r = 0.000083, k = 2.714278
        15        35     1        0.108976   336398.554199    ;  uncertainty r = 0.000011, k = 0.875466
        16        36     1        0.108738   333860.344287    ;  uncertainty r = 0.000023, k = 0.978803
        17        18     1        0.139103   334487.356934    ;  uncertainty r = 0.000264, k = 9.014045
        17        37     1        0.101492   409720.242969    ;  uncertainty r = 0.000088, k = 5.983715
        18        19     1        0.140927   340447.897021    ;  uncertainty r = 0.000113, k = 16.488682
        18        23     1        0.141356   348414.581348    ;  uncertainty r = 0.000198, k = 15.946785
        19        20     1        0.132524   387119.492578    ;  uncertainty r = 0.000108, k = 11.004632
        19        38     1        0.108905   336131.001904    ;  uncertainty r = 0.000101, k = 3.724292
        20        21     1        0.133802   397972.227783    ;  uncertainty r = 0.000074, k = 5.323604
        21        22     1        0.139170   363105.084424    ;  uncertainty r = 0.000048, k = 3.861484
        21        39     1        0.108994   339519.240039    ;  uncertainty r = 0.000025, k = 1.411838
        22        23     1        0.138845   368349.180908    ;  uncertainty r = 0.000202, k = 14.185244
        22        40     1        0.108610   333138.767725    ;  uncertainty r = 0.000052, k = 1.956170
        23        24     1        0.180205   137177.894727    ;  uncertainty r = 0.000181, k = 18.369787
        24        25     1        0.147757   507438.196289    ;  uncertainty r = 0.000058, k = 6.198409
        24        26     1        0.147757   507438.196289    ;  uncertainty r = 0.000058, k = 6.198409
        24        27     1        0.181050   174448.795117    ;  uncertainty r = 0.000039, k = 9.209375
        27        41     1        0.109286   321567.954541    ;  uncertainty r = 0.000031, k = 1.364985
        27        42     1        0.109286   321567.954541    ;  uncertainty r = 0.000031, k = 1.364985
        27        43     1        0.109286   321567.954541    ;  uncertainty r = 0.000031, k = 1.364985
        28        44     1        0.101328   424606.207080    ;  uncertainty r = 0.000019, k = 1.241012
        28        45     1        0.101328   424606.207080    ;  uncertainty r = 0.000019, k = 1.241012

[ angles ]
;       ai        aj        ak funct           theta             cth
         1         4         3     1      122.325638      516.724447    ;  uncertainty theta = 0.004751, k = 0.261975
         1         4        30     1      118.702614      277.803529    ;  uncertainty theta = 0.004789, k = 0.045317
         1         6         5     1      120.657654      398.206786    ;  uncertainty theta = 0.005930, k = 0.076005
         1         6         7     1      118.045509      466.012089    ;  uncertainty theta = 0.003644, k = 0.235085
         1        11        12     1      120.756592      398.957194    ;  uncertainty theta = 0.002676, k = 0.069757
         1        11        16     1      120.756592      398.957194    ;  uncertainty theta = 0.002676, k = 0.069757
         2         3         4     1      119.354149      388.558004    ;  uncertainty theta = 0.003479, k = 0.061803
         2         3        17     1      122.010719      487.333915    ;  uncertainty theta = 0.006482, k = 0.189293
         2         5         6     1      119.497047      391.821392    ;  uncertainty theta = 0.005347, k = 0.191786
         2         5        10     1      122.312637      528.712396    ;  uncertainty theta = 0.003351, k = 0.210335
         3         2         5     1      118.206688      518.635612    ;  uncertainty theta = 0.002447, k = 0.073028
         3         2        29     1      121.438538      270.401917    ;  uncertainty theta = 0.001365, k = 0.142095
         3         4        30     1      119.378006      284.937384    ;  uncertainty theta = 0.005110, k = 0.129316
         3        17        18     1      115.247620      387.594010    ;  uncertainty theta = 0.002924, k = 0.212981
         3        17        37     1      115.334732      382.605017    ;  uncertainty theta = 0.007384, k = 0.160726
         4         1         6     1      121.244652      456.628638    ;  uncertainty theta = 0.004081, k = 0.131190
         4         1        11     1      121.177383      426.338785    ;  uncertainty theta = 0.003789, k = 0.160928
         4         3        17     1      120.269043      499.771605    ;  uncertainty theta = 0.004775, k = 0.338941
         5         2        29     1      120.837975      275.673543    ;  uncertainty theta = 0.003390, k = 0.103595
         5         6         7     1      119.715538      514.287664    ;  uncertainty theta = 0.004171, k = 0.058520
         5        10         9     1      114.458984      488.266148    ;  uncertainty theta = 0.001996, k = 0.147683
         6         1        11     1      119.196548      399.025250    ;  uncertainty theta = 0.003774, k = 0.227102
         6         5        10     1      119.215195      554.928154    ;  uncertainty theta = 0.007493, k = 0.084178
         6         7         8     1      116.467896      472.703067    ;  uncertainty theta = 0.004318, k = 0.126453
         7         8         9     1      121.240555      622.447314    ;  uncertainty theta = 0.002919, k = 0.205880
         7         8        31     1      116.813492      347.959523    ;  uncertainty theta = 0.001638, k = 0.087624
         8         9        10     1      120.931259      612.842998    ;  uncertainty theta = 0.002470, k = 0.239696
         8         9        32     1      121.868530      283.534439    ;  uncertainty theta = 0.002376, k = 0.096063
         9         8        31     1      121.994606      282.804174    ;  uncertainty theta = 0.002439, k = 0.090842
        10         9        32     1      116.754013      350.159800    ;  uncertainty theta = 0.001533, k = 0.075385
        11        12        13     1      121.634644      520.716025    ;  uncertainty theta = 0.001829, k = 0.104112
        11        12        33     1      119.523682      278.545191    ;  uncertainty theta = 0.002177, k = 0.046941
        11        16        15     1      121.634644      520.716025    ;  uncertainty theta = 0.001829, k = 0.104112
        11        16        36     1      119.523682      278.545191    ;  uncertainty theta = 0.002177, k = 0.046941
        12        11        16     1      119.362610      430.842542    ;  uncertainty theta = 0.002372, k = 0.112148
        12        13        14     1      118.551430      516.788673    ;  uncertainty theta = 0.002305, k = 0.104045
        12        13        34     1      120.948074      285.350032    ;  uncertainty theta = 0.002130, k = 0.034555
        13        12        33     1      119.920677      290.444941    ;  uncertainty theta = 0.001749, k = 0.072100
        13        14        15     1      116.458237      395.388096    ;  uncertainty theta = 0.005683, k = 0.198626
        13        14        28     1      125.181252      574.230634    ;  uncertainty theta = 0.003395, k = 0.067085
        14        13        34     1      119.745651      289.050359    ;  uncertainty theta = 0.002206, k = 0.095616
        14        15        16     1      118.551430      516.788673    ;  uncertainty theta = 0.002305, k = 0.104045
        14        15        35     1      119.745651      289.050359    ;  uncertainty theta = 0.002206, k = 0.095616
        14        28        44     1      113.086136      359.311183    ;  uncertainty theta = 0.001598, k = 0.049771
        14        28        45     1      113.086136      359.311183    ;  uncertainty theta = 0.001598, k = 0.049771
        15        14        28     1      125.181252      574.230634    ;  uncertainty theta = 0.003395, k = 0.067085
        15        16        36     1      119.920677      290.444941    ;  uncertainty theta = 0.001749, k = 0.072100
        16        15        35     1      120.948074      285.350032    ;  uncertainty theta = 0.002130, k = 0.034555
        17        18        19     1      118.512817      444.270049    ;  uncertainty theta = 0.006989, k = 0.276229
        17        18        23     1      122.762405      517.830874    ;  uncertainty theta = 0.007977, k = 0.368248
        18        17        37     1      114.408607      380.718431    ;  uncertainty theta = 0.008156, k = 0.169224
        18        19        20     1      124.922012      667.515332    ;  uncertainty theta = 0.002966, k = 0.161817
        18        19        38     1      118.731201      264.771767    ;  uncertainty theta = 0.008633, k = 0.144655
        18        23        22     1      123.289940      400.819392    ;  uncertainty theta = 0.003703, k = 0.311812
        18        23        24     1      119.668861      323.012448    ;  uncertainty theta = 0.009862, k = 0.668304
        19        18        23     1      118.657333      362.619739    ;  uncertainty theta = 0.004612, k = 0.362834
        19        20        21     1      118.268311      445.304685    ;  uncertainty theta = 0.004478, k = 0.098123
        20        19        38     1      116.579346      347.314743    ;  uncertainty theta = 0.005152, k = 0.066004
        20        21        22     1      122.431076      677.632432    ;  uncertainty theta = 0.002046, k = 0.093657
        20        21        39     1      116.840332      340.667018    ;  uncertainty theta = 0.001197, k = 0.068775
        21        22        23     1      118.808189      483.994204    ;  uncertainty theta = 0.004991, k = 0.079007
        21        22        40     1      122.214798      277.736813    ;  uncertainty theta = 0.004016, k = 0.070187
        22        21        39     1      120.256363      277.546307    ;  uncertainty theta = 0.002265, k = 0.082403
        22        23        24     1      114.589767      352.518854    ;  uncertainty theta = 0.008187, k = 0.213541
        23        22        40     1      119.535904      260.121156    ;  uncertainty theta = 0.004889, k = 0.124126
        23        24        25     1      112.903671      607.682204    ;  uncertainty theta = 0.002869, k = 0.171145
        23        24        26     1      112.903671      607.682204    ;  uncertainty theta = 0.002869, k = 0.171145
        23        24        27     1      104.371536      610.740975    ;  uncertainty theta = 0.002610, k = 0.101867
        24        27        41     1      107.113976      366.636152    ;  uncertainty theta = 0.002061, k = 0.075109
        24        27        42     1      107.113976      366.636152    ;  uncertainty theta = 0.002061, k = 0.075109
        24        27        43     1      107.113976      366.636152    ;  uncertainty theta = 0.002061, k = 0.075109
        25        24        26     1      123.473061      838.268511    ;  uncertainty theta = 0.001927, k = 0.047858
        25        24        27     1      112.603310      748.419640    ;  uncertainty theta = 0.000730, k = 0.122171
        26        24        27     1      112.603310      748.419640    ;  uncertainty theta = 0.000730, k = 0.122171
        41        27        42     1      108.843689      296.191780    ;  uncertainty theta = 0.002069, k = 0.023129
        41        27        43     1      108.843689      296.191780    ;  uncertainty theta = 0.002069, k = 0.023129
        42        27        43     1      108.843689      296.191780    ;  uncertainty theta = 0.002069, k = 0.023129
        44        28        45     1      106.555748      284.247021    ;  uncertainty theta = 0.003643, k = 0.100645

[ dihedrals ] ; propers for gromacs 4.5 or higher, use funct 9
;       ai        aj        ak        al funct           phase               k        pn
         1         4         3         2     9        0.000000       -0.075628         1    ;  uncertainty k = 0.305331
         1         4         3         2     9      180.000000        6.253897         2    ;  uncertainty k = 1.000823
         1         4         3         2     9        0.000000        0.293640         3    ;  uncertainty k = 0.228898
         1         4         3         2     9      180.000000        1.346626         4    ;  uncertainty k = 0.321119
         1         4         3        17     9        0.000000        0.296471         1    ;  uncertainty k = 0.693342
         1         4         3        17     9      180.000000        7.652700         2    ;  uncertainty k = 0.529987
         1         4         3        17     9        0.000000        0.796535         3    ;  uncertainty k = 0.272677
         1         4         3        17     9      180.000000        1.628908         4    ;  uncertainty k = 0.124999
         1         6         5         2     9        0.000000       -0.701302         1    ;  uncertainty k = 0.525101
         1         6         5         2     9      180.000000        4.604524         2    ;  uncertainty k = 1.549066
         1         6         5         2     9        0.000000        0.267393         3    ;  uncertainty k = 0.304996
         1         6         5         2     9      180.000000        1.238640         4    ;  uncertainty k = 0.355678
         1         6         5        10     9        0.000000       -0.304970         1    ;  uncertainty k = 0.682229
         1         6         5        10     9      180.000000        5.022747         2    ;  uncertainty k = 1.152438
         1         6         5        10     9        0.000000        0.082087         3    ;  uncertainty k = 0.372244
         1         6         5        10     9      180.000000        1.327637         4    ;  uncertainty k = 0.224200
         1         6         7         8     9        0.000000       -0.222227         1    ;  uncertainty k = 0.574841
         1         6         7         8     9      180.000000       12.387304         2    ;  uncertainty k = 0.592302
         1         6         7         8     9        0.000000        2.040852         3    ;  uncertainty k = 0.339494
         1         6         7         8     9      180.000000        1.325866         4    ;  uncertainty k = 0.192142
         1        11        12        13     9        0.000000       -0.020611         1    ;  uncertainty k = 0.408904
         1        11        12        13     9      180.000000        8.404419         2    ;  uncertainty k = 0.503338
         1        11        12        13     9        0.000000        1.233603         3    ;  uncertainty k = 0.278425
         1        11        12        13     9      180.000000        1.866322         4    ;  uncertainty k = 0.124257
         1        11        12        33     9        0.000000       -0.286699         1    ;  uncertainty k = 0.087888
         1        11        12        33     9      180.000000        7.179112         2    ;  uncertainty k = 0.417079
         1        11        12        33     9        0.000000        0.813510         3    ;  uncertainty k = 0.200003
         1        11        12        33     9      180.000000        1.156776         4    ;  uncertainty k = 0.181432
         1        11        16        15     9        0.000000       -0.020611         1    ;  uncertainty k = 0.408904
         1        11        16        15     9      180.000000        8.404419         2    ;  uncertainty k = 0.503338
         1        11        16        15     9        0.000000        1.233603         3    ;  uncertainty k = 0.278425
         1        11        16        15     9      180.000000        1.866322         4    ;  uncertainty k = 0.124257
         1        11        16        36     9        0.000000       -0.286698         1    ;  uncertainty k = 0.087889
         1        11        16        36     9      180.000000        7.179113         2    ;  uncertainty k = 0.417079
         1        11        16        36     9        0.000000        0.813509         3    ;  uncertainty k = 0.200004
         1        11        16        36     9      180.000000        1.156776         4    ;  uncertainty k = 0.181433
         2         3         4        30     9        0.000000        0.237751         1    ;  uncertainty k = 0.407272
         2         3         4        30     9      180.000000        5.911712         2    ;  uncertainty k = 0.917305
         2         3         4        30     9        0.000000        1.143639         3    ;  uncertainty k = 0.150774
         2         3         4        30     9      180.000000        1.435209         4    ;  uncertainty k = 0.269147
         2         3        17        18     9        0.000000        2.391292         1    ;  uncertainty k = 0.927258
         2         3        17        18     9      180.000000        5.627189         2    ;  uncertainty k = 0.345908
         2         3        17        18     9        0.000000        0.130796         3    ;  uncertainty k = 0.275597
         2         3        17        18     9      180.000000        0.108068         4    ;  uncertainty k = 0.070781
         2         3        17        37     9        0.000000        3.714210         1    ;  uncertainty k = 1.019186
         2         3        17        37     9      180.000000        4.537149         2    ;  uncertainty k = 0.136539
         2         3        17        37     9        0.000000        0.421528         3    ;  uncertainty k = 0.226094
         2         3        17        37     9      180.000000       -0.068003         4    ;  uncertainty k = 0.067047
         2         5         6         7     9        0.000000        0.075716         1    ;  uncertainty k = 0.292414
         2         5         6         7     9      180.000000        6.076566         2    ;  uncertainty k = 1.157135
         2         5         6         7     9        0.000000        0.106412         3    ;  uncertainty k = 0.161666
         2         5         6         7     9      180.000000        1.371570         4    ;  uncertainty k = 0.407671
         2         5        10         9     9        0.000000        0.427932         1    ;  uncertainty k = 1.029214
         2         5        10         9     9      180.000000       12.638436         2    ;  uncertainty k = 0.318597
         2         5        10         9     9        0.000000        2.227131         3    ;  uncertainty k = 0.470956
         2         5        10         9     9      180.000000        1.437848         4    ;  uncertainty k = 0.260470
         3         2         5         6     9        0.000000        0.124777         1    ;  uncertainty k = 0.469634
         3         2         5         6     9      180.000000        7.210380         2    ;  uncertainty k = 0.798365
         3         2         5         6     9        0.000000        0.036788         3    ;  uncertainty k = 0.281313
         3         2         5         6     9      180.000000        1.290165         4    ;  uncertainty k = 0.270790
         3         2         5        10     9        0.000000        0.146697         1    ;  uncertainty k = 0.428362
         3         2         5        10     9      180.000000        9.787397         2    ;  uncertainty k = 0.378069
         3         2         5        10     9        0.000000        0.568644         3    ;  uncertainty k = 0.286792
         3         2         5        10     9      180.000000        1.391199         4    ;  uncertainty k = 0.231273
         3         4         1         6     9        0.000000        0.028440         1    ;  uncertainty k = 0.535400
         3         4         1         6     9      180.000000       12.587037         2    ;  uncertainty k = 0.439271
         3         4         1         6     9        0.000000        0.368729         3    ;  uncertainty k = 0.238226
         3         4         1         6     9      180.000000        1.264935         4    ;  uncertainty k = 0.331376
         3         4         1        11     9        0.000000        0.183448         1    ;  uncertainty k = 0.179220
         3         4         1        11     9      180.000000       10.458023         2    ;  uncertainty k = 0.647047
         3         4         1        11     9        0.000000        1.351281         3    ;  uncertainty k = 0.288763
         3         4         1        11     9      180.000000        1.700743         4    ;  uncertainty k = 0.283816
         3        17        18        19     9        0.000000        4.219814         1    ;  uncertainty k = 1.204826
         3        17        18        19     9      180.000000        5.915026         2    ;  uncertainty k = 0.485741
         3        17        18        19     9        0.000000        0.506820         3    ;  uncertainty k = 0.114706
         3        17        18        19     9      180.000000        0.021030         4    ;  uncertainty k = 0.159761
         3        17        18        23     9        0.000000        0.589932         1    ;  uncertainty k = 1.531193
         3        17        18        23     9      180.000000        8.272739         2    ;  uncertainty k = 0.309915
         3        17        18        23     9        0.000000       -0.349199         3    ;  uncertainty k = 0.585019
         3        17        18        23     9      180.000000        0.078445         4    ;  uncertainty k = 0.210861
         4         1         6         5     9        0.000000       -0.087575         1    ;  uncertainty k = 0.452976
         4         1         6         5     9      180.000000        5.837417         2    ;  uncertainty k = 1.026369
         4         1         6         5     9        0.000000        0.071142         3    ;  uncertainty k = 0.281857
         4         1         6         5     9      180.000000        0.984532         4    ;  uncertainty k = 0.335452
         4         1         6         7     9        0.000000        0.253859         1    ;  uncertainty k = 0.569959
         4         1         6         7     9      180.000000        6.920319         2    ;  uncertainty k = 0.838555
         4         1         6         7     9        0.000000        0.373440         3    ;  uncertainty k = 0.324682
         4         1         6         7     9      180.000000        1.149414         4    ;  uncertainty k = 0.333131
         4         1        11        12     9        0.000000       -0.275036         1    ;  uncertainty k = 0.297094
         4         1        11        12     9      180.000000        5.545503         2    ;  uncertainty k = 0.108988
         4         1        11        12     9        0.000000        0.423104         3    ;  uncertainty k = 0.117191
         4         1        11        12     9      180.000000        0.535729         4    ;  uncertainty k = 0.102875
         4         1        11        16     9        0.000000       -0.275036         1    ;  uncertainty k = 0.297094
         4         1        11        16     9      180.000000        5.545503         2    ;  uncertainty k = 0.108988
         4         1        11        16     9        0.000000        0.423104         3    ;  uncertainty k = 0.117191
         4         1        11        16     9      180.000000        0.535729         4    ;  uncertainty k = 0.102875
         4         3         2         5     9        0.000000       -0.230094         1    ;  uncertainty k = 0.193613
         4         3         2         5     9      180.000000        9.799482         2    ;  uncertainty k = 0.334539
         4         3         2         5     9        0.000000        0.322865         3    ;  uncertainty k = 0.471328
         4         3         2         5     9      180.000000        1.352621         4    ;  uncertainty k = 0.303410
         4         3         2        29     9        0.000000        0.271865         1    ;  uncertainty k = 0.395472
         4         3         2        29     9      180.000000        7.009638         2    ;  uncertainty k = 0.650819
         4         3         2        29     9        0.000000        1.296696         3    ;  uncertainty k = 0.117301
         4         3         2        29     9      180.000000        1.627549         4    ;  uncertainty k = 0.152794
         4         3        17        18     9        0.000000        2.703023         1    ;  uncertainty k = 1.093474
         4         3        17        18     9      180.000000        5.646721         2    ;  uncertainty k = 0.287758
         4         3        17        18     9        0.000000        0.628331         3    ;  uncertainty k = 0.301753
         4         3        17        18     9      180.000000        0.075594         4    ;  uncertainty k = 0.163630
         4         3        17        37     9        0.000000        3.315350         1    ;  uncertainty k = 0.856350
         4         3        17        37     9      180.000000        4.508871         2    ;  uncertainty k = 0.528167
         4         3        17        37     9        0.000000        0.509564         3    ;  uncertainty k = 0.257911
         4         3        17        37     9      180.000000       -0.046361         4    ;  uncertainty k = 0.122570
         5         2         3        17     9        0.000000       -0.189602         1    ;  uncertainty k = 0.394616
         5         2         3        17     9      180.000000       11.233636         2    ;  uncertainty k = 0.435508
         5         2         3        17     9        0.000000        0.975271         3    ;  uncertainty k = 0.174800
         5         2         3        17     9      180.000000        1.594279         4    ;  uncertainty k = 0.138017
         5         6         1        11     9        0.000000        0.081478         1    ;  uncertainty k = 0.787094
         5         6         1        11     9      180.000000        4.938602         2    ;  uncertainty k = 0.506399
         5         6         1        11     9        0.000000        1.064124         3    ;  uncertainty k = 0.231961
         5         6         1        11     9      180.000000        1.247845         4    ;  uncertainty k = 0.340897
         5         6         7         8     9        0.000000       -0.121918         1    ;  uncertainty k = 0.899148
         5         6         7         8     9      180.000000       11.592838         2    ;  uncertainty k = 0.635161
         5         6         7         8     9        0.000000        1.459268         3    ;  uncertainty k = 0.284518
         5         6         7         8     9      180.000000        1.335516         4    ;  uncertainty k = 0.320568
         5        10         9         8     9        0.000000        0.013311         1    ;  uncertainty k = 0.131653
         5        10         9         8     9      180.000000       17.231919         2    ;  uncertainty k = 0.196674
         5        10         9         8     9        0.000000        0.888029         3    ;  uncertainty k = 0.629562
         5        10         9         8     9      180.000000        1.519865         4    ;  uncertainty k = 0.234840
         5        10         9        32     9        0.000000        0.424411         1    ;  uncertainty k = 0.517708
         5        10         9        32     9      180.000000       19.045700         2    ;  uncertainty k = 0.443936
         5        10         9        32     9        0.000000        2.354564         3    ;  uncertainty k = 0.582721
         5        10         9        32     9      180.000000        1.407429         4    ;  uncertainty k = 0.336465
         6         1         4        30     9        0.000000        0.112661         1    ;  uncertainty k = 0.266544
         6         1         4        30     9      180.000000        9.631938         2    ;  uncertainty k = 0.356324
         6         1         4        30     9        0.000000        1.471050         3    ;  uncertainty k = 0.157141
         6         1         4        30     9      180.000000        1.666633         4    ;  uncertainty k = 0.167434
         6         1        11        12     9        0.000000        0.265546         1    ;  uncertainty k = 0.804935
         6         1        11        12     9      180.000000        4.944390         2    ;  uncertainty k = 0.215181
         6         1        11        12     9        0.000000        0.398489         3    ;  uncertainty k = 0.255269
         6         1        11        12     9      180.000000        0.717098         4    ;  uncertainty k = 0.080631
         6         1        11        16     9        0.000000        0.265546         1    ;  uncertainty k = 0.804935
         6         1        11        16     9      180.000000        4.944390         2    ;  uncertainty k = 0.215181
         6         1        11        16     9        0.000000        0.398489         3    ;  uncertainty k = 0.255269
         6         1        11        16     9      180.000000        0.717098         4    ;  uncertainty k = 0.080631
         6         5         2        29     9        0.000000       -0.227944         1    ;  uncertainty k = 0.343151
         6         5         2        29     9      180.000000        5.855722         2    ;  uncertainty k = 0.873789
         6         5         2        29     9        0.000000        1.201888         3    ;  uncertainty k = 0.161541
         6         5         2        29     9      180.000000        1.243551         4    ;  uncertainty k = 0.340266
         6         5        10         9     9        0.000000       -0.066074         1    ;  uncertainty k = 1.326543
         6         5        10         9     9      180.000000       10.119061         2    ;  uncertainty k = 0.624084
         6         5        10         9     9        0.000000        1.274776         3    ;  uncertainty k = 0.483533
         6         5        10         9     9      180.000000        1.288278         4    ;  uncertainty k = 0.224413
         6         7         8         9     9        0.000000        0.032700         1    ;  uncertainty k = 0.371842
         6         7         8         9     9      180.000000       16.595219         2    ;  uncertainty k = 0.331031
         6         7         8         9     9        0.000000        0.830940         3    ;  uncertainty k = 0.755157
         6         7         8         9     9      180.000000        1.569816         4    ;  uncertainty k = 0.254727
         6         7         8        31     9        0.000000        0.273195         1    ;  uncertainty k = 0.534605
         6         7         8        31     9      180.000000       18.195196         2    ;  uncertainty k = 0.528958
         6         7         8        31     9        0.000000        2.346360         3    ;  uncertainty k = 0.656567
         6         7         8        31     9      180.000000        1.630137         4    ;  uncertainty k = 0.414697
         7         6         1        11     9        0.000000        0.159462         1    ;  uncertainty k = 1.221568
         7         6         1        11     9      180.000000        7.298038         2    ;  uncertainty k = 0.675630
         7         6         1        11     9        0.000000        0.783784         3    ;  uncertainty k = 0.538235
         7         6         1        11     9      180.000000        1.180884         4    ;  uncertainty k = 0.259959
         7         6         5        10     9        0.000000       -0.400758         1    ;  uncertainty k = 0.893249
         7         6         5        10     9      180.000000        7.082848         2    ;  uncertainty k = 0.717739
         7         6         5        10     9        0.000000        0.077325         3    ;  uncertainty k = 0.333985
         7         6         5        10     9      180.000000        1.332378         4    ;  uncertainty k = 0.355974
         7         8         9        10     9        0.000000       -0.202866         1    ;  uncertainty k = 0.782206
         7         8         9        10     9      180.000000       12.112991         2    ;  uncertainty k = 0.805807
         7         8         9        10     9        0.000000       -1.599825         3    ;  uncertainty k = 0.569696
         7         8         9        10     9      180.000000        0.918172         4    ;  uncertainty k = 0.463986
         7         8         9        32     9        0.000000        0.036887         1    ;  uncertainty k = 0.700692
         7         8         9        32     9      180.000000        6.513920         2    ;  uncertainty k = 1.135261
         7         8         9        32     9        0.000000        0.521732         3    ;  uncertainty k = 0.385188
         7         8         9        32     9      180.000000        1.117821         4    ;  uncertainty k = 0.330142
        10         5         2        29     9        0.000000        0.139927         1    ;  uncertainty k = 0.233388
        10         5         2        29     9      180.000000        8.199302         2    ;  uncertainty k = 0.492393
        10         5         2        29     9        0.000000        1.032825         3    ;  uncertainty k = 0.329116
        10         5         2        29     9      180.000000        1.219854         4    ;  uncertainty k = 0.291231
        10         9         8        31     9        0.000000       -0.033262         1    ;  uncertainty k = 0.634830
        10         9         8        31     9      180.000000        6.504272         2    ;  uncertainty k = 1.136878
        10         9         8        31     9        0.000000        0.521238         3    ;  uncertainty k = 0.433609
        10         9         8        31     9      180.000000        1.070757         4    ;  uncertainty k = 0.343719
        11         1         4        30     9        0.000000        0.174855         1    ;  uncertainty k = 0.295267
        11         1         4        30     9      180.000000        8.462943         2    ;  uncertainty k = 0.284568
        11         1         4        30     9        0.000000        1.044322         3    ;  uncertainty k = 0.144938
        11         1         4        30     9      180.000000        1.403430         4    ;  uncertainty k = 0.280619
        11        12        13        14     9        0.000000       -0.195547         1    ;  uncertainty k = 0.251734
        11        12        13        14     9      180.000000       14.528628         2    ;  uncertainty k = 0.324760
        11        12        13        14     9        0.000000       -0.773529         3    ;  uncertainty k = 0.516200
        11        12        13        14     9      180.000000        0.794214         4    ;  uncertainty k = 0.313896
        11        12        13        34     9        0.000000       -0.000802         1    ;  uncertainty k = 0.135556
        11        12        13        34     9      180.000000        8.588994         2    ;  uncertainty k = 0.337987
        11        12        13        34     9        0.000000        1.390035         3    ;  uncertainty k = 0.301466
        11        12        13        34     9      180.000000        1.868059         4    ;  uncertainty k = 0.180602
        11        16        15        14     9        0.000000       -0.195547         1    ;  uncertainty k = 0.251734
        11        16        15        14     9      180.000000       14.528628         2    ;  uncertainty k = 0.324760
        11        16        15        14     9        0.000000       -0.773529         3    ;  uncertainty k = 0.516200
        11        16        15        14     9      180.000000        0.794214         4    ;  uncertainty k = 0.313896
        11        16        15        35     9        0.000000       -0.000804         1    ;  uncertainty k = 0.135557
        11        16        15        35     9      180.000000        8.588994         2    ;  uncertainty k = 0.337986
        11        16        15        35     9        0.000000        1.390035         3    ;  uncertainty k = 0.301466
        11        16        15        35     9      180.000000        1.868059         4    ;  uncertainty k = 0.180601
        12        11        16        15     9        0.000000       -0.071307         1    ;  uncertainty k = 0.196687
        12        11        16        15     9      180.000000       11.673557         2    ;  uncertainty k = 0.170713
        12        11        16        15     9        0.000000       -0.646069         3    ;  uncertainty k = 0.333580
        12        11        16        15     9      180.000000        0.887663         4    ;  uncertainty k = 0.305810
        12        11        16        36     9        0.000000        0.165769         1    ;  uncertainty k = 0.110759
        12        11        16        36     9      180.000000        6.921764         2    ;  uncertainty k = 0.541126
        12        11        16        36     9        0.000000        1.379060         3    ;  uncertainty k = 0.229183
        12        11        16        36     9      180.000000        1.590881         4    ;  uncertainty k = 0.197027
        12        13        14        15     9        0.000000        0.068453         1    ;  uncertainty k = 0.197086
        12        13        14        15     9      180.000000        8.288650         2    ;  uncertainty k = 0.648656
        12        13        14        15     9        0.000000        0.089848         3    ;  uncertainty k = 0.348195
        12        13        14        15     9      180.000000        1.245598         4    ;  uncertainty k = 0.340464
        12        13        14        28     9        0.000000        0.161059         1    ;  uncertainty k = 0.648936
        12        13        14        28     9      180.000000        9.207687         2    ;  uncertainty k = 0.653443
        12        13        14        28     9        0.000000        1.013279         3    ;  uncertainty k = 0.254816
        12        13        14        28     9      180.000000        1.438357         4    ;  uncertainty k = 0.260892
        13        12        11        16     9        0.000000       -0.071307         1    ;  uncertainty k = 0.196687
        13        12        11        16     9      180.000000       11.673557         2    ;  uncertainty k = 0.170713
        13        12        11        16     9        0.000000       -0.646069         3    ;  uncertainty k = 0.333580
        13        12        11        16     9      180.000000        0.887663         4    ;  uncertainty k = 0.305810
        13        14        15        16     9        0.000000        0.068453         1    ;  uncertainty k = 0.197086
        13        14        15        16     9      180.000000        8.288650         2    ;  uncertainty k = 0.648656
        13        14        15        16     9        0.000000        0.089848         3    ;  uncertainty k = 0.348195
        13        14        15        16     9      180.000000        1.245598         4    ;  uncertainty k = 0.340464
        13        14        15        35     9        0.000000        0.000656         1    ;  uncertainty k = 0.352767
        13        14        15        35     9      180.000000        5.762722         2    ;  uncertainty k = 0.485260
        13        14        15        35     9        0.000000        1.170582         3    ;  uncertainty k = 0.242490
        13        14        15        35     9      180.000000        1.340532         4    ;  uncertainty k = 0.183395
        13        14        28        44     9        0.000000        8.250240         1    ;  uncertainty k = 0.660716
        13        14        28        44     9      180.000000        5.649083         2    ;  uncertainty k = 0.098852
        13        14        28        44     9        0.000000        0.748512         3    ;  uncertainty k = 0.155515
        13        14        28        44     9      180.000000        0.221437         4    ;  uncertainty k = 0.038121
        13        14        28        45     9        0.000000        8.250240         1    ;  uncertainty k = 0.660716
        13        14        28        45     9      180.000000        5.649083         2    ;  uncertainty k = 0.098852
        13        14        28        45     9        0.000000        0.748512         3    ;  uncertainty k = 0.155515
        13        14        28        45     9      180.000000        0.221437         4    ;  uncertainty k = 0.038121
        14        13        12        33     9        0.000000       -0.022892         1    ;  uncertainty k = 0.380414
        14        13        12        33     9      180.000000        8.365977         2    ;  uncertainty k = 0.321628
        14        13        12        33     9        0.000000        1.300455         3    ;  uncertainty k = 0.193517
        14        13        12        33     9      180.000000        1.662218         4    ;  uncertainty k = 0.221051
        14        15        16        36     9        0.000000       -0.022892         1    ;  uncertainty k = 0.380414
        14        15        16        36     9      180.000000        8.365976         2    ;  uncertainty k = 0.321628
        14        15        16        36     9        0.000000        1.300456         3    ;  uncertainty k = 0.193516
        14        15        16        36     9      180.000000        1.662219         4    ;  uncertainty k = 0.221051
        15        14        13        34     9        0.000000        0.000656         1    ;  uncertainty k = 0.352766
        15        14        13        34     9      180.000000        5.762723         2    ;  uncertainty k = 0.485257
        15        14        13        34     9        0.000000        1.170582         3    ;  uncertainty k = 0.242490
        15        14        13        34     9      180.000000        1.340532         4    ;  uncertainty k = 0.183395
        15        14        28        44     9        0.000000        8.250240         1    ;  uncertainty k = 0.660716
        15        14        28        44     9      180.000000        5.649083         2    ;  uncertainty k = 0.098852
        15        14        28        44     9        0.000000        0.748512         3    ;  uncertainty k = 0.155515
        15        14        28        44     9      180.000000        0.221437         4    ;  uncertainty k = 0.038121
        15        14        28        45     9        0.000000        8.250240         1    ;  uncertainty k = 0.660716
        15        14        28        45     9      180.000000        5.649083         2    ;  uncertainty k = 0.098852
        15        14        28        45     9        0.000000        0.748512         3    ;  uncertainty k = 0.155515
        15        14        28        45     9      180.000000        0.221437         4    ;  uncertainty k = 0.038121
        16        11        12        33     9        0.000000        0.165768         1    ;  uncertainty k = 0.110760
        16        11        12        33     9      180.000000        6.921760         2    ;  uncertainty k = 0.541126
        16        11        12        33     9        0.000000        1.379060         3    ;  uncertainty k = 0.229183
        16        11        12        33     9      180.000000        1.590881         4    ;  uncertainty k = 0.197027
        16        15        14        28     9        0.000000        0.161059         1    ;  uncertainty k = 0.648936
        16        15        14        28     9      180.000000        9.207687         2    ;  uncertainty k = 0.653443
        16        15        14        28     9        0.000000        1.013279         3    ;  uncertainty k = 0.254816
        16        15        14        28     9      180.000000        1.438357         4    ;  uncertainty k = 0.260892
        17         3         2        29     9        0.000000       -0.570256         1    ;  uncertainty k = 0.225437
        17         3         2        29     9      180.000000        8.036469         2    ;  uncertainty k = 0.539841
        17         3         2        29     9        0.000000        0.826404         3    ;  uncertainty k = 0.259178
        17         3         2        29     9      180.000000        1.188346         4    ;  uncertainty k = 0.226655
        17         3         4        30     9        0.000000       -0.452049         1    ;  uncertainty k = 0.327503
        17         3         4        30     9      180.000000        6.961909         2    ;  uncertainty k = 0.390567
        17         3         4        30     9        0.000000        0.803667         3    ;  uncertainty k = 0.225958
        17         3         4        30     9      180.000000        1.176718         4    ;  uncertainty k = 0.121576
        17        18        19        20     9        0.000000        0.284522         1    ;  uncertainty k = 0.937481
        17        18        19        20     9      180.000000        8.701419         2    ;  uncertainty k = 0.854399
        17        18        19        20     9        0.000000        0.836725         3    ;  uncertainty k = 0.185927
        17        18        19        20     9      180.000000        1.496108         4    ;  uncertainty k = 0.299674
        17        18        19        38     9        0.000000        0.007093         1    ;  uncertainty k = 0.499750
        17        18        19        38     9      180.000000        5.972503         2    ;  uncertainty k = 0.983101
        17        18        19        38     9        0.000000        0.942185         3    ;  uncertainty k = 0.273147
        17        18        19        38     9      180.000000        1.158934         4    ;  uncertainty k = 0.246634
        17        18        23        22     9        0.000000       -0.020825         1    ;  uncertainty k = 0.416437
        17        18        23        22     9      180.000000        7.821352         2    ;  uncertainty k = 0.442940
        17        18        23        22     9        0.000000        1.029527         3    ;  uncertainty k = 0.210995
        17        18        23        22     9      180.000000        1.524188         4    ;  uncertainty k = 0.257372
        17        18        23        24     9        0.000000       -0.506013         1    ;  uncertainty k = 0.475729
        17        18        23        24     9      180.000000        7.636456         2    ;  uncertainty k = 0.878998
        17        18        23        24     9        0.000000        1.159106         3    ;  uncertainty k = 0.332202
        17        18        23        24     9      180.000000        1.400877         4    ;  uncertainty k = 0.254665
        18        19        20        21     9        0.000000        0.036596         1    ;  uncertainty k = 0.371494
        18        19        20        21     9      180.000000       16.597051         2    ;  uncertainty k = 0.304805
        18        19        20        21     9        0.000000        0.966622         3    ;  uncertainty k = 0.517836
        18        19        20        21     9      180.000000        1.451098         4    ;  uncertainty k = 0.177715
        18        23        22        21     9        0.000000       -0.265670         1    ;  uncertainty k = 0.419232
        18        23        22        21     9      180.000000       10.460451         2    ;  uncertainty k = 0.389563
        18        23        22        21     9        0.000000       -0.366509         3    ;  uncertainty k = 0.514479
        18        23        22        21     9      180.000000        0.929899         4    ;  uncertainty k = 0.330295
        18        23        22        40     9        0.000000        0.238370         1    ;  uncertainty k = 0.382236
        18        23        22        40     9      180.000000        7.525225         2    ;  uncertainty k = 0.903253
        18        23        22        40     9        0.000000        1.267263         3    ;  uncertainty k = 0.290614
        18        23        22        40     9      180.000000        1.474858         4    ;  uncertainty k = 0.123421
        18        23        24        25     9        0.000000       -5.228555         1    ;  uncertainty k = 2.158656
        18        23        24        25     9      180.000000       -0.861344         2    ;  uncertainty k = 0.805163
        18        23        24        25     9        0.000000        1.201042         3    ;  uncertainty k = 0.425533
        18        23        24        25     9      180.000000       -0.042324         4    ;  uncertainty k = 0.375368
        18        23        24        26     9        0.000000       -5.228555         1    ;  uncertainty k = 2.158656
        18        23        24        26     9      180.000000       -0.861344         2    ;  uncertainty k = 0.805163
        18        23        24        26     9        0.000000        1.201042         3    ;  uncertainty k = 0.425533
        18        23        24        26     9      180.000000       -0.042324         4    ;  uncertainty k = 0.375368
        18        23        24        27     9        0.000000        0.262419         1    ;  uncertainty k = 1.833670
        18        23        24        27     9      180.000000       -1.026927         2    ;  uncertainty k = 0.798423
        18        23        24        27     9        0.000000        0.956202         3    ;  uncertainty k = 0.348086
        18        23        24        27     9      180.000000        0.178350         4    ;  uncertainty k = 0.195566
        19        18        17        37     9        0.000000        0.917544         1    ;  uncertainty k = 1.463600
        19        18        17        37     9      180.000000        4.182458         2    ;  uncertainty k = 0.765144
        19        18        17        37     9        0.000000       -0.106077         3    ;  uncertainty k = 0.498483
        19        18        17        37     9      180.000000       -0.220151         4    ;  uncertainty k = 0.253379
        19        18        23        22     9        0.000000       -0.438834         1    ;  uncertainty k = 0.840319
        19        18        23        22     9      180.000000        4.610450         2    ;  uncertainty k = 1.641699
        19        18        23        22     9        0.000000        0.358135         3    ;  uncertainty k = 0.323563
        19        18        23        22     9      180.000000        1.351096         4    ;  uncertainty k = 0.315698
        19        18        23        24     9        0.000000        0.917642         1    ;  uncertainty k = 0.634889
        19        18        23        24     9      180.000000        4.793052         2    ;  uncertainty k = 1.087370
        19        18        23        24     9        0.000000        1.108848         3    ;  uncertainty k = 0.290817
        19        18        23        24     9      180.000000        1.561541         4    ;  uncertainty k = 0.342190
        19        20        21        22     9        0.000000       -0.485016         1    ;  uncertainty k = 0.425215
        19        20        21        22     9      180.000000       15.189731         2    ;  uncertainty k = 0.461239
        19        20        21        22     9        0.000000        1.127628         3    ;  uncertainty k = 0.661679
        19        20        21        22     9      180.000000        1.285431         4    ;  uncertainty k = 0.097277
        19        20        21        39     9        0.000000        0.172532         1    ;  uncertainty k = 0.566096
        19        20        21        39     9      180.000000       15.445790         2    ;  uncertainty k = 0.425751
        19        20        21        39     9        0.000000        2.152702         3    ;  uncertainty k = 0.508048
        19        20        21        39     9      180.000000        1.381411         4    ;  uncertainty k = 0.359273
        20        19        18        23     9        0.000000       -0.562844         1    ;  uncertainty k = 0.540738
        20        19        18        23     9      180.000000        6.748516         2    ;  uncertainty k = 1.268444
        20        19        18        23     9        0.000000        0.077078         3    ;  uncertainty k = 0.370451
        20        19        18        23     9      180.000000        1.216829         4    ;  uncertainty k = 0.295894
        20        21        22        23     9        0.000000       -0.252470         1    ;  uncertainty k = 0.431541
        20        21        22        23     9      180.000000       13.556324         2    ;  uncertainty k = 0.574918
        20        21        22        23     9        0.000000       -1.106331         3    ;  uncertainty k = 1.113055
        20        21        22        23     9      180.000000        0.952273         4    ;  uncertainty k = 0.151718
        20        21        22        40     9        0.000000       -0.068096         1    ;  uncertainty k = 0.262319
        20        21        22        40     9      180.000000        9.165641         2    ;  uncertainty k = 0.726880
        20        21        22        40     9        0.000000        0.979809         3    ;  uncertainty k = 0.350348
        20        21        22        40     9      180.000000        1.652653         4    ;  uncertainty k = 0.185846
        21        20        19        38     9        0.000000        0.508068         1    ;  uncertainty k = 0.686768
        21        20        19        38     9      180.000000       16.706316         2    ;  uncertainty k = 0.583289
        21        20        19        38     9        0.000000        2.361241         3    ;  uncertainty k = 0.235965
        21        20        19        38     9      180.000000        1.517602         4    ;  uncertainty k = 0.508263
        21        22        23        24     9        0.000000        0.601783         1    ;  uncertainty k = 0.840723
        21        22        23        24     9      180.000000        9.254869         2    ;  uncertainty k = 0.664789
        21        22        23        24     9        0.000000        1.560649         3    ;  uncertainty k = 0.502422
        21        22        23        24     9      180.000000        1.838811         4    ;  uncertainty k = 0.146619
        22        23        24        25     9        0.000000       -0.492325         1    ;  uncertainty k = 1.108208
        22        23        24        25     9      180.000000        0.135604         2    ;  uncertainty k = 0.455039
        22        23        24        25     9        0.000000        0.177825         3    ;  uncertainty k = 0.237274
        22        23        24        25     9      180.000000        0.012963         4    ;  uncertainty k = 0.209193
        22        23        24        26     9        0.000000       -0.492325         1    ;  uncertainty k = 1.108208
        22        23        24        26     9      180.000000        0.135604         2    ;  uncertainty k = 0.455039
        22        23        24        26     9        0.000000        0.177825         3    ;  uncertainty k = 0.237274
        22        23        24        26     9      180.000000        0.012963         4    ;  uncertainty k = 0.209193
        22        23        24        27     9        0.000000        3.406870         1    ;  uncertainty k = 1.708512
        22        23        24        27     9      180.000000        0.171419         2    ;  uncertainty k = 0.576993
        22        23        24        27     9        0.000000       -0.078307         3    ;  uncertainty k = 0.399031
        22        23        24        27     9      180.000000        0.444415         4    ;  uncertainty k = 0.155672
        23        18        17        37     9        0.000000        9.262100         1    ;  uncertainty k = 0.773179
        23        18        17        37     9      180.000000        3.945832         2    ;  uncertainty k = 0.536445
        23        18        17        37     9        0.000000        0.752572         3    ;  uncertainty k = 0.273740
        23        18        17        37     9      180.000000       -0.119638         4    ;  uncertainty k = 0.176171
        23        18        19        38     9        0.000000        0.000816         1    ;  uncertainty k = 1.384589
        23        18        19        38     9      180.000000        4.685090         2    ;  uncertainty k = 1.110639
        23        18        19        38     9        0.000000        1.104676         3    ;  uncertainty k = 0.238511
        23        18        19        38     9      180.000000        1.089444         4    ;  uncertainty k = 0.205054
        23        22        21        39     9        0.000000       -0.148525         1    ;  uncertainty k = 0.589763
        23        22        21        39     9      180.000000        6.244193         2    ;  uncertainty k = 0.249576
        23        22        21        39     9        0.000000        1.014104         3    ;  uncertainty k = 0.237437
        23        22        21        39     9      180.000000        1.497615         4    ;  uncertainty k = 0.181166
        23        24        27        41     9        0.000000        2.345204         1    ;  uncertainty k = 0.643494
        23        24        27        41     9      180.000000       -2.433989         2    ;  uncertainty k = 0.375726
        23        24        27        41     9        0.000000        0.170343         3    ;  uncertainty k = 0.101207
        23        24        27        41     9      180.000000        0.001305         4    ;  uncertainty k = 0.149206
        23        24        27        42     9        0.000000        2.345204         1    ;  uncertainty k = 0.643494
        23        24        27        42     9      180.000000       -2.433989         2    ;  uncertainty k = 0.375726
        23        24        27        42     9        0.000000        0.170343         3    ;  uncertainty k = 0.101207
        23        24        27        42     9      180.000000        0.001305         4    ;  uncertainty k = 0.149206
        23        24        27        43     9        0.000000        2.345204         1    ;  uncertainty k = 0.643494
        23        24        27        43     9      180.000000       -2.433989         2    ;  uncertainty k = 0.375726
        23        24        27        43     9        0.000000        0.170343         3    ;  uncertainty k = 0.101207
        23        24        27        43     9      180.000000        0.001305         4    ;  uncertainty k = 0.149206
        24        23        22        40     9        0.000000       -0.424036         1    ;  uncertainty k = 0.616072
        24        23        22        40     9      180.000000        7.010378         2    ;  uncertainty k = 0.550571
        24        23        22        40     9        0.000000        0.781434         3    ;  uncertainty k = 0.169299
        24        23        22        40     9      180.000000        1.269235         4    ;  uncertainty k = 0.186788
        25        24        27        41     9        0.000000       -0.057641         1    ;  uncertainty k = 0.603700
        25        24        27        41     9      180.000000       -0.366450         2    ;  uncertainty k = 0.288160
        25        24        27        41     9        0.000000        0.801561         3    ;  uncertainty k = 0.057212
        25        24        27        41     9      180.000000        0.039212         4    ;  uncertainty k = 0.101280
        25        24        27        42     9        0.000000       -0.057641         1    ;  uncertainty k = 0.603700
        25        24        27        42     9      180.000000       -0.366450         2    ;  uncertainty k = 0.288160
        25        24        27        42     9        0.000000        0.801561         3    ;  uncertainty k = 0.057212
        25        24        27        42     9      180.000000        0.039212         4    ;  uncertainty k = 0.101280
        25        24        27        43     9        0.000000       -0.057641         1    ;  uncertainty k = 0.603700
        25        24        27        43     9      180.000000       -0.366450         2    ;  uncertainty k = 0.288160
        25        24        27        43     9        0.000000        0.801561         3    ;  uncertainty k = 0.057212
        25        24        27        43     9      180.000000        0.039212         4    ;  uncertainty k = 0.101280
        26        24        27        41     9        0.000000       -0.057641         1    ;  uncertainty k = 0.603700
        26        24        27        41     9      180.000000       -0.366450         2    ;  uncertainty k = 0.288160
        26        24        27        41     9        0.000000        0.801561         3    ;  uncertainty k = 0.057212
        26        24        27        41     9      180.000000        0.039212         4    ;  uncertainty k = 0.101280
        26        24        27        42     9        0.000000       -0.057641         1    ;  uncertainty k = 0.603700
        26        24        27        42     9      180.000000       -0.366450         2    ;  uncertainty k = 0.288160
        26        24        27        42     9        0.000000        0.801561         3    ;  uncertainty k = 0.057212
        26        24        27        42     9      180.000000        0.039212         4    ;  uncertainty k = 0.101280
        26        24        27        43     9        0.000000       -0.057641         1    ;  uncertainty k = 0.603700
        26        24        27        43     9      180.000000       -0.366450         2    ;  uncertainty k = 0.288160
        26        24        27        43     9        0.000000        0.801561         3    ;  uncertainty k = 0.057212
        26        24        27        43     9      180.000000        0.039212         4    ;  uncertainty k = 0.101280
        28        14        13        34     9        0.000000       -0.308018         1    ;  uncertainty k = 0.349993
        28        14        13        34     9      180.000000        7.366984         2    ;  uncertainty k = 0.263685
        28        14        13        34     9        0.000000        0.746472         3    ;  uncertainty k = 0.265260
        28        14        13        34     9      180.000000        0.954050         4    ;  uncertainty k = 0.342451
        28        14        15        35     9        0.000000       -0.308018         1    ;  uncertainty k = 0.349995
        28        14        15        35     9      180.000000        7.366983         2    ;  uncertainty k = 0.263684
        28        14        15        35     9        0.000000        0.746472         3    ;  uncertainty k = 0.265260
        28        14        15        35     9      180.000000        0.954050         4    ;  uncertainty k = 0.342451
        31         8         9        32     9        0.000000       -0.152652         1    ;  uncertainty k = 0.805688
        31         8         9        32     9      180.000000        5.398109         2    ;  uncertainty k = 0.723628
        31         8         9        32     9        0.000000        0.147471         3    ;  uncertainty k = 0.248173
        31         8         9        32     9      180.000000        0.216442         4    ;  uncertainty k = 0.153410
        33        12        13        34     9        0.000000        0.067385         1    ;  uncertainty k = 0.348036
        33        12        13        34     9      180.000000        7.757168         2    ;  uncertainty k = 0.449246
        33        12        13        34     9        0.000000       -0.393295         3    ;  uncertainty k = 0.275448
        33        12        13        34     9      180.000000        0.227836         4    ;  uncertainty k = 0.177826
        35        15        16        36     9        0.000000        0.067385         1    ;  uncertainty k = 0.348036
        35        15        16        36     9      180.000000        7.757168         2    ;  uncertainty k = 0.449245
        35        15        16        36     9        0.000000       -0.393295         3    ;  uncertainty k = 0.275448
        35        15        16        36     9      180.000000        0.227836         4    ;  uncertainty k = 0.177827
        39        21        22        40     9        0.000000       -0.307962         1    ;  uncertainty k = 0.440104
        39        21        22        40     9      180.000000        6.502709         2    ;  uncertainty k = 0.379417
        39        21        22        40     9        0.000000       -0.130867         3    ;  uncertainty k = 0.246878
        39        21        22        40     9      180.000000        0.283979         4    ;  uncertainty k = 0.141773

[ dihedrals ] ; impropers
;       ai        aj        ak        al funct           phase               k        pn
         1         4         6        11     4      180.000000       17.982998         2    ;  uncertainty k = 0.112675
         1         6        11         4     4      180.000000       17.982998         2    ;  uncertainty k = 0.112675
         1        11         4         6     4      180.000000       17.982998         2    ;  uncertainty k = 0.112675
         2         3         5        29     4      180.000000        2.538906         2    ;  uncertainty k = 0.373105
         2         5        29         3     4      180.000000        2.538906         2    ;  uncertainty k = 0.373105
         2        29         3         5     4      180.000000        2.538906         2    ;  uncertainty k = 0.373105
         3         2         4        17     4      180.000000       20.656996         2    ;  uncertainty k = 0.063650
         3         4        17         2     4      180.000000       20.656996         2    ;  uncertainty k = 0.063650
         3        17         2         4     4      180.000000       20.656996         2    ;  uncertainty k = 0.063650
         4         1         3        30     4      180.000000        3.170965         2    ;  uncertainty k = 0.344238
         4         3        30         1     4      180.000000        3.170965         2    ;  uncertainty k = 0.344238
         4        30         1         3     4      180.000000        3.170965         2    ;  uncertainty k = 0.344238
         5         2         6        10     4      180.000000       18.452158         2    ;  uncertainty k = 0.055457
         5         6        10         2     4      180.000000       18.452158         2    ;  uncertainty k = 0.055457
         5        10         2         6     4      180.000000       18.452158         2    ;  uncertainty k = 0.055457
         6         1         5         7     4      180.000000       16.651839         2    ;  uncertainty k = 0.073584
         6         5         7         1     4      180.000000       16.651839         2    ;  uncertainty k = 0.073584
         6         7         1         5     4      180.000000       16.651839         2    ;  uncertainty k = 0.073584
         8         7         9        31     4      180.000000       12.058352         2    ;  uncertainty k = 0.155869
         8         9        31         7     4      180.000000       12.058352         2    ;  uncertainty k = 0.155869
         8        31         7         9     4      180.000000       12.058352         2    ;  uncertainty k = 0.155869
         9         8        10        32     4      180.000000       11.948848         2    ;  uncertainty k = 0.101429
         9        10        32         8     4      180.000000       11.948848         2    ;  uncertainty k = 0.101429
         9        32         8        10     4      180.000000       11.948848         2    ;  uncertainty k = 0.101429
        11         1        12        16     4      180.000000       11.056367         2    ;  uncertainty k = 0.177130
        11        12        16         1     4      180.000000       11.056367         2    ;  uncertainty k = 0.177130
        11        16         1        12     4      180.000000       11.056367         2    ;  uncertainty k = 0.177130
        12        11        13        33     4      180.000000        4.387349         2    ;  uncertainty k = 0.167531
        12        13        33        11     4      180.000000        4.387349         2    ;  uncertainty k = 0.167531
        12        33        11        13     4      180.000000        4.387349         2    ;  uncertainty k = 0.167531
        13        12        14        34     4      180.000000        2.050268         2    ;  uncertainty k = 0.203707
        13        14        34        12     4      180.000000        2.050268         2    ;  uncertainty k = 0.203707
        13        34        12        14     4      180.000000        2.050268         2    ;  uncertainty k = 0.203707
        14        13        15        28     4      180.000000       19.076795         2    ;  uncertainty k = 0.066211
        14        15        28        13     4      180.000000       19.076795         2    ;  uncertainty k = 0.066211
        14        28        13        15     4      180.000000       19.076795         2    ;  uncertainty k = 0.066211
        15        14        16        35     4      180.000000        2.050272         2    ;  uncertainty k = 0.203700
        15        16        35        14     4      180.000000        2.050272         2    ;  uncertainty k = 0.203700
        15        35        14        16     4      180.000000        2.050272         2    ;  uncertainty k = 0.203700
        16        11        15        36     4      180.000000        4.387349         2    ;  uncertainty k = 0.167531
        16        15        36        11     4      180.000000        4.387349         2    ;  uncertainty k = 0.167531
        16        36        11        15     4      180.000000        4.387349         2    ;  uncertainty k = 0.167531
        17         3        18        37     4      180.000000        1.379953         2    ;  uncertainty k = 1.192013
        17        18        37         3     4      180.000000        1.379953         2    ;  uncertainty k = 1.192013
        17        37         3        18     4      180.000000        1.379953         2    ;  uncertainty k = 1.192013
        18        17        19        23     4      180.000000       22.010771         2    ;  uncertainty k = 0.077536
        18        19        23        17     4      180.000000       22.010771         2    ;  uncertainty k = 0.077536
        18        23        17        19     4      180.000000       22.010771         2    ;  uncertainty k = 0.077536
        19        18        20        38     4      180.000000       10.900442         2    ;  uncertainty k = 0.192114
        19        20        38        18     4      180.000000       10.900442         2    ;  uncertainty k = 0.192114
        19        38        18        20     4      180.000000       10.900442         2    ;  uncertainty k = 0.192114
        21        20        22        39     4      180.000000       11.385376         2    ;  uncertainty k = 0.107036
        21        22        39        20     4      180.000000       11.385376         2    ;  uncertainty k = 0.107036
        21        39        20        22     4      180.000000       11.385376         2    ;  uncertainty k = 0.107036
        22        21        23        40     4      180.000000        4.322239         2    ;  uncertainty k = 0.262311
        22        23        40        21     4      180.000000        4.322239         2    ;  uncertainty k = 0.262311
        22        40        21        23     4      180.000000        4.322239         2    ;  uncertainty k = 0.262311
        23        18        22        24     4      180.000000        5.945011         2    ;  uncertainty k = 0.459975
        23        22        24        18     4      180.000000        5.945011         2    ;  uncertainty k = 0.459975
        23        24        18        22     4      180.000000        5.945011         2    ;  uncertainty k = 0.459975

[ pairs ]
;       ai        aj funct
         1         2     1
         1         8     1
         1        10     1
         1        13     1
         1        15     1
         1        17     1
         1        33     1
         1        36     1
         2         7     1
         2         9     1
         2        18     1
         2        30     1
         2        37     1
         3         6     1
         3        10     1
         3        11     1
         3        19     1
         3        23     1
         4         5     1
         4         7     1
         4        12     1
         4        16     1
         4        18     1
         4        29     1
         4        37     1
         5         8     1
         5        11     1
         5        17     1
         5        32     1
         6         9     1
         6        12     1
         6        16     1
         6        29     1
         6        30     1
         6        31     1
         7        10     1
         7        11     1
         7        32     1
        10        29     1
        10        31     1
        11        14     1
        11        30     1
        11        34     1
        11        35     1
        12        15     1
        12        28     1
        12        36     1
        13        16     1
        13        35     1
        13        44     1
        13        45     1
        14        33     1
        14        36     1
        15        34     1
        15        44     1
        15        45     1
        16        28     1
        16        33     1
        17        20     1
        17        22     1
        17        24     1
        17        29     1
        17        30     1
        17        38     1
        18        21     1
        18        25     1
        18        26     1
        18        27     1
        18        40     1
        19        22     1
        19        24     1
        19        37     1
        19        39     1
        20        23     1
        20        40     1
        21        24     1
        21        38     1
        22        25     1
        22        26     1
        22        27     1
        23        37     1
        23        38     1
        23        39     1
        23        41     1
        23        42     1
        23        43     1
        24        40     1
        25        41     1
        25        42     1
        25        43     1
        26        41     1
        26        42     1
        26        43     1
        28        34     1
        28        35     1
        31        32     1
        33        34     1
        35        36     1
        39        40     1
