; ITP file created by ByteFF-joint-25, 2026-02-17 09:30:48.757169

[ atomtypes ]
;name           bonded.type        at.num        mass        charge   ptype           sigma         epsilon
 c0bf                                   6      0.0000       0.00000       A     3.31488e-01     4.12665e-01    ;  uncertainty sigma = 0.000011, epsilon = 0.000854
 c1bf                                   6      0.0000       0.00000       A     3.31509e-01     4.13539e-01    ;  uncertainty sigma = 0.000009, epsilon = 0.000465
 c2bf                                   6      0.0000       0.00000       A     3.31538e-01     4.13732e-01    ;  uncertainty sigma = 0.000012, epsilon = 0.001772
 c3bf                                   6      0.0000       0.00000       A     3.31496e-01     4.13470e-01    ;  uncertainty sigma = 0.000006, epsilon = 0.000742
 c4bf                                   6      0.0000       0.00000       A     3.31516e-01     4.13470e-01    ;  uncertainty sigma = 0.000011, epsilon = 0.000986
 c5bf                                   6      0.0000       0.00000       A     3.31519e-01     4.13020e-01    ;  uncertainty sigma = 0.000010, epsilon = 0.001115
 n6bf                                   7      0.0000       0.00000       A     3.38415e-01     3.93854e-01    ;  uncertainty sigma = 0.000010, epsilon = 0.001066
 c7bf                                   6      0.0000       0.00000       A     3.31531e-01     4.13178e-01    ;  uncertainty sigma = 0.000013, epsilon = 0.000482
 c8bf                                   6      0.0000       0.00000       A     3.31530e-01     4.13238e-01    ;  uncertainty sigma = 0.000010, epsilon = 0.000599
 n9bf                                   7      0.0000       0.00000       A     3.38414e-01     3.93827e-01    ;  uncertainty sigma = 0.000003, epsilon = 0.000862
 c10bf                                  6      0.0000       0.00000       A     3.31492e-01     4.13019e-01    ;  uncertainty sigma = 0.000020, epsilon = 0.000990
 c11bf                                  6      0.0000       0.00000       A     3.31520e-01     4.13276e-01    ;  uncertainty sigma = 0.000004, epsilon = 0.000572
 c12bf                                  6      0.0000       0.00000       A     3.31527e-01     4.13211e-01    ;  uncertainty sigma = 0.000005, epsilon = 0.000881
 c13bf                                  6      0.0000       0.00000       A     3.31525e-01     4.13320e-01    ;  uncertainty sigma = 0.000007, epsilon = 0.000637
 n14bf                                  7      0.0000       0.00000       A     3.27956e-01     6.47518e-01    ;  uncertainty sigma = 0.000036, epsilon = 0.003822
 c15bf                                  6      0.0000       0.00000       A     3.31502e-01     4.13462e-01    ;  uncertainty sigma = 0.000018, epsilon = 0.002180
 c16bf                                  6      0.0000       0.00000       A     3.31532e-01     4.13419e-01    ;  uncertainty sigma = 0.000012, epsilon = 0.000931
 n17bf                                  7      0.0000       0.00000       A     3.38420e-01     3.93806e-01    ;  uncertainty sigma = 0.000013, epsilon = 0.000881
 c18bf                                  6      0.0000       0.00000       A     3.31513e-01     4.13350e-01    ;  uncertainty sigma = 0.000011, epsilon = 0.000728
 c19bf                                  6      0.0000       0.00000       A     3.31518e-01     4.13124e-01    ;  uncertainty sigma = 0.000015, epsilon = 0.000361
 c20bf                                  6      0.0000       0.00000       A     3.31501e-01     4.13078e-01    ;  uncertainty sigma = 0.000025, epsilon = 0.001598
 s21bf                                 16      0.0000       0.00000       A     4.05775e-01     2.56504e-01    ;  uncertainty sigma = 0.000009, epsilon = 0.002944
 o22bf                                  8      0.0000       0.00000       A     3.04808e-01     6.12058e-01    ;  uncertainty sigma = 0.000011, epsilon = 0.001075
 o23bf                                  8      0.0000       0.00000       A     3.04808e-01     6.12058e-01    ;  uncertainty sigma = 0.000011, epsilon = 0.001075
 c24bf                                  6      0.0000       0.00000       A     3.39790e-01     4.50653e-01    ;  uncertainty sigma = 0.000003, epsilon = 0.000848
 c25bf                                  6      0.0000       0.00000       A     3.31513e-01     4.13587e-01    ;  uncertainty sigma = 0.000009, epsilon = 0.001133
 c26bf                                  6      0.0000       0.00000       A     3.31517e-01     4.13280e-01    ;  uncertainty sigma = 0.000006, epsilon = 0.000664
 c27bf                                  6      0.0000       0.00000       A     3.31516e-01     4.13226e-01    ;  uncertainty sigma = 0.000004, epsilon = 0.000523
 c28bf                                  6      0.0000       0.00000       A     3.31515e-01     4.13144e-01    ;  uncertainty sigma = 0.000013, epsilon = 0.000592
 n29bf                                  7      0.0000       0.00000       A     3.20620e-01     8.53559e-01    ;  uncertainty sigma = 0.000020, epsilon = 0.001631
 c30bf                                  6      0.0000       0.00000       A     3.39756e-01     4.50683e-01    ;  uncertainty sigma = 0.000014, epsilon = 0.000756
 c31bf                                  6      0.0000       0.00000       A     3.39766e-01     4.50533e-01    ;  uncertainty sigma = 0.000005, epsilon = 0.001098
 c32bf                                  6      0.0000       0.00000       A     3.39778e-01     4.50821e-01    ;  uncertainty sigma = 0.000002, epsilon = 0.000662
 h33bf                                  1      0.0000       0.00000       A     2.62540e-01     6.71221e-02    ;  uncertainty sigma = 0.000022, epsilon = 0.000645
 h34bf                                  1      0.0000       0.00000       A     2.62566e-01     6.71158e-02    ;  uncertainty sigma = 0.000015, epsilon = 0.000400
 h35bf                                  1      0.0000       0.00000       A     2.53628e-01     6.69333e-02    ;  uncertainty sigma = 0.000020, epsilon = 0.000763
 h36bf                                  1      0.0000       0.00000       A     2.53628e-01     6.69333e-02    ;  uncertainty sigma = 0.000020, epsilon = 0.000763
 h37bf                                  1      0.0000       0.00000       A     2.62563e-01     6.70733e-02    ;  uncertainty sigma = 0.000010, epsilon = 0.000583
 h38bf                                  1      0.0000       0.00000       A     2.62569e-01     6.69121e-02    ;  uncertainty sigma = 0.000009, epsilon = 0.000334
 h39bf                                  1      0.0000       0.00000       A     2.62578e-01     6.73015e-02    ;  uncertainty sigma = 0.000018, epsilon = 0.000492
 h40bf                                  1      0.0000       0.00000       A     1.10720e-01     4.14040e-02    ;  uncertainty sigma = 0.000106, epsilon = 0.001477
 h41bf                                  1      0.0000       0.00000       A     2.53624e-01     6.69778e-02    ;  uncertainty sigma = 0.000049, epsilon = 0.000568
 h42bf                                  1      0.0000       0.00000       A     2.53633e-01     6.70304e-02    ;  uncertainty sigma = 0.000014, epsilon = 0.000494
 h43bf                                  1      0.0000       0.00000       A     2.62533e-01     6.70950e-02    ;  uncertainty sigma = 0.000019, epsilon = 0.000754
 h44bf                                  1      0.0000       0.00000       A     2.42167e-01     8.68275e-02    ;  uncertainty sigma = 0.000012, epsilon = 0.000620
 h45bf                                  1      0.0000       0.00000       A     2.42167e-01     8.68275e-02    ;  uncertainty sigma = 0.000012, epsilon = 0.000620
 h46bf                                  1      0.0000       0.00000       A     2.42167e-01     8.68275e-02    ;  uncertainty sigma = 0.000012, epsilon = 0.000620
 h47bf                                  1      0.0000       0.00000       A     2.62543e-01     6.72781e-02    ;  uncertainty sigma = 0.000012, epsilon = 0.000446
 h48bf                                  1      0.0000       0.00000       A     2.53670e-01     6.69091e-02    ;  uncertainty sigma = 0.000016, epsilon = 0.000529
 h49bf                                  1      0.0000       0.00000       A     2.42180e-01     8.67760e-02    ;  uncertainty sigma = 0.000026, epsilon = 0.001008
 h50bf                                  1      0.0000       0.00000       A     2.42180e-01     8.67760e-02    ;  uncertainty sigma = 0.000026, epsilon = 0.001008
 h51bf                                  1      0.0000       0.00000       A     2.60010e-01     8.65601e-02    ;  uncertainty sigma = 0.000015, epsilon = 0.000689
 h52bf                                  1      0.0000       0.00000       A     2.60010e-01     8.65601e-02    ;  uncertainty sigma = 0.000015, epsilon = 0.000689
 h53bf                                  1      0.0000       0.00000       A     2.60019e-01     8.66069e-02    ;  uncertainty sigma = 0.000014, epsilon = 0.000706
 h54bf                                  1      0.0000       0.00000       A     2.60019e-01     8.66069e-02    ;  uncertainty sigma = 0.000014, epsilon = 0.000706
 h55bf                                  1      0.0000       0.00000       A     2.60019e-01     8.66069e-02    ;  uncertainty sigma = 0.000014, epsilon = 0.000706

[ moleculetype ]
;name             nrexcl
 MOL                   3

[ atoms ]
;       nr            type      resi   res      atom      cgnr      charge          mass ; qtot
         1            c0bf         1   UNL        c0         1    -0.02411       12.0110 ; qtot   -0.024
         2            c1bf         1   UNL        c1         2    -0.22162       12.0110 ; qtot   -0.246
         3            c2bf         1   UNL        c2         3     0.17400       12.0110 ; qtot   -0.072
         4            c3bf         1   UNL        c3         4    -0.15995       12.0110 ; qtot   -0.232
         5            c4bf         1   UNL        c4         5     0.32361       12.0110 ; qtot    0.092
         6            c5bf         1   UNL        c5         6     0.27545       12.0110 ; qtot    0.367
         7            n6bf         1   UNL        n6         7    -0.61815       14.0070 ; qtot   -0.251
         8            c7bf         1   UNL        c7         8     0.29560       12.0110 ; qtot    0.045
         9            c8bf         1   UNL        c8         9     0.29621       12.0110 ; qtot    0.341
        10            n9bf         1   UNL        n9        10    -0.62862       14.0070 ; qtot   -0.288
        11           c10bf         1   UNL       c10        11    -0.02590       12.0110 ; qtot   -0.313
        12           c11bf         1   UNL       c11        12    -0.13841       12.0110 ; qtot   -0.452
        13           c12bf         1   UNL       c12        13    -0.08627       12.0110 ; qtot   -0.538
        14           c13bf         1   UNL       c13        14    -0.12272       12.0110 ; qtot   -0.661
        15           n14bf         1   UNL       n14        15    -0.64735       14.0070 ; qtot   -1.308
        16           c15bf         1   UNL       c15        16     0.15628       12.0110 ; qtot   -1.152
        17           c16bf         1   UNL       c16        17     0.33325       12.0110 ; qtot   -0.819
        18           n17bf         1   UNL       n17        18    -0.60182       14.0070 ; qtot   -1.421
        19           c18bf         1   UNL       c18        19     0.35581       12.0110 ; qtot   -1.065
        20           c19bf         1   UNL       c19        20    -0.13704       12.0110 ; qtot   -1.202
        21           c20bf         1   UNL       c20        21    -0.26398       12.0110 ; qtot   -1.466
        22           s21bf         1   UNL       s21        22     1.01656       32.0670 ; qtot   -0.449
        23           o22bf         1   UNL       o22        23    -0.58472       15.9990 ; qtot   -1.034
        24           o23bf         1   UNL       o23        24    -0.58472       15.9990 ; qtot   -1.619
        25           c24bf         1   UNL       c24        25    -0.18352       12.0110 ; qtot   -1.802
        26           c25bf         1   UNL       c25        26    -0.04798       12.0110 ; qtot   -1.850
        27           c26bf         1   UNL       c26        27    -0.09250       12.0110 ; qtot   -1.943
        28           c27bf         1   UNL       c27        28    -0.18860       12.0110 ; qtot   -2.131
        29           c28bf         1   UNL       c28        29    -0.10690       12.0110 ; qtot   -2.238
        30           n29bf         1   UNL       n29        30    -0.07544       14.0070 ; qtot   -2.314
        31           c30bf         1   UNL       c30        31     0.04608       12.0110 ; qtot   -2.267
        32           c31bf         1   UNL       c31        32    -0.10099       12.0110 ; qtot   -2.368
        33           c32bf         1   UNL       c32        33    -0.09177       12.0110 ; qtot   -2.460
        34           h33bf         1   UNL       h33        34     0.15776        1.0080 ; qtot   -2.302
        35           h34bf         1   UNL       h34        35     0.14719        1.0080 ; qtot   -2.155
        36           h35bf         1   UNL       h35        36     0.03380        1.0080 ; qtot   -2.121
        37           h36bf         1   UNL       h36        37     0.03331        1.0080 ; qtot   -2.088
        38           h37bf         1   UNL       h37        38     0.13697        1.0080 ; qtot   -1.951
        39           h38bf         1   UNL       h38        39     0.13662        1.0080 ; qtot   -1.815
        40           h39bf         1   UNL       h39        40     0.14123        1.0080 ; qtot   -1.673
        41           h40bf         1   UNL       h40        41     0.47844        1.0080 ; qtot   -1.195
        42           h41bf         1   UNL       h41        42     0.03967        1.0080 ; qtot   -1.155
        43           h42bf         1   UNL       h42        43     0.03424        1.0080 ; qtot   -1.121
        44           h43bf         1   UNL       h43        44     0.16807        1.0080 ; qtot   -0.953
        45           h44bf         1   UNL       h44        45     0.10378        1.0080 ; qtot   -0.849
        46           h45bf         1   UNL       h45        46     0.10378        1.0080 ; qtot   -0.745
        47           h46bf         1   UNL       h46        47     0.10378        1.0080 ; qtot   -0.642
        48           h47bf         1   UNL       h47        48     0.15516        1.0080 ; qtot   -0.486
        49           h48bf         1   UNL       h48        49     0.16423        1.0080 ; qtot   -0.322
        50           h49bf         1   UNL       h49        50     0.05705        1.0080 ; qtot   -0.265
        51           h50bf         1   UNL       h50        51     0.05705        1.0080 ; qtot   -0.208
        52           h51bf         1   UNL       h51        52     0.04947        1.0080 ; qtot   -0.159
        53           h52bf         1   UNL       h52        53     0.04947        1.0080 ; qtot   -0.109
        54           h53bf         1   UNL       h53        54     0.03638        1.0080 ; qtot   -0.073
        55           h54bf         1   UNL       h54        55     0.03638        1.0080 ; qtot   -0.036
        56           h55bf         1   UNL       h55        56     0.03640        1.0080 ; qtot    0.000

[ bonds ]
;       ai        aj funct               r               k
         1         4     1        0.138000   347495.985986    ;  uncertainty r = 0.000143, k = 17.234335
         1         6     1        0.143085   310245.234375    ;  uncertainty r = 0.000128, k = 17.466674
         1        11     1        0.148137   283751.862402    ;  uncertainty r = 0.000105, k = 15.453581
         2         3     1        0.138770   381943.426953    ;  uncertainty r = 0.000111, k = 9.337646
         2         5     1        0.141431   396079.468311    ;  uncertainty r = 0.000094, k = 15.205670
         2        34     1        0.108811   340366.765625    ;  uncertainty r = 0.000031, k = 1.855831
         3         4     1        0.142004   351951.292236    ;  uncertainty r = 0.000218, k = 13.007858
         3        15     1        0.141414   345942.921143    ;  uncertainty r = 0.000097, k = 12.910217
         4        35     1        0.108883   338510.268848    ;  uncertainty r = 0.000020, k = 3.739164
         5         6     1        0.142995   298655.600342    ;  uncertainty r = 0.000072, k = 15.498948
         5        10     1        0.136382   355171.598340    ;  uncertainty r = 0.000057, k = 8.738544
         6         7     1        0.135767   353109.910889    ;  uncertainty r = 0.000088, k = 12.675249
         7         8     1        0.131584   437137.956152    ;  uncertainty r = 0.000061, k = 11.801030
         8         9     1        0.141378   325245.374902    ;  uncertainty r = 0.000067, k = 16.241067
         8        36     1        0.109180   341408.015723    ;  uncertainty r = 0.000031, k = 1.111543
         9        10     1        0.131606   448634.967090    ;  uncertainty r = 0.000067, k = 6.059784
         9        37     1        0.109175   341608.175586    ;  uncertainty r = 0.000026, k = 2.358932
        11        12     1        0.141773   332885.056543    ;  uncertainty r = 0.000129, k = 5.382996
        11        14     1        0.139520   349022.262402    ;  uncertainty r = 0.000109, k = 3.219566
        12        13     1        0.138795   364168.909326    ;  uncertainty r = 0.000031, k = 1.854519
        12        38     1        0.108772   335281.433350    ;  uncertainty r = 0.000023, k = 2.010175
        13        27     1        0.140447   366387.726611    ;  uncertainty r = 0.000031, k = 1.694820
        13        39     1        0.108842   335262.612500    ;  uncertainty r = 0.000021, k = 1.243220
        14        26     1        0.139523   359361.267578    ;  uncertainty r = 0.000061, k = 7.214957
        14        40     1        0.108808   335146.878320    ;  uncertainty r = 0.000036, k = 1.971650
        15        16     1        0.139103   334487.280322    ;  uncertainty r = 0.000264, k = 9.014066
        15        41     1        0.101492   409720.294043    ;  uncertainty r = 0.000088, k = 5.983707
        16        17     1        0.140927   340447.897021    ;  uncertainty r = 0.000113, k = 16.488631
        16        21     1        0.141356   348414.581348    ;  uncertainty r = 0.000198, k = 15.946801
        17        18     1        0.132524   387119.492578    ;  uncertainty r = 0.000108, k = 11.004640
        17        42     1        0.108905   336131.027441    ;  uncertainty r = 0.000101, k = 3.724272
        18        19     1        0.133802   397972.278857    ;  uncertainty r = 0.000074, k = 5.323603
        19        20     1        0.139170   363105.084424    ;  uncertainty r = 0.000048, k = 3.861484
        19        43     1        0.108994   339519.240039    ;  uncertainty r = 0.000025, k = 1.411827
        20        21     1        0.138845   368349.257520    ;  uncertainty r = 0.000202, k = 14.185219
        20        44     1        0.108610   333138.767725    ;  uncertainty r = 0.000052, k = 1.956172
        21        22     1        0.180205   137177.894727    ;  uncertainty r = 0.000181, k = 18.369765
        22        23     1        0.147757   507438.298437    ;  uncertainty r = 0.000058, k = 6.198400
        22        24     1        0.147757   507438.298437    ;  uncertainty r = 0.000058, k = 6.198400
        22        25     1        0.181050   174448.769580    ;  uncertainty r = 0.000039, k = 9.209305
        25        45     1        0.109286   321567.980078    ;  uncertainty r = 0.000031, k = 1.365001
        25        46     1        0.109286   321567.980078    ;  uncertainty r = 0.000031, k = 1.365001
        25        47     1        0.109286   321567.980078    ;  uncertainty r = 0.000031, k = 1.365001
        26        27     1        0.142475   368156.401270    ;  uncertainty r = 0.000048, k = 7.371802
        26        30     1        0.138598   295436.264648    ;  uncertainty r = 0.000073, k = 9.600535
        27        28     1        0.144016   266938.638184    ;  uncertainty r = 0.000034, k = 8.060544
        28        29     1        0.137632   437996.462695    ;  uncertainty r = 0.000036, k = 2.810758
        28        48     1        0.108267   339971.119189    ;  uncertainty r = 0.000015, k = 1.899718
        29        30     1        0.138861   294197.280713    ;  uncertainty r = 0.000043, k = 8.852241
        29        49     1        0.108276   339553.281006    ;  uncertainty r = 0.000020, k = 1.197194
        30        31     1        0.145122   242586.322998    ;  uncertainty r = 0.000020, k = 3.849223
        31        32     1        0.153286   214060.707861    ;  uncertainty r = 0.000066, k = 4.580266
        31        50     1        0.109549   307850.440869    ;  uncertainty r = 0.000024, k = 2.213481
        31        51     1        0.109549   307850.440869    ;  uncertainty r = 0.000024, k = 2.213481
        32        33     1        0.153493   221888.495850    ;  uncertainty r = 0.000035, k = 2.033078
        32        52     1        0.109656   306598.994824    ;  uncertainty r = 0.000007, k = 1.227491
        32        53     1        0.109656   306598.994824    ;  uncertainty r = 0.000007, k = 1.227491
        33        54     1        0.109635   309871.498779    ;  uncertainty r = 0.000010, k = 1.426429
        33        55     1        0.109635   309871.498779    ;  uncertainty r = 0.000010, k = 1.426429
        33        56     1        0.109635   309871.498779    ;  uncertainty r = 0.000010, k = 1.426429

[ angles ]
;       ai        aj        ak funct           theta             cth
         1         4         3     1      122.335289      516.619394    ;  uncertainty theta = 0.004567, k = 0.260105
         1         4        35     1      118.704933      277.851890    ;  uncertainty theta = 0.005306, k = 0.050256
         1         6         5     1      120.727844      398.377566    ;  uncertainty theta = 0.005688, k = 0.083900
         1         6         7     1      118.059143      466.719084    ;  uncertainty theta = 0.004200, k = 0.232797
         1        11        12     1      119.939163      397.252815    ;  uncertainty theta = 0.003248, k = 0.114583
         1        11        14     1      119.746048      386.698935    ;  uncertainty theta = 0.002793, k = 0.163583
         2         3         4     1      119.362228      387.607800    ;  uncertainty theta = 0.003782, k = 0.067189
         2         3        15     1      122.010719      487.333915    ;  uncertainty theta = 0.006482, k = 0.189293
         2         5         6     1      119.517235      392.036797    ;  uncertainty theta = 0.005326, k = 0.191059
         2         5        10     1      122.312637      528.712396    ;  uncertainty theta = 0.003351, k = 0.210335
         3         2         5     1      118.206688      518.635612    ;  uncertainty theta = 0.002447, k = 0.073028
         3         2        34     1      121.438538      270.401917    ;  uncertainty theta = 0.001365, k = 0.142095
         3         4        35     1      119.369408      284.883278    ;  uncertainty theta = 0.005054, k = 0.124449
         3        15        16     1      115.247620      387.594010    ;  uncertainty theta = 0.002924, k = 0.212981
         3        15        41     1      115.334732      382.605049    ;  uncertainty theta = 0.007384, k = 0.160726
         4         1         6     1      121.234207      456.906322    ;  uncertainty theta = 0.004548, k = 0.137789
         4         1        11     1      121.228798      423.141028    ;  uncertainty theta = 0.002961, k = 0.156452
         4         3        15     1      120.277267      500.376164    ;  uncertainty theta = 0.004774, k = 0.343101
         5         2        34     1      120.837975      275.673543    ;  uncertainty theta = 0.003390, k = 0.103595
         5         6         7     1      119.722855      514.456752    ;  uncertainty theta = 0.004269, k = 0.061580
         5        10         9     1      114.458984      488.266148    ;  uncertainty theta = 0.001996, k = 0.147683
         6         1        11     1      119.335999      396.188588    ;  uncertainty theta = 0.004435, k = 0.267308
         6         5        10     1      119.243858      555.279545    ;  uncertainty theta = 0.007472, k = 0.086368
         6         7         8     1      116.502525      472.887605    ;  uncertainty theta = 0.004302, k = 0.130226
         7         8         9     1      121.240555      622.447314    ;  uncertainty theta = 0.002919, k = 0.205880
         7         8        36     1      116.813492      347.959523    ;  uncertainty theta = 0.001638, k = 0.087624
         8         9        10     1      120.931259      612.842998    ;  uncertainty theta = 0.002470, k = 0.239696
         8         9        37     1      121.868530      283.534439    ;  uncertainty theta = 0.002376, k = 0.096063
         9         8        36     1      121.994606      282.804174    ;  uncertainty theta = 0.002439, k = 0.090842
        10         9        37     1      116.754013      350.159800    ;  uncertainty theta = 0.001533, k = 0.075385
        11        12        13     1      122.513977      519.825227    ;  uncertainty theta = 0.002504, k = 0.082970
        11        12        38     1      118.705055      283.822243    ;  uncertainty theta = 0.003481, k = 0.052326
        11        14        26     1      118.497780      530.121087    ;  uncertainty theta = 0.003841, k = 0.152577
        11        14        40     1      120.162003      275.863060    ;  uncertainty theta = 0.003309, k = 0.088345
        12        11        14     1      122.923996      430.141899    ;  uncertainty theta = 0.004997, k = 0.045936
        12        13        27     1      119.138931      544.096653    ;  uncertainty theta = 0.002276, k = 0.061852
        12        13        39     1      120.552231      281.882188    ;  uncertainty theta = 0.001756, k = 0.032676
        13        12        38     1      119.644821      296.182906    ;  uncertainty theta = 0.002811, k = 0.056213
        13        27        26     1      116.168289      405.384406    ;  uncertainty theta = 0.003352, k = 0.121456
        13        27        28     1      133.061523      371.681295    ;  uncertainty theta = 0.003862, k = 0.086284
        14        26        27     1      121.976685      359.878649    ;  uncertainty theta = 0.002116, k = 0.143114
        14        26        30     1      127.448364      390.684001    ;  uncertainty theta = 0.004863, k = 0.173683
        15        16        17     1      118.512817      444.270049    ;  uncertainty theta = 0.006989, k = 0.276229
        15        16        21     1      122.762405      517.830874    ;  uncertainty theta = 0.007977, k = 0.368248
        16        15        41     1      114.408607      380.718399    ;  uncertainty theta = 0.008156, k = 0.169224
        16        17        18     1      124.922012      667.515332    ;  uncertainty theta = 0.002966, k = 0.161817
        16        17        42     1      118.731201      264.771783    ;  uncertainty theta = 0.008633, k = 0.144654
        16        21        20     1      123.289940      400.819392    ;  uncertainty theta = 0.003703, k = 0.311812
        16        21        22     1      119.668861      323.012512    ;  uncertainty theta = 0.009862, k = 0.668304
        17        16        21     1      118.657333      362.619739    ;  uncertainty theta = 0.004612, k = 0.362834
        17        18        19     1      118.268311      445.304685    ;  uncertainty theta = 0.004478, k = 0.098123
        18        17        42     1      116.579346      347.314743    ;  uncertainty theta = 0.005152, k = 0.066004
        18        19        20     1      122.431076      677.632432    ;  uncertainty theta = 0.002046, k = 0.093657
        18        19        43     1      116.840332      340.667018    ;  uncertainty theta = 0.001197, k = 0.068775
        19        20        21     1      118.808189      483.994204    ;  uncertainty theta = 0.004991, k = 0.079007
        19        20        44     1      122.214798      277.736813    ;  uncertainty theta = 0.004016, k = 0.070187
        20        19        43     1      120.256363      277.546307    ;  uncertainty theta = 0.002265, k = 0.082403
        20        21        22     1      114.589767      352.518918    ;  uncertainty theta = 0.008187, k = 0.213541
        21        20        44     1      119.535904      260.121156    ;  uncertainty theta = 0.004889, k = 0.124125
        21        22        23     1      112.903687      607.682204    ;  uncertainty theta = 0.002869, k = 0.171145
        21        22        24     1      112.903687      607.682204    ;  uncertainty theta = 0.002869, k = 0.171145
        21        22        25     1      104.371536      610.740911    ;  uncertainty theta = 0.002610, k = 0.101866
        22        25        45     1      107.113976      366.636152    ;  uncertainty theta = 0.002061, k = 0.075109
        22        25        46     1      107.113976      366.636152    ;  uncertainty theta = 0.002061, k = 0.075109
        22        25        47     1      107.113976      366.636152    ;  uncertainty theta = 0.002061, k = 0.075109
        23        22        24     1      123.473061      838.268448    ;  uncertainty theta = 0.001927, k = 0.047858
        23        22        25     1      112.603317      748.419512    ;  uncertainty theta = 0.000730, k = 0.122171
        24        22        25     1      112.603317      748.419512    ;  uncertainty theta = 0.000730, k = 0.122171
        26        14        40     1      121.963638      289.307518    ;  uncertainty theta = 0.002043, k = 0.108255
        26        27        28     1      106.493187      690.292710    ;  uncertainty theta = 0.002488, k = 0.149334
        26        30        29     1      107.448288      848.279122    ;  uncertainty theta = 0.003036, k = 0.180293
        26        30        31     1      120.366272      401.185818    ;  uncertainty theta = 0.004169, k = 0.073472
        27        13        39     1      121.571877      299.798705    ;  uncertainty theta = 0.002043, k = 0.094651
        27        26        30     1      109.296593      668.933854    ;  uncertainty theta = 0.003052, k = 0.201503
        27        28        29     1      106.706444      780.976517    ;  uncertainty theta = 0.001939, k = 0.091657
        27        28        48     1      125.330765      256.683653    ;  uncertainty theta = 0.003017, k = 0.063711
        28        29        30     1      111.750549      753.264540    ;  uncertainty theta = 0.002011, k = 0.123782
        28        29        49     1      128.169464      241.312229    ;  uncertainty theta = 0.001958, k = 0.039437
        29        28        48     1      123.458641      250.395954    ;  uncertainty theta = 0.003649, k = 0.087560
        29        30        31     1      120.318314      405.053892    ;  uncertainty theta = 0.002198, k = 0.136871
        30        29        49     1      116.979324      283.508455    ;  uncertainty theta = 0.001752, k = 0.116758
        30        31        32     1      110.953697      667.798602    ;  uncertainty theta = 0.002238, k = 0.102876
        30        31        50     1      106.332787      457.582768    ;  uncertainty theta = 0.002469, k = 0.060105
        30        31        51     1      106.332787      457.582768    ;  uncertainty theta = 0.002469, k = 0.060105
        31        32        33     1      110.449036      593.859541    ;  uncertainty theta = 0.001856, k = 0.021272
        31        32        52     1      106.762955      400.374216    ;  uncertainty theta = 0.002926, k = 0.050949
        31        32        53     1      106.762955      400.374216    ;  uncertainty theta = 0.002926, k = 0.050949
        32        31        50     1      108.569176      407.701388    ;  uncertainty theta = 0.001711, k = 0.039405
        32        31        51     1      108.569176      407.701388    ;  uncertainty theta = 0.001711, k = 0.039405
        32        33        54     1      108.392746      408.951685    ;  uncertainty theta = 0.001435, k = 0.011255
        32        33        55     1      108.392746      408.951685    ;  uncertainty theta = 0.001435, k = 0.011255
        32        33        56     1      108.392746      408.951685    ;  uncertainty theta = 0.001435, k = 0.011255
        33        32        52     1      108.332092      413.469678    ;  uncertainty theta = 0.001949, k = 0.034965
        33        32        53     1      108.332092      413.469678    ;  uncertainty theta = 0.001949, k = 0.034965
        45        25        46     1      108.843689      296.191780    ;  uncertainty theta = 0.002069, k = 0.023128
        45        25        47     1      108.843689      296.191780    ;  uncertainty theta = 0.002069, k = 0.023128
        46        25        47     1      108.843689      296.191780    ;  uncertainty theta = 0.002069, k = 0.023128
        50        31        51     1      105.466125      317.000151    ;  uncertainty theta = 0.002296, k = 0.071161
        52        32        53     1      104.421463      314.531064    ;  uncertainty theta = 0.001998, k = 0.034642
        54        33        55     1      104.957779      316.176164    ;  uncertainty theta = 0.001874, k = 0.017662
        54        33        56     1      104.957779      316.176164    ;  uncertainty theta = 0.001874, k = 0.017662
        55        33        56     1      104.957779      316.176164    ;  uncertainty theta = 0.001874, k = 0.017662

[ dihedrals ] ; propers for gromacs 4.5 or higher, use funct 9
;       ai        aj        ak        al funct           phase               k        pn
         1         4         3         2     9        0.000000       -0.062504         1    ;  uncertainty k = 0.337260
         1         4         3         2     9      180.000000        6.273655         2    ;  uncertainty k = 0.976005
         1         4         3         2     9        0.000000        0.300250         3    ;  uncertainty k = 0.188358
         1         4         3         2     9      180.000000        1.347177         4    ;  uncertainty k = 0.321066
         1         4         3        15     9        0.000000        0.286609         1    ;  uncertainty k = 0.738717
         1         4         3        15     9      180.000000        7.663469         2    ;  uncertainty k = 0.500290
         1         4         3        15     9        0.000000        0.811590         3    ;  uncertainty k = 0.268206
         1         4         3        15     9      180.000000        1.632995         4    ;  uncertainty k = 0.114050
         1         6         5         2     9        0.000000       -0.713080         1    ;  uncertainty k = 0.521879
         1         6         5         2     9      180.000000        4.611688         2    ;  uncertainty k = 1.535208
         1         6         5         2     9        0.000000        0.274756         3    ;  uncertainty k = 0.299130
         1         6         5         2     9      180.000000        1.240053         4    ;  uncertainty k = 0.359772
         1         6         5        10     9        0.000000       -0.297577         1    ;  uncertainty k = 0.701970
         1         6         5        10     9      180.000000        5.014359         2    ;  uncertainty k = 1.176011
         1         6         5        10     9        0.000000        0.093992         3    ;  uncertainty k = 0.371276
         1         6         5        10     9      180.000000        1.323525         4    ;  uncertainty k = 0.229333
         1         6         7         8     9        0.000000       -0.230726         1    ;  uncertainty k = 0.542096
         1         6         7         8     9      180.000000       12.457806         2    ;  uncertainty k = 0.567635
         1         6         7         8     9        0.000000        2.051214         3    ;  uncertainty k = 0.352155
         1         6         7         8     9      180.000000        1.316225         4    ;  uncertainty k = 0.190864
         1        11        12        13     9        0.000000        0.106032         1    ;  uncertainty k = 0.347322
         1        11        12        13     9      180.000000        7.741873         2    ;  uncertainty k = 0.677794
         1        11        12        13     9        0.000000        1.125160         3    ;  uncertainty k = 0.437429
         1        11        12        13     9      180.000000        1.837354         4    ;  uncertainty k = 0.142429
         1        11        12        38     9        0.000000       -0.194197         1    ;  uncertainty k = 0.071949
         1        11        12        38     9      180.000000        7.286466         2    ;  uncertainty k = 0.459537
         1        11        12        38     9        0.000000        0.820345         3    ;  uncertainty k = 0.187087
         1        11        12        38     9      180.000000        1.127885         4    ;  uncertainty k = 0.183907
         1        11        14        26     9        0.000000       -0.053201         1    ;  uncertainty k = 0.496308
         1        11        14        26     9      180.000000       10.642030         2    ;  uncertainty k = 0.786373
         1        11        14        26     9        0.000000        1.440821         3    ;  uncertainty k = 0.262114
         1        11        14        26     9      180.000000        1.643976         4    ;  uncertainty k = 0.317237
         1        11        14        40     9        0.000000       -0.278999         1    ;  uncertainty k = 0.217718
         1        11        14        40     9      180.000000        7.921249         2    ;  uncertainty k = 0.258941
         1        11        14        40     9        0.000000        0.866593         3    ;  uncertainty k = 0.199560
         1        11        14        40     9      180.000000        1.135836         4    ;  uncertainty k = 0.099379
         2         3         4        35     9        0.000000        0.249483         1    ;  uncertainty k = 0.404907
         2         3         4        35     9      180.000000        5.922880         2    ;  uncertainty k = 0.882861
         2         3         4        35     9        0.000000        1.141823         3    ;  uncertainty k = 0.151874
         2         3         4        35     9      180.000000        1.438043         4    ;  uncertainty k = 0.272334
         2         3        15        16     9        0.000000        2.391292         1    ;  uncertainty k = 0.927258
         2         3        15        16     9      180.000000        5.627189         2    ;  uncertainty k = 0.345908
         2         3        15        16     9        0.000000        0.130796         3    ;  uncertainty k = 0.275597
         2         3        15        16     9      180.000000        0.108068         4    ;  uncertainty k = 0.070781
         2         3        15        41     9        0.000000        3.714210         1    ;  uncertainty k = 1.019186
         2         3        15        41     9      180.000000        4.537151         2    ;  uncertainty k = 0.136540
         2         3        15        41     9        0.000000        0.421528         3    ;  uncertainty k = 0.226094
         2         3        15        41     9      180.000000       -0.068003         4    ;  uncertainty k = 0.067046
         2         5         6         7     9        0.000000        0.076450         1    ;  uncertainty k = 0.284767
         2         5         6         7     9      180.000000        6.080416         2    ;  uncertainty k = 1.149880
         2         5         6         7     9        0.000000        0.106983         3    ;  uncertainty k = 0.156574
         2         5         6         7     9      180.000000        1.373586         4    ;  uncertainty k = 0.405208
         2         5        10         9     9        0.000000        0.427932         1    ;  uncertainty k = 1.029214
         2         5        10         9     9      180.000000       12.638436         2    ;  uncertainty k = 0.318597
         2         5        10         9     9        0.000000        2.227131         3    ;  uncertainty k = 0.470956
         2         5        10         9     9      180.000000        1.437848         4    ;  uncertainty k = 0.260470
         3         2         5         6     9        0.000000        0.121232         1    ;  uncertainty k = 0.458444
         3         2         5         6     9      180.000000        7.195261         2    ;  uncertainty k = 0.794921
         3         2         5         6     9        0.000000        0.037658         3    ;  uncertainty k = 0.279135
         3         2         5         6     9      180.000000        1.290689         4    ;  uncertainty k = 0.271573
         3         2         5        10     9        0.000000        0.146697         1    ;  uncertainty k = 0.428362
         3         2         5        10     9      180.000000        9.787397         2    ;  uncertainty k = 0.378069
         3         2         5        10     9        0.000000        0.568644         3    ;  uncertainty k = 0.286792
         3         2         5        10     9      180.000000        1.391199         4    ;  uncertainty k = 0.231273
         3         4         1         6     9        0.000000        0.019577         1    ;  uncertainty k = 0.540540
         3         4         1         6     9      180.000000       12.468998         2    ;  uncertainty k = 0.421814
         3         4         1         6     9        0.000000        0.364670         3    ;  uncertainty k = 0.229681
         3         4         1         6     9      180.000000        1.282696         4    ;  uncertainty k = 0.324127
         3         4         1        11     9        0.000000        0.187206         1    ;  uncertainty k = 0.206575
         3         4         1        11     9      180.000000       10.380167         2    ;  uncertainty k = 0.641866
         3         4         1        11     9        0.000000        1.348017         3    ;  uncertainty k = 0.274689
         3         4         1        11     9      180.000000        1.716827         4    ;  uncertainty k = 0.288429
         3        15        16        17     9        0.000000        4.219814         1    ;  uncertainty k = 1.204826
         3        15        16        17     9      180.000000        5.915026         2    ;  uncertainty k = 0.485741
         3        15        16        17     9        0.000000        0.506820         3    ;  uncertainty k = 0.114706
         3        15        16        17     9      180.000000        0.021030         4    ;  uncertainty k = 0.159761
         3        15        16        21     9        0.000000        0.589932         1    ;  uncertainty k = 1.531193
         3        15        16        21     9      180.000000        8.272739         2    ;  uncertainty k = 0.309915
         3        15        16        21     9        0.000000       -0.349199         3    ;  uncertainty k = 0.585019
         3        15        16        21     9      180.000000        0.078445         4    ;  uncertainty k = 0.210861
         4         1         6         5     9        0.000000       -0.064268         1    ;  uncertainty k = 0.482878
         4         1         6         5     9      180.000000        5.815078         2    ;  uncertainty k = 0.996902
         4         1         6         5     9        0.000000        0.060037         3    ;  uncertainty k = 0.264412
         4         1         6         5     9      180.000000        1.005082         4    ;  uncertainty k = 0.332027
         4         1         6         7     9        0.000000        0.261320         1    ;  uncertainty k = 0.518995
         4         1         6         7     9      180.000000        6.885065         2    ;  uncertainty k = 0.805626
         4         1         6         7     9        0.000000        0.373938         3    ;  uncertainty k = 0.290824
         4         1         6         7     9      180.000000        1.164313         4    ;  uncertainty k = 0.349614
         4         1        11        12     9        0.000000       -0.241234         1    ;  uncertainty k = 0.353962
         4         1        11        12     9      180.000000        5.771563         2    ;  uncertainty k = 0.169726
         4         1        11        12     9        0.000000        0.317160         3    ;  uncertainty k = 0.177141
         4         1        11        12     9      180.000000        0.588639         4    ;  uncertainty k = 0.117338
         4         1        11        14     9        0.000000       -0.499368         1    ;  uncertainty k = 0.488629
         4         1        11        14     9      180.000000        5.549566         2    ;  uncertainty k = 0.154463
         4         1        11        14     9        0.000000        0.442154         3    ;  uncertainty k = 0.090377
         4         1        11        14     9      180.000000        0.527824         4    ;  uncertainty k = 0.117164
         4         3         2         5     9        0.000000       -0.221710         1    ;  uncertainty k = 0.191086
         4         3         2         5     9      180.000000        9.798196         2    ;  uncertainty k = 0.334095
         4         3         2         5     9        0.000000        0.329469         3    ;  uncertainty k = 0.461908
         4         3         2         5     9      180.000000        1.353768         4    ;  uncertainty k = 0.303959
         4         3         2        34     9        0.000000        0.274320         1    ;  uncertainty k = 0.397236
         4         3         2        34     9      180.000000        7.009104         2    ;  uncertainty k = 0.649589
         4         3         2        34     9        0.000000        1.295657         3    ;  uncertainty k = 0.118446
         4         3         2        34     9      180.000000        1.628272         4    ;  uncertainty k = 0.154579
         4         3        15        16     9        0.000000        2.704329         1    ;  uncertainty k = 1.100884
         4         3        15        16     9      180.000000        5.654041         2    ;  uncertainty k = 0.307787
         4         3        15        16     9        0.000000        0.621213         3    ;  uncertainty k = 0.287959
         4         3        15        16     9      180.000000        0.073947         4    ;  uncertainty k = 0.167406
         4         3        15        41     9        0.000000        3.340433         1    ;  uncertainty k = 0.856252
         4         3        15        41     9      180.000000        4.536996         2    ;  uncertainty k = 0.547945
         4         3        15        41     9        0.000000        0.508740         3    ;  uncertainty k = 0.257942
         4         3        15        41     9      180.000000       -0.053044         4    ;  uncertainty k = 0.129026
         5         2         3        15     9        0.000000       -0.189602         1    ;  uncertainty k = 0.394616
         5         2         3        15     9      180.000000       11.233636         2    ;  uncertainty k = 0.435508
         5         2         3        15     9        0.000000        0.975271         3    ;  uncertainty k = 0.174800
         5         2         3        15     9      180.000000        1.594279         4    ;  uncertainty k = 0.138017
         5         6         1        11     9        0.000000        0.163367         1    ;  uncertainty k = 0.742863
         5         6         1        11     9      180.000000        4.925989         2    ;  uncertainty k = 0.482652
         5         6         1        11     9        0.000000        1.071668         3    ;  uncertainty k = 0.234643
         5         6         1        11     9      180.000000        1.265583         4    ;  uncertainty k = 0.346237
         5         6         7         8     9        0.000000       -0.112022         1    ;  uncertainty k = 0.910117
         5         6         7         8     9      180.000000       11.596635         2    ;  uncertainty k = 0.629166
         5         6         7         8     9        0.000000        1.457657         3    ;  uncertainty k = 0.287216
         5         6         7         8     9      180.000000        1.330866         4    ;  uncertainty k = 0.318778
         5        10         9         8     9        0.000000        0.013311         1    ;  uncertainty k = 0.131653
         5        10         9         8     9      180.000000       17.231919         2    ;  uncertainty k = 0.196674
         5        10         9         8     9        0.000000        0.888029         3    ;  uncertainty k = 0.629562
         5        10         9         8     9      180.000000        1.519865         4    ;  uncertainty k = 0.234840
         5        10         9        37     9        0.000000        0.424411         1    ;  uncertainty k = 0.517708
         5        10         9        37     9      180.000000       19.045700         2    ;  uncertainty k = 0.443936
         5        10         9        37     9        0.000000        2.354564         3    ;  uncertainty k = 0.582721
         5        10         9        37     9      180.000000        1.407429         4    ;  uncertainty k = 0.336465
         6         1         4        35     9        0.000000        0.123738         1    ;  uncertainty k = 0.256829
         6         1         4        35     9      180.000000        9.582771         2    ;  uncertainty k = 0.350597
         6         1         4        35     9        0.000000        1.473211         3    ;  uncertainty k = 0.141253
         6         1         4        35     9      180.000000        1.670290         4    ;  uncertainty k = 0.172671
         6         1        11        12     9        0.000000        0.294934         1    ;  uncertainty k = 0.682343
         6         1        11        12     9      180.000000        5.135221         2    ;  uncertainty k = 0.368550
         6         1        11        12     9        0.000000        0.449391         3    ;  uncertainty k = 0.368548
         6         1        11        12     9      180.000000        0.735448         4    ;  uncertainty k = 0.087901
         6         1        11        14     9        0.000000       -0.151041         1    ;  uncertainty k = 0.585791
         6         1        11        14     9      180.000000        5.073872         2    ;  uncertainty k = 0.362908
         6         1        11        14     9        0.000000        0.270225         3    ;  uncertainty k = 0.353678
         6         1        11        14     9      180.000000        0.723111         4    ;  uncertainty k = 0.140163
         6         5         2        34     9        0.000000       -0.216754         1    ;  uncertainty k = 0.343873
         6         5         2        34     9      180.000000        5.853912         2    ;  uncertainty k = 0.879793
         6         5         2        34     9        0.000000        1.199031         3    ;  uncertainty k = 0.162614
         6         5         2        34     9      180.000000        1.246407         4    ;  uncertainty k = 0.338414
         6         5        10         9     9        0.000000       -0.063178         1    ;  uncertainty k = 1.326752
         6         5        10         9     9      180.000000       10.095142         2    ;  uncertainty k = 0.612694
         6         5        10         9     9        0.000000        1.278116         3    ;  uncertainty k = 0.488029
         6         5        10         9     9      180.000000        1.281711         4    ;  uncertainty k = 0.220795
         6         7         8         9     9        0.000000        0.020377         1    ;  uncertainty k = 0.368422
         6         7         8         9     9      180.000000       16.581266         2    ;  uncertainty k = 0.335688
         6         7         8         9     9        0.000000        0.829256         3    ;  uncertainty k = 0.750676
         6         7         8         9     9      180.000000        1.566270         4    ;  uncertainty k = 0.253962
         6         7         8        36     9        0.000000        0.275900         1    ;  uncertainty k = 0.531876
         6         7         8        36     9      180.000000       18.156242         2    ;  uncertainty k = 0.522836
         6         7         8        36     9        0.000000        2.344022         3    ;  uncertainty k = 0.655907
         6         7         8        36     9      180.000000        1.633482         4    ;  uncertainty k = 0.415921
         7         6         1        11     9        0.000000        0.205608         1    ;  uncertainty k = 1.297119
         7         6         1        11     9      180.000000        7.137753         2    ;  uncertainty k = 0.766262
         7         6         1        11     9        0.000000        0.773424         3    ;  uncertainty k = 0.512634
         7         6         1        11     9      180.000000        1.176773         4    ;  uncertainty k = 0.263387
         7         6         5        10     9        0.000000       -0.400492         1    ;  uncertainty k = 0.890675
         7         6         5        10     9      180.000000        7.087146         2    ;  uncertainty k = 0.720455
         7         6         5        10     9        0.000000        0.077638         3    ;  uncertainty k = 0.327161
         7         6         5        10     9      180.000000        1.330895         4    ;  uncertainty k = 0.356325
         7         8         9        10     9        0.000000       -0.202866         1    ;  uncertainty k = 0.782206
         7         8         9        10     9      180.000000       12.112991         2    ;  uncertainty k = 0.805807
         7         8         9        10     9        0.000000       -1.599825         3    ;  uncertainty k = 0.569696
         7         8         9        10     9      180.000000        0.918172         4    ;  uncertainty k = 0.463986
         7         8         9        37     9        0.000000        0.036887         1    ;  uncertainty k = 0.700692
         7         8         9        37     9      180.000000        6.513920         2    ;  uncertainty k = 1.135261
         7         8         9        37     9        0.000000        0.521732         3    ;  uncertainty k = 0.385188
         7         8         9        37     9      180.000000        1.117821         4    ;  uncertainty k = 0.330142
        10         5         2        34     9        0.000000        0.139927         1    ;  uncertainty k = 0.233388
        10         5         2        34     9      180.000000        8.199302         2    ;  uncertainty k = 0.492393
        10         5         2        34     9        0.000000        1.032825         3    ;  uncertainty k = 0.329116
        10         5         2        34     9      180.000000        1.219854         4    ;  uncertainty k = 0.291231
        10         9         8        36     9        0.000000       -0.033262         1    ;  uncertainty k = 0.634830
        10         9         8        36     9      180.000000        6.504272         2    ;  uncertainty k = 1.136878
        10         9         8        36     9        0.000000        0.521238         3    ;  uncertainty k = 0.433609
        10         9         8        36     9      180.000000        1.070757         4    ;  uncertainty k = 0.343719
        11         1         4        35     9        0.000000        0.133920         1    ;  uncertainty k = 0.241849
        11         1         4        35     9      180.000000        8.368020         2    ;  uncertainty k = 0.247907
        11         1         4        35     9        0.000000        1.001196         3    ;  uncertainty k = 0.152989
        11         1         4        35     9      180.000000        1.398313         4    ;  uncertainty k = 0.293351
        11        12        13        27     9        0.000000       -0.062333         1    ;  uncertainty k = 0.280825
        11        12        13        27     9      180.000000       16.638820         2    ;  uncertainty k = 0.343272
        11        12        13        27     9        0.000000       -0.353436         3    ;  uncertainty k = 0.521697
        11        12        13        27     9      180.000000        0.699405         4    ;  uncertainty k = 0.437541
        11        12        13        39     9        0.000000       -0.068872         1    ;  uncertainty k = 0.208187
        11        12        13        39     9      180.000000        8.826761         2    ;  uncertainty k = 0.512391
        11        12        13        39     9        0.000000        1.364385         3    ;  uncertainty k = 0.219987
        11        12        13        39     9      180.000000        1.899722         4    ;  uncertainty k = 0.318557
        11        14        26        27     9        0.000000       -0.122218         1    ;  uncertainty k = 0.639851
        11        14        26        27     9      180.000000       12.365351         2    ;  uncertainty k = 0.224145
        11        14        26        27     9        0.000000       -0.880500         3    ;  uncertainty k = 0.486617
        11        14        26        27     9      180.000000        0.802295         4    ;  uncertainty k = 0.197582
        11        14        26        30     9        0.000000        0.202282         1    ;  uncertainty k = 0.267833
        11        14        26        30     9      180.000000       10.749250         2    ;  uncertainty k = 0.546068
        11        14        26        30     9        0.000000        1.052615         3    ;  uncertainty k = 0.243488
        11        14        26        30     9      180.000000        1.266073         4    ;  uncertainty k = 0.280406
        12        11        14        26     9        0.000000       -0.003504         1    ;  uncertainty k = 0.253269
        12        11        14        26     9      180.000000       13.154778         2    ;  uncertainty k = 0.233224
        12        11        14        26     9        0.000000       -0.009025         3    ;  uncertainty k = 0.458120
        12        11        14        26     9      180.000000        0.906256         4    ;  uncertainty k = 0.319708
        12        11        14        40     9        0.000000        0.290767         1    ;  uncertainty k = 0.253497
        12        11        14        40     9      180.000000        7.824480         2    ;  uncertainty k = 0.578303
        12        11        14        40     9        0.000000        1.461245         3    ;  uncertainty k = 0.186722
        12        11        14        40     9      180.000000        1.618244         4    ;  uncertainty k = 0.231459
        12        13        27        26     9        0.000000        0.001957         1    ;  uncertainty k = 0.166318
        12        13        27        26     9      180.000000       13.253380         2    ;  uncertainty k = 0.193581
        12        13        27        26     9        0.000000       -1.644283         3    ;  uncertainty k = 0.403771
        12        13        27        26     9      180.000000        0.685502         4    ;  uncertainty k = 0.250820
        12        13        27        28     9        0.000000        0.212460         1    ;  uncertainty k = 0.162350
        12        13        27        28     9      180.000000        8.899132         2    ;  uncertainty k = 0.397238
        12        13        27        28     9        0.000000        0.625242         3    ;  uncertainty k = 0.259952
        12        13        27        28     9      180.000000        1.230019         4    ;  uncertainty k = 0.144151
        13        12        11        14     9        0.000000       -0.246580         1    ;  uncertainty k = 0.174800
        13        12        11        14     9      180.000000       10.102723         2    ;  uncertainty k = 0.219811
        13        12        11        14     9        0.000000       -0.332366         3    ;  uncertainty k = 0.513035
        13        12        11        14     9      180.000000        0.987321         4    ;  uncertainty k = 0.277188
        13        27        26        14     9        0.000000       -0.595480         1    ;  uncertainty k = 0.975955
        13        27        26        14     9      180.000000        7.703575         2    ;  uncertainty k = 0.850326
        13        27        26        14     9        0.000000        0.220179         3    ;  uncertainty k = 0.222940
        13        27        26        14     9      180.000000        0.911642         4    ;  uncertainty k = 0.367716
        13        27        26        30     9        0.000000        0.069281         1    ;  uncertainty k = 0.403783
        13        27        26        30     9      180.000000        8.075845         2    ;  uncertainty k = 0.360577
        13        27        26        30     9        0.000000       -0.081233         3    ;  uncertainty k = 0.261767
        13        27        26        30     9      180.000000        1.282269         4    ;  uncertainty k = 0.254352
        13        27        28        29     9        0.000000        0.529288         1    ;  uncertainty k = 0.721420
        13        27        28        29     9      180.000000        6.545876         2    ;  uncertainty k = 0.806788
        13        27        28        29     9        0.000000        0.346101         3    ;  uncertainty k = 0.388409
        13        27        28        29     9      180.000000        0.975958         4    ;  uncertainty k = 0.209028
        13        27        28        48     9        0.000000        0.613078         1    ;  uncertainty k = 0.844593
        13        27        28        48     9      180.000000        3.915024         2    ;  uncertainty k = 0.755761
        13        27        28        48     9        0.000000        1.354505         3    ;  uncertainty k = 0.434548
        13        27        28        48     9      180.000000        0.110385         4    ;  uncertainty k = 0.130312
        14        11        12        38     9        0.000000        0.151275         1    ;  uncertainty k = 0.133465
        14        11        12        38     9      180.000000        6.611431         2    ;  uncertainty k = 0.541718
        14        11        12        38     9        0.000000        1.376601         3    ;  uncertainty k = 0.156787
        14        11        12        38     9      180.000000        1.592832         4    ;  uncertainty k = 0.219869
        14        26        27        28     9        0.000000        0.097447         1    ;  uncertainty k = 0.577193
        14        26        27        28     9      180.000000        7.542904         2    ;  uncertainty k = 0.328218
        14        26        27        28     9        0.000000        0.383433         3    ;  uncertainty k = 0.371907
        14        26        27        28     9      180.000000        1.192907         4    ;  uncertainty k = 0.238441
        14        26        30        29     9        0.000000        1.019468         1    ;  uncertainty k = 0.490157
        14        26        30        29     9      180.000000        6.225871         2    ;  uncertainty k = 0.683729
        14        26        30        29     9        0.000000        0.805449         3    ;  uncertainty k = 0.215517
        14        26        30        29     9      180.000000        0.293032         4    ;  uncertainty k = 0.153178
        14        26        30        31     9        0.000000        0.320220         1    ;  uncertainty k = 1.271455
        14        26        30        31     9      180.000000        2.933972         2    ;  uncertainty k = 0.699544
        14        26        30        31     9        0.000000        0.954289         3    ;  uncertainty k = 0.389287
        14        26        30        31     9      180.000000        0.073682         4    ;  uncertainty k = 0.118670
        15         3         2        34     9        0.000000       -0.570256         1    ;  uncertainty k = 0.225437
        15         3         2        34     9      180.000000        8.036469         2    ;  uncertainty k = 0.539841
        15         3         2        34     9        0.000000        0.826404         3    ;  uncertainty k = 0.259178
        15         3         2        34     9      180.000000        1.188346         4    ;  uncertainty k = 0.226655
        15         3         4        35     9        0.000000       -0.444465         1    ;  uncertainty k = 0.331198
        15         3         4        35     9      180.000000        6.982226         2    ;  uncertainty k = 0.396117
        15         3         4        35     9        0.000000        0.801490         3    ;  uncertainty k = 0.230308
        15         3         4        35     9      180.000000        1.180032         4    ;  uncertainty k = 0.128391
        15        16        17        18     9        0.000000        0.284522         1    ;  uncertainty k = 0.937481
        15        16        17        18     9      180.000000        8.701419         2    ;  uncertainty k = 0.854399
        15        16        17        18     9        0.000000        0.836725         3    ;  uncertainty k = 0.185927
        15        16        17        18     9      180.000000        1.496108         4    ;  uncertainty k = 0.299674
        15        16        17        42     9        0.000000        0.007094         1    ;  uncertainty k = 0.499751
        15        16        17        42     9      180.000000        5.972506         2    ;  uncertainty k = 0.983101
        15        16        17        42     9        0.000000        0.942185         3    ;  uncertainty k = 0.273146
        15        16        17        42     9      180.000000        1.158933         4    ;  uncertainty k = 0.246634
        15        16        21        20     9        0.000000       -0.020825         1    ;  uncertainty k = 0.416437
        15        16        21        20     9      180.000000        7.821352         2    ;  uncertainty k = 0.442940
        15        16        21        20     9        0.000000        1.029527         3    ;  uncertainty k = 0.210995
        15        16        21        20     9      180.000000        1.524188         4    ;  uncertainty k = 0.257372
        15        16        21        22     9        0.000000       -0.506013         1    ;  uncertainty k = 0.475729
        15        16        21        22     9      180.000000        7.636455         2    ;  uncertainty k = 0.878998
        15        16        21        22     9        0.000000        1.159105         3    ;  uncertainty k = 0.332203
        15        16        21        22     9      180.000000        1.400877         4    ;  uncertainty k = 0.254665
        16        17        18        19     9        0.000000        0.036596         1    ;  uncertainty k = 0.371494
        16        17        18        19     9      180.000000       16.597051         2    ;  uncertainty k = 0.304805
        16        17        18        19     9        0.000000        0.966622         3    ;  uncertainty k = 0.517836
        16        17        18        19     9      180.000000        1.451098         4    ;  uncertainty k = 0.177715
        16        21        20        19     9        0.000000       -0.265670         1    ;  uncertainty k = 0.419232
        16        21        20        19     9      180.000000       10.460451         2    ;  uncertainty k = 0.389563
        16        21        20        19     9        0.000000       -0.366509         3    ;  uncertainty k = 0.514479
        16        21        20        19     9      180.000000        0.929899         4    ;  uncertainty k = 0.330295
        16        21        20        44     9        0.000000        0.238370         1    ;  uncertainty k = 0.382236
        16        21        20        44     9      180.000000        7.525225         2    ;  uncertainty k = 0.903253
        16        21        20        44     9        0.000000        1.267263         3    ;  uncertainty k = 0.290614
        16        21        20        44     9      180.000000        1.474858         4    ;  uncertainty k = 0.123421
        16        21        22        23     9        0.000000       -5.228555         1    ;  uncertainty k = 2.158654
        16        21        22        23     9      180.000000       -0.861345         2    ;  uncertainty k = 0.805163
        16        21        22        23     9        0.000000        1.201042         3    ;  uncertainty k = 0.425532
        16        21        22        23     9      180.000000       -0.042324         4    ;  uncertainty k = 0.375368
        16        21        22        24     9        0.000000       -5.228555         1    ;  uncertainty k = 2.158654
        16        21        22        24     9      180.000000       -0.861345         2    ;  uncertainty k = 0.805163
        16        21        22        24     9        0.000000        1.201042         3    ;  uncertainty k = 0.425532
        16        21        22        24     9      180.000000       -0.042324         4    ;  uncertainty k = 0.375368
        16        21        22        25     9        0.000000        0.262420         1    ;  uncertainty k = 1.833669
        16        21        22        25     9      180.000000       -1.026927         2    ;  uncertainty k = 0.798423
        16        21        22        25     9        0.000000        0.956203         3    ;  uncertainty k = 0.348086
        16        21        22        25     9      180.000000        0.178350         4    ;  uncertainty k = 0.195567
        17        16        15        41     9        0.000000        0.917546         1    ;  uncertainty k = 1.463601
        17        16        15        41     9      180.000000        4.182459         2    ;  uncertainty k = 0.765145
        17        16        15        41     9        0.000000       -0.106076         3    ;  uncertainty k = 0.498484
        17        16        15        41     9      180.000000       -0.220151         4    ;  uncertainty k = 0.253379
        17        16        21        20     9        0.000000       -0.438834         1    ;  uncertainty k = 0.840319
        17        16        21        20     9      180.000000        4.610450         2    ;  uncertainty k = 1.641699
        17        16        21        20     9        0.000000        0.358135         3    ;  uncertainty k = 0.323563
        17        16        21        20     9      180.000000        1.351096         4    ;  uncertainty k = 0.315698
        17        16        21        22     9        0.000000        0.917642         1    ;  uncertainty k = 0.634888
        17        16        21        22     9      180.000000        4.793053         2    ;  uncertainty k = 1.087368
        17        16        21        22     9        0.000000        1.108846         3    ;  uncertainty k = 0.290817
        17        16        21        22     9      180.000000        1.561541         4    ;  uncertainty k = 0.342192
        17        18        19        20     9        0.000000       -0.485016         1    ;  uncertainty k = 0.425215
        17        18        19        20     9      180.000000       15.189731         2    ;  uncertainty k = 0.461239
        17        18        19        20     9        0.000000        1.127628         3    ;  uncertainty k = 0.661679
        17        18        19        20     9      180.000000        1.285431         4    ;  uncertainty k = 0.097277
        17        18        19        43     9        0.000000        0.172532         1    ;  uncertainty k = 0.566096
        17        18        19        43     9      180.000000       15.445790         2    ;  uncertainty k = 0.425751
        17        18        19        43     9        0.000000        2.152702         3    ;  uncertainty k = 0.508048
        17        18        19        43     9      180.000000        1.381411         4    ;  uncertainty k = 0.359273
        18        17        16        21     9        0.000000       -0.562844         1    ;  uncertainty k = 0.540738
        18        17        16        21     9      180.000000        6.748516         2    ;  uncertainty k = 1.268444
        18        17        16        21     9        0.000000        0.077078         3    ;  uncertainty k = 0.370451
        18        17        16        21     9      180.000000        1.216829         4    ;  uncertainty k = 0.295894
        18        19        20        21     9        0.000000       -0.252470         1    ;  uncertainty k = 0.431541
        18        19        20        21     9      180.000000       13.556324         2    ;  uncertainty k = 0.574918
        18        19        20        21     9        0.000000       -1.106331         3    ;  uncertainty k = 1.113055
        18        19        20        21     9      180.000000        0.952273         4    ;  uncertainty k = 0.151718
        18        19        20        44     9        0.000000       -0.068096         1    ;  uncertainty k = 0.262319
        18        19        20        44     9      180.000000        9.165641         2    ;  uncertainty k = 0.726880
        18        19        20        44     9        0.000000        0.979809         3    ;  uncertainty k = 0.350348
        18        19        20        44     9      180.000000        1.652653         4    ;  uncertainty k = 0.185846
        19        18        17        42     9        0.000000        0.508068         1    ;  uncertainty k = 0.686765
        19        18        17        42     9      180.000000       16.706316         2    ;  uncertainty k = 0.583289
        19        18        17        42     9        0.000000        2.361242         3    ;  uncertainty k = 0.235965
        19        18        17        42     9      180.000000        1.517602         4    ;  uncertainty k = 0.508262
        19        20        21        22     9        0.000000        0.601785         1    ;  uncertainty k = 0.840722
        19        20        21        22     9      180.000000        9.254868         2    ;  uncertainty k = 0.664789
        19        20        21        22     9        0.000000        1.560649         3    ;  uncertainty k = 0.502422
        19        20        21        22     9      180.000000        1.838812         4    ;  uncertainty k = 0.146620
        20        21        22        23     9        0.000000       -0.492326         1    ;  uncertainty k = 1.108210
        20        21        22        23     9      180.000000        0.135604         2    ;  uncertainty k = 0.455039
        20        21        22        23     9        0.000000        0.177824         3    ;  uncertainty k = 0.237275
        20        21        22        23     9      180.000000        0.012962         4    ;  uncertainty k = 0.209193
        20        21        22        24     9        0.000000       -0.492326         1    ;  uncertainty k = 1.108210
        20        21        22        24     9      180.000000        0.135604         2    ;  uncertainty k = 0.455039
        20        21        22        24     9        0.000000        0.177824         3    ;  uncertainty k = 0.237275
        20        21        22        24     9      180.000000        0.012962         4    ;  uncertainty k = 0.209193
        20        21        22        25     9        0.000000        3.406873         1    ;  uncertainty k = 1.708513
        20        21        22        25     9      180.000000        0.171419         2    ;  uncertainty k = 0.576992
        20        21        22        25     9        0.000000       -0.078308         3    ;  uncertainty k = 0.399032
        20        21        22        25     9      180.000000        0.444416         4    ;  uncertainty k = 0.155672
        21        16        15        41     9        0.000000        9.262104         1    ;  uncertainty k = 0.773179
        21        16        15        41     9      180.000000        3.945831         2    ;  uncertainty k = 0.536445
        21        16        15        41     9        0.000000        0.752572         3    ;  uncertainty k = 0.273739
        21        16        15        41     9      180.000000       -0.119638         4    ;  uncertainty k = 0.176171
        21        16        17        42     9        0.000000        0.000816         1    ;  uncertainty k = 1.384590
        21        16        17        42     9      180.000000        4.685090         2    ;  uncertainty k = 1.110640
        21        16        17        42     9        0.000000        1.104677         3    ;  uncertainty k = 0.238510
        21        16        17        42     9      180.000000        1.089443         4    ;  uncertainty k = 0.205054
        21        20        19        43     9        0.000000       -0.148525         1    ;  uncertainty k = 0.589763
        21        20        19        43     9      180.000000        6.244193         2    ;  uncertainty k = 0.249576
        21        20        19        43     9        0.000000        1.014104         3    ;  uncertainty k = 0.237437
        21        20        19        43     9      180.000000        1.497615         4    ;  uncertainty k = 0.181166
        21        22        25        45     9        0.000000        2.345205         1    ;  uncertainty k = 0.643496
        21        22        25        45     9      180.000000       -2.433989         2    ;  uncertainty k = 0.375725
        21        22        25        45     9        0.000000        0.170343         3    ;  uncertainty k = 0.101207
        21        22        25        45     9      180.000000        0.001304         4    ;  uncertainty k = 0.149207
        21        22        25        46     9        0.000000        2.345205         1    ;  uncertainty k = 0.643496
        21        22        25        46     9      180.000000       -2.433989         2    ;  uncertainty k = 0.375725
        21        22        25        46     9        0.000000        0.170343         3    ;  uncertainty k = 0.101207
        21        22        25        46     9      180.000000        0.001304         4    ;  uncertainty k = 0.149207
        21        22        25        47     9        0.000000        2.345205         1    ;  uncertainty k = 0.643496
        21        22        25        47     9      180.000000       -2.433989         2    ;  uncertainty k = 0.375725
        21        22        25        47     9        0.000000        0.170343         3    ;  uncertainty k = 0.101207
        21        22        25        47     9      180.000000        0.001304         4    ;  uncertainty k = 0.149207
        22        21        20        44     9        0.000000       -0.424035         1    ;  uncertainty k = 0.616074
        22        21        20        44     9      180.000000        7.010378         2    ;  uncertainty k = 0.550571
        22        21        20        44     9        0.000000        0.781435         3    ;  uncertainty k = 0.169299
        22        21        20        44     9      180.000000        1.269235         4    ;  uncertainty k = 0.186787
        23        22        25        45     9        0.000000       -0.057641         1    ;  uncertainty k = 0.603702
        23        22        25        45     9      180.000000       -0.366450         2    ;  uncertainty k = 0.288159
        23        22        25        45     9        0.000000        0.801561         3    ;  uncertainty k = 0.057212
        23        22        25        45     9      180.000000        0.039211         4    ;  uncertainty k = 0.101280
        23        22        25        46     9        0.000000       -0.057641         1    ;  uncertainty k = 0.603702
        23        22        25        46     9      180.000000       -0.366450         2    ;  uncertainty k = 0.288159
        23        22        25        46     9        0.000000        0.801561         3    ;  uncertainty k = 0.057212
        23        22        25        46     9      180.000000        0.039211         4    ;  uncertainty k = 0.101280
        23        22        25        47     9        0.000000       -0.057641         1    ;  uncertainty k = 0.603702
        23        22        25        47     9      180.000000       -0.366450         2    ;  uncertainty k = 0.288159
        23        22        25        47     9        0.000000        0.801561         3    ;  uncertainty k = 0.057212
        23        22        25        47     9      180.000000        0.039211         4    ;  uncertainty k = 0.101280
        24        22        25        45     9        0.000000       -0.057641         1    ;  uncertainty k = 0.603702
        24        22        25        45     9      180.000000       -0.366450         2    ;  uncertainty k = 0.288159
        24        22        25        45     9        0.000000        0.801561         3    ;  uncertainty k = 0.057212
        24        22        25        45     9      180.000000        0.039211         4    ;  uncertainty k = 0.101280
        24        22        25        46     9        0.000000       -0.057641         1    ;  uncertainty k = 0.603702
        24        22        25        46     9      180.000000       -0.366450         2    ;  uncertainty k = 0.288159
        24        22        25        46     9        0.000000        0.801561         3    ;  uncertainty k = 0.057212
        24        22        25        46     9      180.000000        0.039211         4    ;  uncertainty k = 0.101280
        24        22        25        47     9        0.000000       -0.057641         1    ;  uncertainty k = 0.603702
        24        22        25        47     9      180.000000       -0.366450         2    ;  uncertainty k = 0.288159
        24        22        25        47     9        0.000000        0.801561         3    ;  uncertainty k = 0.057212
        24        22        25        47     9      180.000000        0.039211         4    ;  uncertainty k = 0.101280
        26        27        13        39     9        0.000000        0.185554         1    ;  uncertainty k = 0.290057
        26        27        13        39     9      180.000000        7.291208         2    ;  uncertainty k = 0.852403
        26        27        13        39     9        0.000000        1.360393         3    ;  uncertainty k = 0.350011
        26        27        13        39     9      180.000000        1.114643         4    ;  uncertainty k = 0.424942
        26        27        28        29     9        0.000000        0.438305         1    ;  uncertainty k = 0.744582
        26        27        28        29     9      180.000000       13.020028         2    ;  uncertainty k = 0.795049
        26        27        28        29     9        0.000000      -10.928380         3    ;  uncertainty k = 2.388973
        26        27        28        29     9      180.000000        1.851051         4    ;  uncertainty k = 0.637889
        26        27        28        48     9        0.000000        0.138209         1    ;  uncertainty k = 0.559266
        26        27        28        48     9      180.000000        7.861814         2    ;  uncertainty k = 0.564500
        26        27        28        48     9        0.000000        1.306300         3    ;  uncertainty k = 0.555823
        26        27        28        48     9      180.000000        0.334063         4    ;  uncertainty k = 0.195616
        26        30        29        28     9        0.000000       -0.261268         1    ;  uncertainty k = 0.492231
        26        30        29        28     9      180.000000       16.240420         2    ;  uncertainty k = 0.419188
        26        30        29        28     9        0.000000       -6.084619         3    ;  uncertainty k = 1.356137
        26        30        29        28     9      180.000000        0.805839         4    ;  uncertainty k = 0.377403
        26        30        29        49     9        0.000000        1.252687         1    ;  uncertainty k = 0.855826
        26        30        29        49     9      180.000000        7.245108         2    ;  uncertainty k = 0.848099
        26        30        29        49     9        0.000000        1.606979         3    ;  uncertainty k = 0.347830
        26        30        29        49     9      180.000000        0.197163         4    ;  uncertainty k = 0.140566
        26        30        31        32     9        0.000000       -0.120369         1    ;  uncertainty k = 0.280273
        26        30        31        32     9      180.000000       -0.689902         2    ;  uncertainty k = 0.535538
        26        30        31        32     9        0.000000        0.669865         3    ;  uncertainty k = 0.135000
        26        30        31        32     9      180.000000        0.218526         4    ;  uncertainty k = 0.093735
        26        30        31        50     9        0.000000       -0.338019         1    ;  uncertainty k = 0.272339
        26        30        31        50     9      180.000000       -0.518022         2    ;  uncertainty k = 0.323707
        26        30        31        50     9        0.000000        0.813312         3    ;  uncertainty k = 0.069428
        26        30        31        50     9      180.000000        0.177645         4    ;  uncertainty k = 0.057641
        26        30        31        51     9        0.000000       -0.338019         1    ;  uncertainty k = 0.272339
        26        30        31        51     9      180.000000       -0.518022         2    ;  uncertainty k = 0.323707
        26        30        31        51     9        0.000000        0.813312         3    ;  uncertainty k = 0.069428
        26        30        31        51     9      180.000000        0.177645         4    ;  uncertainty k = 0.057641
        27        13        12        38     9        0.000000       -0.019536         1    ;  uncertainty k = 0.281090
        27        13        12        38     9      180.000000       11.383071         2    ;  uncertainty k = 0.348080
        27        13        12        38     9        0.000000        1.439496         3    ;  uncertainty k = 0.290402
        27        13        12        38     9      180.000000        1.684523         4    ;  uncertainty k = 0.273898
        27        26        14        40     9        0.000000        0.109282         1    ;  uncertainty k = 0.437799
        27        26        14        40     9      180.000000        6.959872         2    ;  uncertainty k = 1.139309
        27        26        14        40     9        0.000000        1.331994         3    ;  uncertainty k = 0.162330
        27        26        14        40     9      180.000000        1.250141         4    ;  uncertainty k = 0.407187
        27        26        30        29     9        0.000000        0.116473         1    ;  uncertainty k = 0.741607
        27        26        30        29     9      180.000000       13.802810         2    ;  uncertainty k = 0.629863
        27        26        30        29     9        0.000000       -5.982800         3    ;  uncertainty k = 0.883012
        27        26        30        29     9      180.000000        0.955542         4    ;  uncertainty k = 0.431423
        27        26        30        31     9        0.000000        2.314071         1    ;  uncertainty k = 0.620367
        27        26        30        31     9      180.000000        5.403983         2    ;  uncertainty k = 0.340488
        27        26        30        31     9        0.000000        1.612716         3    ;  uncertainty k = 0.269181
        27        26        30        31     9      180.000000        0.102618         4    ;  uncertainty k = 0.173854
        27        28        29        30     9        0.000000       -0.155224         1    ;  uncertainty k = 0.338717
        27        28        29        30     9      180.000000       22.354196         2    ;  uncertainty k = 0.259753
        27        28        29        30     9        0.000000       -6.233675         3    ;  uncertainty k = 0.448829
        27        28        29        30     9      180.000000        1.341770         4    ;  uncertainty k = 0.489573
        27        28        29        49     9        0.000000        0.008147         1    ;  uncertainty k = 0.441947
        27        28        29        49     9      180.000000       12.702522         2    ;  uncertainty k = 0.126800
        27        28        29        49     9        0.000000        1.815992         3    ;  uncertainty k = 0.153889
        27        28        29        49     9      180.000000        0.982635         4    ;  uncertainty k = 0.210803
        28        27        13        39     9        0.000000        0.093795         1    ;  uncertainty k = 0.494664
        28        27        13        39     9      180.000000        5.652726         2    ;  uncertainty k = 0.515930
        28        27        13        39     9        0.000000        1.026857         3    ;  uncertainty k = 0.303047
        28        27        13        39     9      180.000000        0.694658         4    ;  uncertainty k = 0.345046
        28        27        26        30     9        0.000000       -0.299639         1    ;  uncertainty k = 0.187796
        28        27        26        30     9      180.000000       12.800970         2    ;  uncertainty k = 0.656367
        28        27        26        30     9        0.000000       -3.458370         3    ;  uncertainty k = 1.056944
        28        27        26        30     9      180.000000        1.518535         4    ;  uncertainty k = 0.692489
        28        29        30        31     9        0.000000        1.595948         1    ;  uncertainty k = 0.856686
        28        29        30        31     9      180.000000        8.831285         2    ;  uncertainty k = 0.356079
        28        29        30        31     9        0.000000        1.762453         3    ;  uncertainty k = 0.445503
        28        29        30        31     9      180.000000       -0.022543         4    ;  uncertainty k = 0.176750
        29        30        31        32     9        0.000000        0.698534         1    ;  uncertainty k = 0.537353
        29        30        31        32     9      180.000000       -0.787018         2    ;  uncertainty k = 0.340413
        29        30        31        32     9        0.000000        0.623987         3    ;  uncertainty k = 0.122273
        29        30        31        32     9      180.000000        0.200879         4    ;  uncertainty k = 0.037016
        29        30        31        50     9        0.000000       -0.576638         1    ;  uncertainty k = 0.235427
        29        30        31        50     9      180.000000       -0.371356         2    ;  uncertainty k = 0.222406
        29        30        31        50     9        0.000000        0.482280         3    ;  uncertainty k = 0.076233
        29        30        31        50     9      180.000000        0.080872         4    ;  uncertainty k = 0.058179
        29        30        31        51     9        0.000000       -0.576638         1    ;  uncertainty k = 0.235427
        29        30        31        51     9      180.000000       -0.371356         2    ;  uncertainty k = 0.222406
        29        30        31        51     9        0.000000        0.482280         3    ;  uncertainty k = 0.076233
        29        30        31        51     9      180.000000        0.080872         4    ;  uncertainty k = 0.058179
        30        26        14        40     9        0.000000        0.258586         1    ;  uncertainty k = 0.501043
        30        26        14        40     9      180.000000        5.972221         2    ;  uncertainty k = 0.604271
        30        26        14        40     9        0.000000        1.217195         3    ;  uncertainty k = 0.300414
        30        26        14        40     9      180.000000        0.876701         4    ;  uncertainty k = 0.420894
        30        29        28        48     9        0.000000        0.288439         1    ;  uncertainty k = 0.724502
        30        29        28        48     9      180.000000       14.530242         2    ;  uncertainty k = 0.511130
        30        29        28        48     9        0.000000        1.714691         3    ;  uncertainty k = 0.674504
        30        29        28        48     9      180.000000        0.982571         4    ;  uncertainty k = 0.373842
        30        31        32        33     9        0.000000       -4.256690         1    ;  uncertainty k = 1.282010
        30        31        32        33     9      180.000000        0.355442         2    ;  uncertainty k = 0.097544
        30        31        32        33     9        0.000000        1.778311         3    ;  uncertainty k = 0.195259
        30        31        32        33     9      180.000000       -0.369495         4    ;  uncertainty k = 0.220632
        30        31        32        52     9        0.000000        0.962958         1    ;  uncertainty k = 0.541853
        30        31        32        52     9      180.000000       -1.326375         2    ;  uncertainty k = 0.074536
        30        31        32        52     9        0.000000        1.285028         3    ;  uncertainty k = 0.084961
        30        31        32        52     9      180.000000       -0.024348         4    ;  uncertainty k = 0.091521
        30        31        32        53     9        0.000000        0.962958         1    ;  uncertainty k = 0.541853
        30        31        32        53     9      180.000000       -1.326375         2    ;  uncertainty k = 0.074536
        30        31        32        53     9        0.000000        1.285028         3    ;  uncertainty k = 0.084961
        30        31        32        53     9      180.000000       -0.024348         4    ;  uncertainty k = 0.091521
        31        30        29        49     9        0.000000       -0.249055         1    ;  uncertainty k = 0.640709
        31        30        29        49     9      180.000000        2.847592         2    ;  uncertainty k = 0.708974
        31        30        29        49     9        0.000000        1.145951         3    ;  uncertainty k = 0.363855
        31        30        29        49     9      180.000000        0.069103         4    ;  uncertainty k = 0.213259
        31        32        33        54     9        0.000000       -1.691443         1    ;  uncertainty k = 0.233321
        31        32        33        54     9      180.000000       -1.136641         2    ;  uncertainty k = 0.339950
        31        32        33        54     9        0.000000        1.330930         3    ;  uncertainty k = 0.104816
        31        32        33        54     9      180.000000       -0.334045         4    ;  uncertainty k = 0.047623
        31        32        33        55     9        0.000000       -1.691443         1    ;  uncertainty k = 0.233321
        31        32        33        55     9      180.000000       -1.136641         2    ;  uncertainty k = 0.339950
        31        32        33        55     9        0.000000        1.330930         3    ;  uncertainty k = 0.104816
        31        32        33        55     9      180.000000       -0.334045         4    ;  uncertainty k = 0.047623
        31        32        33        56     9        0.000000       -1.691443         1    ;  uncertainty k = 0.233321
        31        32        33        56     9      180.000000       -1.136641         2    ;  uncertainty k = 0.339950
        31        32        33        56     9        0.000000        1.330930         3    ;  uncertainty k = 0.104816
        31        32        33        56     9      180.000000       -0.334045         4    ;  uncertainty k = 0.047623
        33        32        31        50     9        0.000000       -2.419653         1    ;  uncertainty k = 0.690768
        33        32        31        50     9      180.000000        0.258826         2    ;  uncertainty k = 0.129669
        33        32        31        50     9        0.000000        0.937296         3    ;  uncertainty k = 0.073233
        33        32        31        50     9      180.000000       -0.330474         4    ;  uncertainty k = 0.083193
        33        32        31        51     9        0.000000       -2.419653         1    ;  uncertainty k = 0.690768
        33        32        31        51     9      180.000000        0.258826         2    ;  uncertainty k = 0.129669
        33        32        31        51     9        0.000000        0.937296         3    ;  uncertainty k = 0.073233
        33        32        31        51     9      180.000000       -0.330474         4    ;  uncertainty k = 0.083193
        36         8         9        37     9        0.000000       -0.152652         1    ;  uncertainty k = 0.805688
        36         8         9        37     9      180.000000        5.398109         2    ;  uncertainty k = 0.723628
        36         8         9        37     9        0.000000        0.147471         3    ;  uncertainty k = 0.248173
        36         8         9        37     9      180.000000        0.216442         4    ;  uncertainty k = 0.153410
        38        12        13        39     9        0.000000       -0.116208         1    ;  uncertainty k = 0.085773
        38        12        13        39     9      180.000000        7.987768         2    ;  uncertainty k = 0.371552
        38        12        13        39     9        0.000000       -0.214199         3    ;  uncertainty k = 0.235185
        38        12        13        39     9      180.000000        0.260529         4    ;  uncertainty k = 0.235509
        43        19        20        44     9        0.000000       -0.307962         1    ;  uncertainty k = 0.440104
        43        19        20        44     9      180.000000        6.502709         2    ;  uncertainty k = 0.379417
        43        19        20        44     9        0.000000       -0.130867         3    ;  uncertainty k = 0.246878
        43        19        20        44     9      180.000000        0.283979         4    ;  uncertainty k = 0.141773
        48        28        29        49     9        0.000000       -0.053386         1    ;  uncertainty k = 0.463483
        48        28        29        49     9      180.000000        6.022853         2    ;  uncertainty k = 0.756534
        48        28        29        49     9        0.000000        1.138437         3    ;  uncertainty k = 0.457787
        48        28        29        49     9      180.000000        0.343970         4    ;  uncertainty k = 0.142146
        50        31        32        52     9        0.000000        0.669940         1    ;  uncertainty k = 0.211778
        50        31        32        52     9      180.000000       -0.454618         2    ;  uncertainty k = 0.125080
        50        31        32        52     9        0.000000        0.174003         3    ;  uncertainty k = 0.067266
        50        31        32        52     9      180.000000       -0.009579         4    ;  uncertainty k = 0.055074
        50        31        32        53     9        0.000000        0.669940         1    ;  uncertainty k = 0.211778
        50        31        32        53     9      180.000000       -0.454618         2    ;  uncertainty k = 0.125080
        50        31        32        53     9        0.000000        0.174003         3    ;  uncertainty k = 0.067266
        50        31        32        53     9      180.000000       -0.009579         4    ;  uncertainty k = 0.055074
        51        31        32        52     9        0.000000        0.669940         1    ;  uncertainty k = 0.211778
        51        31        32        52     9      180.000000       -0.454618         2    ;  uncertainty k = 0.125080
        51        31        32        52     9        0.000000        0.174003         3    ;  uncertainty k = 0.067266
        51        31        32        52     9      180.000000       -0.009579         4    ;  uncertainty k = 0.055074
        51        31        32        53     9        0.000000        0.669940         1    ;  uncertainty k = 0.211778
        51        31        32        53     9      180.000000       -0.454618         2    ;  uncertainty k = 0.125080
        51        31        32        53     9        0.000000        0.174003         3    ;  uncertainty k = 0.067266
        51        31        32        53     9      180.000000       -0.009579         4    ;  uncertainty k = 0.055074
        52        32        33        54     9        0.000000        0.818590         1    ;  uncertainty k = 0.335864
        52        32        33        54     9      180.000000       -0.643055         2    ;  uncertainty k = 0.186957
        52        32        33        54     9        0.000000        0.583566         3    ;  uncertainty k = 0.018384
        52        32        33        54     9      180.000000       -0.033325         4    ;  uncertainty k = 0.046556
        52        32        33        55     9        0.000000        0.818590         1    ;  uncertainty k = 0.335864
        52        32        33        55     9      180.000000       -0.643055         2    ;  uncertainty k = 0.186957
        52        32        33        55     9        0.000000        0.583566         3    ;  uncertainty k = 0.018384
        52        32        33        55     9      180.000000       -0.033325         4    ;  uncertainty k = 0.046556
        52        32        33        56     9        0.000000        0.818590         1    ;  uncertainty k = 0.335864
        52        32        33        56     9      180.000000       -0.643055         2    ;  uncertainty k = 0.186957
        52        32        33        56     9        0.000000        0.583566         3    ;  uncertainty k = 0.018384
        52        32        33        56     9      180.000000       -0.033325         4    ;  uncertainty k = 0.046556
        53        32        33        54     9        0.000000        0.818590         1    ;  uncertainty k = 0.335864
        53        32        33        54     9      180.000000       -0.643055         2    ;  uncertainty k = 0.186957
        53        32        33        54     9        0.000000        0.583566         3    ;  uncertainty k = 0.018384
        53        32        33        54     9      180.000000       -0.033325         4    ;  uncertainty k = 0.046556
        53        32        33        55     9        0.000000        0.818590         1    ;  uncertainty k = 0.335864
        53        32        33        55     9      180.000000       -0.643055         2    ;  uncertainty k = 0.186957
        53        32        33        55     9        0.000000        0.583566         3    ;  uncertainty k = 0.018384
        53        32        33        55     9      180.000000       -0.033325         4    ;  uncertainty k = 0.046556
        53        32        33        56     9        0.000000        0.818590         1    ;  uncertainty k = 0.335864
        53        32        33        56     9      180.000000       -0.643055         2    ;  uncertainty k = 0.186957
        53        32        33        56     9        0.000000        0.583566         3    ;  uncertainty k = 0.018384
        53        32        33        56     9      180.000000       -0.033325         4    ;  uncertainty k = 0.046556

[ dihedrals ] ; impropers
;       ai        aj        ak        al funct           phase               k        pn
         1         4         6        11     4      180.000000       17.976629         2    ;  uncertainty k = 0.099558
         1         6        11         4     4      180.000000       17.976629         2    ;  uncertainty k = 0.099558
         1        11         4         6     4      180.000000       17.976629         2    ;  uncertainty k = 0.099558
         2         3         5        34     4      180.000000        2.538906         2    ;  uncertainty k = 0.373105
         2         5        34         3     4      180.000000        2.538906         2    ;  uncertainty k = 0.373105
         2        34         3         5     4      180.000000        2.538906         2    ;  uncertainty k = 0.373105
         3         2         4        15     4      180.000000       20.686970         2    ;  uncertainty k = 0.060627
         3         4        15         2     4      180.000000       20.686970         2    ;  uncertainty k = 0.060627
         3        15         2         4     4      180.000000       20.686970         2    ;  uncertainty k = 0.060627
         4         1         3        35     4      180.000000        3.072335         2    ;  uncertainty k = 0.374208
         4         3        35         1     4      180.000000        3.072335         2    ;  uncertainty k = 0.374208
         4        35         1         3     4      180.000000        3.072335         2    ;  uncertainty k = 0.374208
         5         2         6        10     4      180.000000       18.442492         2    ;  uncertainty k = 0.055238
         5         6        10         2     4      180.000000       18.442492         2    ;  uncertainty k = 0.055238
         5        10         2         6     4      180.000000       18.442492         2    ;  uncertainty k = 0.055238
         6         1         5         7     4      180.000000       16.619254         2    ;  uncertainty k = 0.086962
         6         5         7         1     4      180.000000       16.619254         2    ;  uncertainty k = 0.086962
         6         7         1         5     4      180.000000       16.619254         2    ;  uncertainty k = 0.086962
         8         7         9        36     4      180.000000       12.058352         2    ;  uncertainty k = 0.155869
         8         9        36         7     4      180.000000       12.058352         2    ;  uncertainty k = 0.155869
         8        36         7         9     4      180.000000       12.058352         2    ;  uncertainty k = 0.155869
         9         8        10        37     4      180.000000       11.948848         2    ;  uncertainty k = 0.101429
         9        10        37         8     4      180.000000       11.948848         2    ;  uncertainty k = 0.101429
         9        37         8        10     4      180.000000       11.948848         2    ;  uncertainty k = 0.101429
        11         1        12        14     4      180.000000       12.777410         2    ;  uncertainty k = 0.173274
        11        12        14         1     4      180.000000       12.777410         2    ;  uncertainty k = 0.173274
        11        14         1        12     4      180.000000       12.777410         2    ;  uncertainty k = 0.173274
        12        11        13        38     4      180.000000        3.145470         2    ;  uncertainty k = 0.234153
        12        13        38        11     4      180.000000        3.145470         2    ;  uncertainty k = 0.234153
        12        38        11        13     4      180.000000        3.145470         2    ;  uncertainty k = 0.234153
        13        12        27        39     4      180.000000        4.122799         2    ;  uncertainty k = 0.188139
        13        27        39        12     4      180.000000        4.122799         2    ;  uncertainty k = 0.188139
        13        39        12        27     4      180.000000        4.122799         2    ;  uncertainty k = 0.188139
        14        11        26        40     4      180.000000        3.141025         2    ;  uncertainty k = 0.425291
        14        26        40        11     4      180.000000        3.141025         2    ;  uncertainty k = 0.425291
        14        40        11        26     4      180.000000        3.141025         2    ;  uncertainty k = 0.425291
        15         3        16        41     4      180.000000        1.379952         2    ;  uncertainty k = 1.192013
        15        16        41         3     4      180.000000        1.379952         2    ;  uncertainty k = 1.192013
        15        41         3        16     4      180.000000        1.379952         2    ;  uncertainty k = 1.192013
        16        15        17        21     4      180.000000       22.010771         2    ;  uncertainty k = 0.077536
        16        17        21        15     4      180.000000       22.010771         2    ;  uncertainty k = 0.077536
        16        21        15        17     4      180.000000       22.010771         2    ;  uncertainty k = 0.077536
        17        16        18        42     4      180.000000       10.900441         2    ;  uncertainty k = 0.192114
        17        18        42        16     4      180.000000       10.900441         2    ;  uncertainty k = 0.192114
        17        42        16        18     4      180.000000       10.900441         2    ;  uncertainty k = 0.192114
        19        18        20        43     4      180.000000       11.385376         2    ;  uncertainty k = 0.107036
        19        20        43        18     4      180.000000       11.385376         2    ;  uncertainty k = 0.107036
        19        43        18        20     4      180.000000       11.385376         2    ;  uncertainty k = 0.107036
        20        19        21        44     4      180.000000        4.322237         2    ;  uncertainty k = 0.262312
        20        21        44        19     4      180.000000        4.322237         2    ;  uncertainty k = 0.262312
        20        44        19        21     4      180.000000        4.322237         2    ;  uncertainty k = 0.262312
        21        16        20        22     4      180.000000        5.945010         2    ;  uncertainty k = 0.459976
        21        20        22        16     4      180.000000        5.945010         2    ;  uncertainty k = 0.459976
        21        22        16        20     4      180.000000        5.945010         2    ;  uncertainty k = 0.459976
        26        14        27        30     4      180.000000        0.482220         2    ;  uncertainty k = 0.442522
        26        27        30        14     4      180.000000        0.482220         2    ;  uncertainty k = 0.442522
        26        30        14        27     4      180.000000        0.482220         2    ;  uncertainty k = 0.442522
        29        28        30        49     4      180.000000        0.886371         2    ;  uncertainty k = 0.365884
        29        30        49        28     4      180.000000        0.886371         2    ;  uncertainty k = 0.365884
        29        49        28        30     4      180.000000        0.886371         2    ;  uncertainty k = 0.365884

[ pairs ]
;       ai        aj funct
         1         2     1
         1         8     1
         1        10     1
         1        13     1
         1        15     1
         1        26     1
         1        38     1
         1        40     1
         2         7     1
         2         9     1
         2        16     1
         2        35     1
         2        41     1
         3         6     1
         3        10     1
         3        11     1
         3        17     1
         3        21     1
         4         5     1
         4         7     1
         4        12     1
         4        14     1
         4        16     1
         4        34     1
         4        41     1
         5         8     1
         5        11     1
         5        15     1
         5        37     1
         6         9     1
         6        12     1
         6        14     1
         6        34     1
         6        35     1
         6        36     1
         7        10     1
         7        11     1
         7        37     1
        10        34     1
        10        36     1
        11        27     1
        11        30     1
        11        35     1
        11        39     1
        12        26     1
        12        28     1
        12        40     1
        13        14     1
        13        29     1
        13        30     1
        13        48     1
        14        28     1
        14        29     1
        14        31     1
        14        38     1
        15        18     1
        15        20     1
        15        22     1
        15        34     1
        15        35     1
        15        42     1
        16        19     1
        16        23     1
        16        24     1
        16        25     1
        16        44     1
        17        20     1
        17        22     1
        17        41     1
        17        43     1
        18        21     1
        18        44     1
        19        22     1
        19        42     1
        20        23     1
        20        24     1
        20        25     1
        21        41     1
        21        42     1
        21        43     1
        21        45     1
        21        46     1
        21        47     1
        22        44     1
        23        45     1
        23        46     1
        23        47     1
        24        45     1
        24        46     1
        24        47     1
        26        32     1
        26        39     1
        26        48     1
        26        49     1
        26        50     1
        26        51     1
        27        31     1
        27        38     1
        27        40     1
        27        49     1
        28        31     1
        28        39     1
        29        32     1
        29        50     1
        29        51     1
        30        33     1
        30        40     1
        30        48     1
        30        52     1
        30        53     1
        31        49     1
        31        54     1
        31        55     1
        31        56     1
        33        50     1
        33        51     1
        36        37     1
        38        39     1
        43        44     1
        48        49     1
        50        52     1
        50        53     1
        51        52     1
        51        53     1
        52        54     1
        52        55     1
        52        56     1
        53        54     1
        53        55     1
        53        56     1
