; ITP file created by ByteFF-joint-25, 2026-02-17 09:29:08.260247

[ atomtypes ]
;name           bonded.type        at.num        mass        charge   ptype           sigma         epsilon
 c0bf                                   6      0.0000       0.00000       A     3.31538e-01     4.13732e-01    ;  uncertainty sigma = 0.000012, epsilon = 0.001772
 c1bf                                   6      0.0000       0.00000       A     3.31496e-01     4.13470e-01    ;  uncertainty sigma = 0.000006, epsilon = 0.000742
 c2bf                                   6      0.0000       0.00000       A     3.31487e-01     4.12635e-01    ;  uncertainty sigma = 0.000012, epsilon = 0.000881
 c3bf                                   6      0.0000       0.00000       A     3.31509e-01     4.13539e-01    ;  uncertainty sigma = 0.000009, epsilon = 0.000465
 c4bf                                   6      0.0000       0.00000       A     3.31516e-01     4.13470e-01    ;  uncertainty sigma = 0.000011, epsilon = 0.000986
 c5bf                                   6      0.0000       0.00000       A     3.31519e-01     4.13020e-01    ;  uncertainty sigma = 0.000010, epsilon = 0.001115
 n6bf                                   7      0.0000       0.00000       A     3.38415e-01     3.93854e-01    ;  uncertainty sigma = 0.000010, epsilon = 0.001066
 c7bf                                   6      0.0000       0.00000       A     3.31531e-01     4.13178e-01    ;  uncertainty sigma = 0.000013, epsilon = 0.000482
 c8bf                                   6      0.0000       0.00000       A     3.31530e-01     4.13238e-01    ;  uncertainty sigma = 0.000010, epsilon = 0.000599
 n9bf                                   7      0.0000       0.00000       A     3.38414e-01     3.93827e-01    ;  uncertainty sigma = 0.000003, epsilon = 0.000862
 n10bf                                  7      0.0000       0.00000       A     3.27956e-01     6.47518e-01    ;  uncertainty sigma = 0.000036, epsilon = 0.003822
 c11bf                                  6      0.0000       0.00000       A     3.31486e-01     4.12978e-01    ;  uncertainty sigma = 0.000019, epsilon = 0.000950
 c12bf                                  6      0.0000       0.00000       A     3.31519e-01     4.13538e-01    ;  uncertainty sigma = 0.000004, epsilon = 0.000560
 c13bf                                  6      0.0000       0.00000       A     3.31520e-01     4.13359e-01    ;  uncertainty sigma = 0.000009, epsilon = 0.000475
 c14bf                                  6      0.0000       0.00000       A     3.31518e-01     4.12945e-01    ;  uncertainty sigma = 0.000007, epsilon = 0.000425
 c15bf                                  6      0.0000       0.00000       A     3.31518e-01     4.13245e-01    ;  uncertainty sigma = 0.000008, epsilon = 0.000498
 c16bf                                  6      0.0000       0.00000       A     3.31512e-01     4.13263e-01    ;  uncertainty sigma = 0.000005, epsilon = 0.000510
 c17bf                                  6      0.0000       0.00000       A     3.31524e-01     4.13558e-01    ;  uncertainty sigma = 0.000009, epsilon = 0.000824
 c18bf                                  6      0.0000       0.00000       A     3.31519e-01     4.13015e-01    ;  uncertainty sigma = 0.000006, epsilon = 0.000805
 n19bf                                  7      0.0000       0.00000       A     3.20629e-01     8.53784e-01    ;  uncertainty sigma = 0.000019, epsilon = 0.000793
 c20bf                                  6      0.0000       0.00000       A     3.39777e-01     4.51126e-01    ;  uncertainty sigma = 0.000006, epsilon = 0.000488
 c21bf                                  6      0.0000       0.00000       A     3.31502e-01     4.13462e-01    ;  uncertainty sigma = 0.000018, epsilon = 0.002180
 c22bf                                  6      0.0000       0.00000       A     3.31532e-01     4.13419e-01    ;  uncertainty sigma = 0.000012, epsilon = 0.000931
 n23bf                                  7      0.0000       0.00000       A     3.38420e-01     3.93806e-01    ;  uncertainty sigma = 0.000013, epsilon = 0.000881
 c24bf                                  6      0.0000       0.00000       A     3.31513e-01     4.13350e-01    ;  uncertainty sigma = 0.000011, epsilon = 0.000728
 c25bf                                  6      0.0000       0.00000       A     3.31518e-01     4.13124e-01    ;  uncertainty sigma = 0.000015, epsilon = 0.000361
 c26bf                                  6      0.0000       0.00000       A     3.31501e-01     4.13078e-01    ;  uncertainty sigma = 0.000025, epsilon = 0.001598
 s27bf                                 16      0.0000       0.00000       A     4.05775e-01     2.56504e-01    ;  uncertainty sigma = 0.000009, epsilon = 0.002944
 o28bf                                  8      0.0000       0.00000       A     3.04808e-01     6.12058e-01    ;  uncertainty sigma = 0.000011, epsilon = 0.001075
 o29bf                                  8      0.0000       0.00000       A     3.04808e-01     6.12058e-01    ;  uncertainty sigma = 0.000011, epsilon = 0.001075
 c30bf                                  6      0.0000       0.00000       A     3.39790e-01     4.50653e-01    ;  uncertainty sigma = 0.000003, epsilon = 0.000848
 f31bf                                  9      0.0000       0.00000       A     3.03425e-01     3.48148e-01    ;  uncertainty sigma = 0.000032, epsilon = 0.001399
 h32bf                                  1      0.0000       0.00000       A     2.62566e-01     6.71158e-02    ;  uncertainty sigma = 0.000015, epsilon = 0.000400
 h33bf                                  1      0.0000       0.00000       A     2.62540e-01     6.71221e-02    ;  uncertainty sigma = 0.000022, epsilon = 0.000645
 h34bf                                  1      0.0000       0.00000       A     2.53628e-01     6.69333e-02    ;  uncertainty sigma = 0.000020, epsilon = 0.000763
 h35bf                                  1      0.0000       0.00000       A     2.53628e-01     6.69333e-02    ;  uncertainty sigma = 0.000020, epsilon = 0.000763
 h36bf                                  1      0.0000       0.00000       A     1.10720e-01     4.14040e-02    ;  uncertainty sigma = 0.000106, epsilon = 0.001477
 h37bf                                  1      0.0000       0.00000       A     2.62560e-01     6.71499e-02    ;  uncertainty sigma = 0.000012, epsilon = 0.000577
 h38bf                                  1      0.0000       0.00000       A     2.62578e-01     6.73015e-02    ;  uncertainty sigma = 0.000018, epsilon = 0.000492
 h39bf                                  1      0.0000       0.00000       A     2.62540e-01     6.72696e-02    ;  uncertainty sigma = 0.000015, epsilon = 0.000361
 h40bf                                  1      0.0000       0.00000       A     2.53669e-01     6.69808e-02    ;  uncertainty sigma = 0.000019, epsilon = 0.000693
 h41bf                                  1      0.0000       0.00000       A     2.42192e-01     8.67346e-02    ;  uncertainty sigma = 0.000017, epsilon = 0.000545
 h42bf                                  1      0.0000       0.00000       A     2.42192e-01     8.67346e-02    ;  uncertainty sigma = 0.000017, epsilon = 0.000545
 h43bf                                  1      0.0000       0.00000       A     2.42192e-01     8.67346e-02    ;  uncertainty sigma = 0.000017, epsilon = 0.000545
 h44bf                                  1      0.0000       0.00000       A     2.53624e-01     6.69778e-02    ;  uncertainty sigma = 0.000049, epsilon = 0.000568
 h45bf                                  1      0.0000       0.00000       A     2.53633e-01     6.70304e-02    ;  uncertainty sigma = 0.000014, epsilon = 0.000494
 h46bf                                  1      0.0000       0.00000       A     2.62533e-01     6.70950e-02    ;  uncertainty sigma = 0.000019, epsilon = 0.000754
 h47bf                                  1      0.0000       0.00000       A     2.42167e-01     8.68275e-02    ;  uncertainty sigma = 0.000012, epsilon = 0.000620
 h48bf                                  1      0.0000       0.00000       A     2.42167e-01     8.68275e-02    ;  uncertainty sigma = 0.000012, epsilon = 0.000620
 h49bf                                  1      0.0000       0.00000       A     2.42167e-01     8.68276e-02    ;  uncertainty sigma = 0.000012, epsilon = 0.000620

[ moleculetype ]
;name             nrexcl
 MOL                   3

[ atoms ]
;       nr            type      resi   res      atom      cgnr      charge          mass ; qtot
         1            c0bf         1   UNL        c0         1     0.17400       12.0110 ; qtot    0.174
         2            c1bf         1   UNL        c1         2    -0.15722       12.0110 ; qtot    0.017
         3            c2bf         1   UNL        c2         3    -0.02776       12.0110 ; qtot   -0.011
         4            c3bf         1   UNL        c3         4    -0.22162       12.0110 ; qtot   -0.233
         5            c4bf         1   UNL        c4         5     0.32361       12.0110 ; qtot    0.091
         6            c5bf         1   UNL        c5         6     0.27729       12.0110 ; qtot    0.368
         7            n6bf         1   UNL        n6         7    -0.61815       14.0070 ; qtot   -0.250
         8            c7bf         1   UNL        c7         8     0.29560       12.0110 ; qtot    0.046
         9            c8bf         1   UNL        c8         9     0.29621       12.0110 ; qtot    0.342
        10            n9bf         1   UNL        n9        10    -0.62862       14.0070 ; qtot   -0.287
        11           n10bf         1   UNL       n10        11    -0.64735       14.0070 ; qtot   -0.934
        12           c11bf         1   UNL       c11        12     0.00328       12.0110 ; qtot   -0.931
        13           c12bf         1   UNL       c12        13    -0.17835       12.0110 ; qtot   -1.109
        14           c13bf         1   UNL       c13        14     0.17644       12.0110 ; qtot   -0.933
        15           c14bf         1   UNL       c14        15    -0.13341       12.0110 ; qtot   -1.066
        16           c15bf         1   UNL       c15        16    -0.03294       12.0110 ; qtot   -1.099
        17           c16bf         1   UNL       c16        17    -0.13062       12.0110 ; qtot   -1.230
        18           c17bf         1   UNL       c17        18    -0.16667       12.0110 ; qtot   -1.396
        19           c18bf         1   UNL       c18        19    -0.11003       12.0110 ; qtot   -1.506
        20           n19bf         1   UNL       n19        20    -0.07385       14.0070 ; qtot   -1.580
        21           c20bf         1   UNL       c20        21     0.03614       12.0110 ; qtot   -1.544
        22           c21bf         1   UNL       c21        22     0.15628       12.0110 ; qtot   -1.388
        23           c22bf         1   UNL       c22        23     0.33325       12.0110 ; qtot   -1.054
        24           n23bf         1   UNL       n23        24    -0.60182       14.0070 ; qtot   -1.656
        25           c24bf         1   UNL       c24        25     0.35581       12.0110 ; qtot   -1.300
        26           c25bf         1   UNL       c25        26    -0.13704       12.0110 ; qtot   -1.438
        27           c26bf         1   UNL       c26        27    -0.26398       12.0110 ; qtot   -1.702
        28           s27bf         1   UNL       s27        28     1.01656       32.0670 ; qtot   -0.685
        29           o28bf         1   UNL       o28        29    -0.58472       15.9990 ; qtot   -1.270
        30           o29bf         1   UNL       o29        30    -0.58472       15.9990 ; qtot   -1.854
        31           c30bf         1   UNL       c30        31    -0.18352       12.0110 ; qtot   -2.038
        32           f31bf         1   UNL       f31        32    -0.14228       18.9980 ; qtot   -2.180
        33           h32bf         1   UNL       h32        33     0.14719        1.0080 ; qtot   -2.033
        34           h33bf         1   UNL       h33        34     0.15776        1.0080 ; qtot   -1.875
        35           h34bf         1   UNL       h34        35     0.03380        1.0080 ; qtot   -1.841
        36           h35bf         1   UNL       h35        36     0.03331        1.0080 ; qtot   -1.808
        37           h36bf         1   UNL       h36        37     0.47844        1.0080 ; qtot   -1.330
        38           h37bf         1   UNL       h37        38     0.15631        1.0080 ; qtot   -1.173
        39           h38bf         1   UNL       h38        39     0.14304        1.0080 ; qtot   -1.030
        40           h39bf         1   UNL       h39        40     0.16392        1.0080 ; qtot   -0.866
        41           h40bf         1   UNL       h40        41     0.16385        1.0080 ; qtot   -0.703
        42           h41bf         1   UNL       h41        42     0.04975        1.0080 ; qtot   -0.653
        43           h42bf         1   UNL       h42        43     0.04975        1.0080 ; qtot   -0.603
        44           h43bf         1   UNL       h43        44     0.04975        1.0080 ; qtot   -0.553
        45           h44bf         1   UNL       h44        45     0.03967        1.0080 ; qtot   -0.514
        46           h45bf         1   UNL       h45        46     0.03424        1.0080 ; qtot   -0.479
        47           h46bf         1   UNL       h46        47     0.16807        1.0080 ; qtot   -0.311
        48           h47bf         1   UNL       h47        48     0.10378        1.0080 ; qtot   -0.208
        49           h48bf         1   UNL       h48        49     0.10378        1.0080 ; qtot   -0.104
        50           h49bf         1   UNL       h49        50     0.10379        1.0080 ; qtot    0.000

[ bonds ]
;       ai        aj funct               r               k
         1         2     1        0.142004   351951.292236    ;  uncertainty r = 0.000218, k = 13.007858
         1         4     1        0.138770   381943.426953    ;  uncertainty r = 0.000111, k = 9.337646
         1        11     1        0.141414   345942.921143    ;  uncertainty r = 0.000097, k = 12.910217
         2         3     1        0.137966   347129.273096    ;  uncertainty r = 0.000135, k = 17.044549
         2        33     1        0.108883   338510.268848    ;  uncertainty r = 0.000020, k = 3.739164
         3         6     1        0.143049   311583.046924    ;  uncertainty r = 0.000134, k = 17.901551
         3        12     1        0.148094   285075.093262    ;  uncertainty r = 0.000110, k = 17.162241
         4         5     1        0.141431   396079.468311    ;  uncertainty r = 0.000094, k = 15.205670
         4        34     1        0.108811   340366.765625    ;  uncertainty r = 0.000031, k = 1.855831
         5         6     1        0.142995   298655.600342    ;  uncertainty r = 0.000072, k = 15.498948
         5        10     1        0.136382   355171.598340    ;  uncertainty r = 0.000057, k = 8.738544
         6         7     1        0.135767   353109.910889    ;  uncertainty r = 0.000088, k = 12.675249
         7         8     1        0.131584   437137.956152    ;  uncertainty r = 0.000061, k = 11.801030
         8         9     1        0.141378   325245.374902    ;  uncertainty r = 0.000067, k = 16.241067
         8        35     1        0.109180   341408.015723    ;  uncertainty r = 0.000031, k = 1.111543
         9        10     1        0.131606   448634.967090    ;  uncertainty r = 0.000067, k = 6.059784
         9        36     1        0.109175   341608.175586    ;  uncertainty r = 0.000026, k = 2.358932
        11        22     1        0.139103   334487.280322    ;  uncertainty r = 0.000264, k = 9.014066
        11        37     1        0.101492   409720.294043    ;  uncertainty r = 0.000088, k = 5.983707
        12        13     1        0.141577   343696.396094    ;  uncertainty r = 0.000084, k = 4.786700
        12        15     1        0.139438   349511.553418    ;  uncertainty r = 0.000108, k = 2.753830
        13        14     1        0.138029   354152.846436    ;  uncertainty r = 0.000065, k = 8.746272
        13        38     1        0.108744   337716.371191    ;  uncertainty r = 0.000023, k = 1.375676
        14        17     1        0.139797   369656.451074    ;  uncertainty r = 0.000077, k = 5.739647
        14        32     1        0.135706   337974.372607    ;  uncertainty r = 0.000063, k = 7.187344
        15        16     1        0.139758   358708.743359    ;  uncertainty r = 0.000085, k = 6.723931
        15        39     1        0.108784   335463.461865    ;  uncertainty r = 0.000025, k = 1.111084
        16        17     1        0.142395   381240.926611    ;  uncertainty r = 0.000039, k = 10.982711
        16        20     1        0.138324   296691.209277    ;  uncertainty r = 0.000073, k = 4.237912
        17        18     1        0.143559   259723.179004    ;  uncertainty r = 0.000030, k = 11.432967
        18        19     1        0.137571   435142.946094    ;  uncertainty r = 0.000021, k = 1.875870
        18        40     1        0.108146   338583.509277    ;  uncertainty r = 0.000018, k = 1.982877
        19        20     1        0.138870   299469.621240    ;  uncertainty r = 0.000046, k = 10.927421
        19        41     1        0.108275   340029.880078    ;  uncertainty r = 0.000028, k = 1.893069
        20        21     1        0.145077   254231.679004    ;  uncertainty r = 0.000044, k = 4.380313
        21        42     1        0.109426   310040.631055    ;  uncertainty r = 0.000012, k = 1.344889
        21        43     1        0.109426   310040.631055    ;  uncertainty r = 0.000012, k = 1.344889
        21        44     1        0.109426   310040.631055    ;  uncertainty r = 0.000012, k = 1.344889
        22        23     1        0.140927   340447.871484    ;  uncertainty r = 0.000113, k = 16.488682
        22        27     1        0.141356   348414.581348    ;  uncertainty r = 0.000198, k = 15.946795
        23        24     1        0.132524   387119.492578    ;  uncertainty r = 0.000108, k = 11.004632
        23        45     1        0.108905   336131.001904    ;  uncertainty r = 0.000101, k = 3.724259
        24        25     1        0.133802   397972.278857    ;  uncertainty r = 0.000074, k = 5.323621
        25        26     1        0.139170   363105.058887    ;  uncertainty r = 0.000048, k = 3.861500
        25        46     1        0.108994   339519.240039    ;  uncertainty r = 0.000025, k = 1.411838
        26        27     1        0.138845   368349.231982    ;  uncertainty r = 0.000202, k = 14.185244
        26        47     1        0.108610   333138.767725    ;  uncertainty r = 0.000052, k = 1.956170
        27        28     1        0.180205   137177.881958    ;  uncertainty r = 0.000181, k = 18.369757
        28        29     1        0.147757   507438.196289    ;  uncertainty r = 0.000058, k = 6.198409
        28        30     1        0.147757   507438.196289    ;  uncertainty r = 0.000058, k = 6.198409
        28        31     1        0.181050   174448.795117    ;  uncertainty r = 0.000039, k = 9.209375
        31        48     1        0.109286   321567.954541    ;  uncertainty r = 0.000031, k = 1.364985
        31        49     1        0.109286   321567.954541    ;  uncertainty r = 0.000031, k = 1.364985
        31        50     1        0.109286   321567.954541    ;  uncertainty r = 0.000031, k = 1.364985

[ angles ]
;       ai        aj        ak funct           theta             cth
         1         2         3     1      122.335678      516.007748    ;  uncertainty theta = 0.004649, k = 0.263080
         1         2        33     1      119.369408      284.883246    ;  uncertainty theta = 0.005054, k = 0.124449
         1         4         5     1      118.206688      518.635612    ;  uncertainty theta = 0.002447, k = 0.073028
         1         4        34     1      121.438538      270.401917    ;  uncertainty theta = 0.001365, k = 0.142095
         1        11        22     1      115.247620      387.594010    ;  uncertainty theta = 0.002924, k = 0.212981
         1        11        37     1      115.334732      382.605049    ;  uncertainty theta = 0.007384, k = 0.160726
         2         1         4     1      119.362228      387.607800    ;  uncertainty theta = 0.003782, k = 0.067189
         2         1        11     1      120.277267      500.376164    ;  uncertainty theta = 0.004774, k = 0.343101
         2         3         6     1      121.347855      456.454060    ;  uncertainty theta = 0.004831, k = 0.137323
         2         3        12     1      121.000366      420.364666    ;  uncertainty theta = 0.002780, k = 0.163290
         3         2        33     1      118.630516      277.859806    ;  uncertainty theta = 0.005355, k = 0.053275
         3         6         5     1      120.660080      396.953999    ;  uncertainty theta = 0.005838, k = 0.081524
         3         6         7     1      118.086624      467.796271    ;  uncertainty theta = 0.004260, k = 0.235363
         3        12        13     1      119.596657      399.852206    ;  uncertainty theta = 0.003629, k = 0.153929
         3        12        15     1      120.036362      389.624019    ;  uncertainty theta = 0.002676, k = 0.183040
         4         1        11     1      122.010719      487.333915    ;  uncertainty theta = 0.006482, k = 0.189293
         4         5         6     1      119.517235      392.036797    ;  uncertainty theta = 0.005326, k = 0.191059
         4         5        10     1      122.312637      528.712396    ;  uncertainty theta = 0.003351, k = 0.210335
         5         4        34     1      120.837975      275.673543    ;  uncertainty theta = 0.003390, k = 0.103595
         5         6         7     1      119.722855      514.456752    ;  uncertainty theta = 0.004269, k = 0.061580
         5        10         9     1      114.458984      488.266148    ;  uncertainty theta = 0.001996, k = 0.147683
         6         3        12     1      119.197548      395.900274    ;  uncertainty theta = 0.004441, k = 0.252744
         6         5        10     1      119.243858      555.279545    ;  uncertainty theta = 0.007472, k = 0.086368
         6         7         8     1      116.502525      472.887605    ;  uncertainty theta = 0.004302, k = 0.130226
         7         8         9     1      121.240555      622.447314    ;  uncertainty theta = 0.002919, k = 0.205880
         7         8        35     1      116.813492      347.959523    ;  uncertainty theta = 0.001638, k = 0.087624
         8         9        10     1      120.931259      612.842998    ;  uncertainty theta = 0.002470, k = 0.239696
         8         9        36     1      121.868530      283.534439    ;  uncertainty theta = 0.002376, k = 0.096063
         9         8        35     1      121.994606      282.804174    ;  uncertainty theta = 0.002439, k = 0.090842
        10         9        36     1      116.754013      350.159800    ;  uncertainty theta = 0.001533, k = 0.075385
        11        22        23     1      118.512817      444.270049    ;  uncertainty theta = 0.006989, k = 0.276229
        11        22        27     1      122.762405      517.830778    ;  uncertainty theta = 0.007977, k = 0.368248
        12        13        14     1      120.990341      489.720294    ;  uncertainty theta = 0.002030, k = 0.145472
        12        13        38     1      120.321335      275.652889    ;  uncertainty theta = 0.002655, k = 0.079302
        12        15        16     1      118.045914      526.751338    ;  uncertainty theta = 0.004331, k = 0.188710
        12        15        39     1      120.228333      278.353247    ;  uncertainty theta = 0.003557, k = 0.096968
        13        12        15     1      123.345749      424.489515    ;  uncertainty theta = 0.005382, k = 0.062095
        13        14        17     1      122.850281      429.739243    ;  uncertainty theta = 0.004668, k = 0.263595
        13        14        32     1      119.628464      517.260790    ;  uncertainty theta = 0.003531, k = 0.148208
        14        13        38     1      119.851730      287.312559    ;  uncertainty theta = 0.002701, k = 0.073388
        14        17        16     1      114.733078      404.971088    ;  uncertainty theta = 0.004177, k = 0.241102
        14        17        18     1      132.152679      347.996232    ;  uncertainty theta = 0.006236, k = 0.150118
        15        16        17     1      122.774010      366.355786    ;  uncertainty theta = 0.001946, k = 0.200390
        15        16        20     1      127.668800      386.210921    ;  uncertainty theta = 0.002388, k = 0.181472
        16        15        39     1      122.076035      289.433576    ;  uncertainty theta = 0.000915, k = 0.111440
        16        17        18     1      106.986816      694.269285    ;  uncertainty theta = 0.003109, k = 0.271066
        16        20        19     1      107.254227      818.528326    ;  uncertainty theta = 0.002318, k = 0.094271
        16        20        21     1      120.600204      412.367305    ;  uncertainty theta = 0.003690, k = 0.138080
        17        14        32     1      118.815331      471.196856    ;  uncertainty theta = 0.003009, k = 0.207843
        17        16        20     1      108.327637      661.994017    ;  uncertainty theta = 0.001600, k = 0.144487
        17        18        19     1      106.436501      821.363392    ;  uncertainty theta = 0.002741, k = 0.097556
        17        18        40     1      124.981247      249.575878    ;  uncertainty theta = 0.002304, k = 0.112154
        18        19        20     1      111.449509      757.372759    ;  uncertainty theta = 0.002689, k = 0.085318
        18        19        41     1      128.062485      239.901096    ;  uncertainty theta = 0.003582, k = 0.114649
        19        18        40     1      123.876381      247.631402    ;  uncertainty theta = 0.003835, k = 0.049540
        19        20        21     1      121.523598      389.947989    ;  uncertainty theta = 0.002105, k = 0.127023
        20        19        41     1      117.067772      288.543799    ;  uncertainty theta = 0.001593, k = 0.128861
        20        21        42     1      109.056381      472.150348    ;  uncertainty theta = 0.000849, k = 0.067734
        20        21        43     1      109.056381      472.150348    ;  uncertainty theta = 0.000849, k = 0.067734
        20        21        44     1      109.056381      472.150348    ;  uncertainty theta = 0.000849, k = 0.067734
        22        11        37     1      114.408607      380.718399    ;  uncertainty theta = 0.008156, k = 0.169224
        22        23        24     1      124.922012      667.515332    ;  uncertainty theta = 0.002966, k = 0.161817
        22        23        45     1      118.731201      264.771767    ;  uncertainty theta = 0.008633, k = 0.144655
        22        27        26     1      123.289940      400.819392    ;  uncertainty theta = 0.003703, k = 0.311812
        22        27        28     1      119.668861      323.012512    ;  uncertainty theta = 0.009862, k = 0.668304
        23        22        27     1      118.657333      362.619675    ;  uncertainty theta = 0.004612, k = 0.362834
        23        24        25     1      118.268311      445.304685    ;  uncertainty theta = 0.004478, k = 0.098123
        24        23        45     1      116.579346      347.314711    ;  uncertainty theta = 0.005152, k = 0.066004
        24        25        26     1      122.431091      677.632432    ;  uncertainty theta = 0.002046, k = 0.093657
        24        25        46     1      116.840332      340.667018    ;  uncertainty theta = 0.001197, k = 0.068775
        25        26        27     1      118.808189      483.994204    ;  uncertainty theta = 0.004991, k = 0.079007
        25        26        47     1      122.214798      277.736813    ;  uncertainty theta = 0.004016, k = 0.070187
        26        25        46     1      120.256371      277.546307    ;  uncertainty theta = 0.002265, k = 0.082403
        26        27        28     1      114.589760      352.518886    ;  uncertainty theta = 0.008187, k = 0.213541
        27        26        47     1      119.535904      260.121156    ;  uncertainty theta = 0.004889, k = 0.124125
        27        28        29     1      112.903671      607.682140    ;  uncertainty theta = 0.002869, k = 0.171145
        27        28        30     1      112.903671      607.682140    ;  uncertainty theta = 0.002869, k = 0.171145
        27        28        31     1      104.371536      610.740975    ;  uncertainty theta = 0.002610, k = 0.101867
        28        31        48     1      107.113976      366.636152    ;  uncertainty theta = 0.002061, k = 0.075109
        28        31        49     1      107.113976      366.636152    ;  uncertainty theta = 0.002061, k = 0.075109
        28        31        50     1      107.113976      366.636152    ;  uncertainty theta = 0.002061, k = 0.075109
        29        28        30     1      123.473061      838.268511    ;  uncertainty theta = 0.001927, k = 0.047858
        29        28        31     1      112.603310      748.419640    ;  uncertainty theta = 0.000730, k = 0.122171
        30        28        31     1      112.603310      748.419640    ;  uncertainty theta = 0.000730, k = 0.122171
        42        21        43     1      107.317055      322.193856    ;  uncertainty theta = 0.001017, k = 0.038184
        42        21        44     1      107.317055      322.193856    ;  uncertainty theta = 0.001017, k = 0.038184
        43        21        44     1      107.317055      322.193856    ;  uncertainty theta = 0.001017, k = 0.038184
        48        31        49     1      108.843689      296.191780    ;  uncertainty theta = 0.002069, k = 0.023129
        48        31        50     1      108.843689      296.191780    ;  uncertainty theta = 0.002069, k = 0.023129
        49        31        50     1      108.843689      296.191780    ;  uncertainty theta = 0.002069, k = 0.023129

[ dihedrals ] ; propers for gromacs 4.5 or higher, use funct 9
;       ai        aj        ak        al funct           phase               k        pn
         1         2         3         6     9        0.000000        0.032098         1    ;  uncertainty k = 0.538708
         1         2         3         6     9      180.000000       12.518250         2    ;  uncertainty k = 0.424687
         1         2         3         6     9        0.000000        0.351941         3    ;  uncertainty k = 0.224178
         1         2         3         6     9      180.000000        1.278184         4    ;  uncertainty k = 0.321593
         1         2         3        12     9        0.000000        0.187846         1    ;  uncertainty k = 0.225274
         1         2         3        12     9      180.000000       10.375890         2    ;  uncertainty k = 0.634770
         1         2         3        12     9        0.000000        1.358509         3    ;  uncertainty k = 0.285259
         1         2         3        12     9      180.000000        1.725012         4    ;  uncertainty k = 0.297360
         1         4         5         6     9        0.000000        0.121232         1    ;  uncertainty k = 0.458444
         1         4         5         6     9      180.000000        7.195261         2    ;  uncertainty k = 0.794921
         1         4         5         6     9        0.000000        0.037658         3    ;  uncertainty k = 0.279135
         1         4         5         6     9      180.000000        1.290689         4    ;  uncertainty k = 0.271573
         1         4         5        10     9        0.000000        0.146697         1    ;  uncertainty k = 0.428362
         1         4         5        10     9      180.000000        9.787397         2    ;  uncertainty k = 0.378069
         1         4         5        10     9        0.000000        0.568644         3    ;  uncertainty k = 0.286792
         1         4         5        10     9      180.000000        1.391199         4    ;  uncertainty k = 0.231273
         1        11        22        23     9        0.000000        4.219814         1    ;  uncertainty k = 1.204826
         1        11        22        23     9      180.000000        5.915026         2    ;  uncertainty k = 0.485741
         1        11        22        23     9        0.000000        0.506820         3    ;  uncertainty k = 0.114706
         1        11        22        23     9      180.000000        0.021030         4    ;  uncertainty k = 0.159761
         1        11        22        27     9        0.000000        0.589931         1    ;  uncertainty k = 1.531192
         1        11        22        27     9      180.000000        8.272736         2    ;  uncertainty k = 0.309916
         1        11        22        27     9        0.000000       -0.349199         3    ;  uncertainty k = 0.585019
         1        11        22        27     9      180.000000        0.078445         4    ;  uncertainty k = 0.210860
         2         1         4         5     9        0.000000       -0.221710         1    ;  uncertainty k = 0.191086
         2         1         4         5     9      180.000000        9.798196         2    ;  uncertainty k = 0.334095
         2         1         4         5     9        0.000000        0.329469         3    ;  uncertainty k = 0.461908
         2         1         4         5     9      180.000000        1.353768         4    ;  uncertainty k = 0.303959
         2         1         4        34     9        0.000000        0.274320         1    ;  uncertainty k = 0.397236
         2         1         4        34     9      180.000000        7.009104         2    ;  uncertainty k = 0.649589
         2         1         4        34     9        0.000000        1.295657         3    ;  uncertainty k = 0.118446
         2         1         4        34     9      180.000000        1.628272         4    ;  uncertainty k = 0.154579
         2         1        11        22     9        0.000000        2.704329         1    ;  uncertainty k = 1.100884
         2         1        11        22     9      180.000000        5.654041         2    ;  uncertainty k = 0.307787
         2         1        11        22     9        0.000000        0.621213         3    ;  uncertainty k = 0.287959
         2         1        11        22     9      180.000000        0.073947         4    ;  uncertainty k = 0.167406
         2         1        11        37     9        0.000000        3.340433         1    ;  uncertainty k = 0.856252
         2         1        11        37     9      180.000000        4.536996         2    ;  uncertainty k = 0.547945
         2         1        11        37     9        0.000000        0.508740         3    ;  uncertainty k = 0.257942
         2         1        11        37     9      180.000000       -0.053044         4    ;  uncertainty k = 0.129026
         2         3         6         5     9        0.000000       -0.061755         1    ;  uncertainty k = 0.522455
         2         3         6         5     9      180.000000        5.842312         2    ;  uncertainty k = 0.984249
         2         3         6         5     9        0.000000        0.060989         3    ;  uncertainty k = 0.279155
         2         3         6         5     9      180.000000        1.006391         4    ;  uncertainty k = 0.339538
         2         3         6         7     9        0.000000        0.235455         1    ;  uncertainty k = 0.521929
         2         3         6         7     9      180.000000        6.935830         2    ;  uncertainty k = 0.779413
         2         3         6         7     9        0.000000        0.366831         3    ;  uncertainty k = 0.292808
         2         3         6         7     9      180.000000        1.166249         4    ;  uncertainty k = 0.342314
         2         3        12        13     9        0.000000       -0.060626         1    ;  uncertainty k = 0.453708
         2         3        12        13     9      180.000000        5.661351         2    ;  uncertainty k = 0.126259
         2         3        12        13     9        0.000000        0.307667         3    ;  uncertainty k = 0.192324
         2         3        12        13     9      180.000000        0.586494         4    ;  uncertainty k = 0.079595
         2         3        12        15     9        0.000000       -0.287856         1    ;  uncertainty k = 0.383989
         2         3        12        15     9      180.000000        5.453692         2    ;  uncertainty k = 0.193787
         2         3        12        15     9        0.000000        0.475656         3    ;  uncertainty k = 0.122306
         2         3        12        15     9      180.000000        0.511034         4    ;  uncertainty k = 0.130108
         3         2         1         4     9        0.000000       -0.061366         1    ;  uncertainty k = 0.349653
         3         2         1         4     9      180.000000        6.220516         2    ;  uncertainty k = 0.964398
         3         2         1         4     9        0.000000        0.296761         3    ;  uncertainty k = 0.190240
         3         2         1         4     9      180.000000        1.351950         4    ;  uncertainty k = 0.314539
         3         2         1        11     9        0.000000        0.287592         1    ;  uncertainty k = 0.760428
         3         2         1        11     9      180.000000        7.630713         2    ;  uncertainty k = 0.486463
         3         2         1        11     9        0.000000        0.820751         3    ;  uncertainty k = 0.263486
         3         2         1        11     9      180.000000        1.635701         4    ;  uncertainty k = 0.107825
         3         6         5         4     9        0.000000       -0.719638         1    ;  uncertainty k = 0.527989
         3         6         5         4     9      180.000000        4.586098         2    ;  uncertainty k = 1.560076
         3         6         5         4     9        0.000000        0.272435         3    ;  uncertainty k = 0.306560
         3         6         5         4     9      180.000000        1.244656         4    ;  uncertainty k = 0.359817
         3         6         5        10     9        0.000000       -0.309402         1    ;  uncertainty k = 0.702389
         3         6         5        10     9      180.000000        4.987140         2    ;  uncertainty k = 1.182107
         3         6         5        10     9        0.000000        0.091937         3    ;  uncertainty k = 0.381154
         3         6         5        10     9      180.000000        1.326878         4    ;  uncertainty k = 0.228236
         3         6         7         8     9        0.000000       -0.256502         1    ;  uncertainty k = 0.538547
         3         6         7         8     9      180.000000       12.462074         2    ;  uncertainty k = 0.553280
         3         6         7         8     9        0.000000        2.053823         3    ;  uncertainty k = 0.348331
         3         6         7         8     9      180.000000        1.323313         4    ;  uncertainty k = 0.187047
         3        12        13        14     9        0.000000        0.046892         1    ;  uncertainty k = 0.147452
         3        12        13        14     9      180.000000        7.639006         2    ;  uncertainty k = 0.515254
         3        12        13        14     9        0.000000        1.050277         3    ;  uncertainty k = 0.478060
         3        12        13        14     9      180.000000        1.778618         4    ;  uncertainty k = 0.220686
         3        12        13        38     9        0.000000       -0.178663         1    ;  uncertainty k = 0.147753
         3        12        13        38     9      180.000000        7.121748         2    ;  uncertainty k = 0.415856
         3        12        13        38     9        0.000000        0.838020         3    ;  uncertainty k = 0.209989
         3        12        13        38     9      180.000000        1.109946         4    ;  uncertainty k = 0.155267
         3        12        15        16     9        0.000000        0.019380         1    ;  uncertainty k = 0.515881
         3        12        15        16     9      180.000000       10.636161         2    ;  uncertainty k = 0.790789
         3        12        15        16     9        0.000000        1.433491         3    ;  uncertainty k = 0.254471
         3        12        15        16     9      180.000000        1.667545         4    ;  uncertainty k = 0.281920
         3        12        15        39     9        0.000000       -0.178982         1    ;  uncertainty k = 0.198955
         3        12        15        39     9      180.000000        7.749849         2    ;  uncertainty k = 0.291372
         3        12        15        39     9        0.000000        0.890155         3    ;  uncertainty k = 0.204896
         3        12        15        39     9      180.000000        1.175884         4    ;  uncertainty k = 0.106081
         4         1         2        33     9        0.000000        0.249483         1    ;  uncertainty k = 0.404907
         4         1         2        33     9      180.000000        5.922880         2    ;  uncertainty k = 0.882861
         4         1         2        33     9        0.000000        1.141823         3    ;  uncertainty k = 0.151874
         4         1         2        33     9      180.000000        1.438043         4    ;  uncertainty k = 0.272334
         4         1        11        22     9        0.000000        2.391292         1    ;  uncertainty k = 0.927258
         4         1        11        22     9      180.000000        5.627189         2    ;  uncertainty k = 0.345908
         4         1        11        22     9        0.000000        0.130796         3    ;  uncertainty k = 0.275597
         4         1        11        22     9      180.000000        0.108068         4    ;  uncertainty k = 0.070781
         4         1        11        37     9        0.000000        3.714210         1    ;  uncertainty k = 1.019186
         4         1        11        37     9      180.000000        4.537151         2    ;  uncertainty k = 0.136540
         4         1        11        37     9        0.000000        0.421528         3    ;  uncertainty k = 0.226094
         4         1        11        37     9      180.000000       -0.068003         4    ;  uncertainty k = 0.067046
         4         5         6         7     9        0.000000        0.076450         1    ;  uncertainty k = 0.284767
         4         5         6         7     9      180.000000        6.080416         2    ;  uncertainty k = 1.149880
         4         5         6         7     9        0.000000        0.106983         3    ;  uncertainty k = 0.156574
         4         5         6         7     9      180.000000        1.373586         4    ;  uncertainty k = 0.405208
         4         5        10         9     9        0.000000        0.427932         1    ;  uncertainty k = 1.029214
         4         5        10         9     9      180.000000       12.638436         2    ;  uncertainty k = 0.318597
         4         5        10         9     9        0.000000        2.227131         3    ;  uncertainty k = 0.470956
         4         5        10         9     9      180.000000        1.437848         4    ;  uncertainty k = 0.260470
         5         4         1        11     9        0.000000       -0.189602         1    ;  uncertainty k = 0.394616
         5         4         1        11     9      180.000000       11.233636         2    ;  uncertainty k = 0.435508
         5         4         1        11     9        0.000000        0.975271         3    ;  uncertainty k = 0.174800
         5         4         1        11     9      180.000000        1.594279         4    ;  uncertainty k = 0.138017
         5         6         3        12     9        0.000000        0.203718         1    ;  uncertainty k = 0.757265
         5         6         3        12     9      180.000000        4.974215         2    ;  uncertainty k = 0.519890
         5         6         3        12     9        0.000000        1.106647         3    ;  uncertainty k = 0.219537
         5         6         3        12     9      180.000000        1.289553         4    ;  uncertainty k = 0.341312
         5         6         7         8     9        0.000000       -0.112022         1    ;  uncertainty k = 0.910117
         5         6         7         8     9      180.000000       11.596635         2    ;  uncertainty k = 0.629166
         5         6         7         8     9        0.000000        1.457657         3    ;  uncertainty k = 0.287216
         5         6         7         8     9      180.000000        1.330866         4    ;  uncertainty k = 0.318778
         5        10         9         8     9        0.000000        0.013311         1    ;  uncertainty k = 0.131653
         5        10         9         8     9      180.000000       17.231919         2    ;  uncertainty k = 0.196674
         5        10         9         8     9        0.000000        0.888029         3    ;  uncertainty k = 0.629562
         5        10         9         8     9      180.000000        1.519865         4    ;  uncertainty k = 0.234840
         5        10         9        36     9        0.000000        0.424411         1    ;  uncertainty k = 0.517708
         5        10         9        36     9      180.000000       19.045700         2    ;  uncertainty k = 0.443936
         5        10         9        36     9        0.000000        2.354564         3    ;  uncertainty k = 0.582721
         5        10         9        36     9      180.000000        1.407429         4    ;  uncertainty k = 0.336465
         6         3         2        33     9        0.000000        0.106825         1    ;  uncertainty k = 0.238857
         6         3         2        33     9      180.000000        9.595425         2    ;  uncertainty k = 0.342396
         6         3         2        33     9        0.000000        1.469983         3    ;  uncertainty k = 0.125547
         6         3         2        33     9      180.000000        1.670742         4    ;  uncertainty k = 0.178010
         6         3        12        13     9        0.000000       -0.314020         1    ;  uncertainty k = 0.596963
         6         3        12        13     9      180.000000        5.148287         2    ;  uncertainty k = 0.334770
         6         3        12        13     9        0.000000        0.507718         3    ;  uncertainty k = 0.368176
         6         3        12        13     9      180.000000        0.684005         4    ;  uncertainty k = 0.084315
         6         3        12        15     9        0.000000        0.059374         1    ;  uncertainty k = 0.609200
         6         3        12        15     9      180.000000        5.053886         2    ;  uncertainty k = 0.339043
         6         3        12        15     9        0.000000        0.245436         3    ;  uncertainty k = 0.385573
         6         3        12        15     9      180.000000        0.696349         4    ;  uncertainty k = 0.128279
         6         5         4        34     9        0.000000       -0.216754         1    ;  uncertainty k = 0.343873
         6         5         4        34     9      180.000000        5.853912         2    ;  uncertainty k = 0.879793
         6         5         4        34     9        0.000000        1.199031         3    ;  uncertainty k = 0.162614
         6         5         4        34     9      180.000000        1.246407         4    ;  uncertainty k = 0.338414
         6         5        10         9     9        0.000000       -0.063178         1    ;  uncertainty k = 1.326752
         6         5        10         9     9      180.000000       10.095142         2    ;  uncertainty k = 0.612694
         6         5        10         9     9        0.000000        1.278116         3    ;  uncertainty k = 0.488029
         6         5        10         9     9      180.000000        1.281711         4    ;  uncertainty k = 0.220795
         6         7         8         9     9        0.000000        0.020377         1    ;  uncertainty k = 0.368422
         6         7         8         9     9      180.000000       16.581266         2    ;  uncertainty k = 0.335688
         6         7         8         9     9        0.000000        0.829256         3    ;  uncertainty k = 0.750676
         6         7         8         9     9      180.000000        1.566270         4    ;  uncertainty k = 0.253962
         6         7         8        35     9        0.000000        0.275900         1    ;  uncertainty k = 0.531876
         6         7         8        35     9      180.000000       18.156242         2    ;  uncertainty k = 0.522836
         6         7         8        35     9        0.000000        2.344022         3    ;  uncertainty k = 0.655907
         6         7         8        35     9      180.000000        1.633482         4    ;  uncertainty k = 0.415921
         7         6         3        12     9        0.000000        0.275839         1    ;  uncertainty k = 1.227608
         7         6         3        12     9      180.000000        7.248602         2    ;  uncertainty k = 0.767971
         7         6         3        12     9        0.000000        0.796874         3    ;  uncertainty k = 0.511055
         7         6         3        12     9      180.000000        1.193458         4    ;  uncertainty k = 0.269315
         7         6         5        10     9        0.000000       -0.400492         1    ;  uncertainty k = 0.890675
         7         6         5        10     9      180.000000        7.087146         2    ;  uncertainty k = 0.720455
         7         6         5        10     9        0.000000        0.077638         3    ;  uncertainty k = 0.327161
         7         6         5        10     9      180.000000        1.330895         4    ;  uncertainty k = 0.356325
         7         8         9        10     9        0.000000       -0.202866         1    ;  uncertainty k = 0.782206
         7         8         9        10     9      180.000000       12.112991         2    ;  uncertainty k = 0.805807
         7         8         9        10     9        0.000000       -1.599825         3    ;  uncertainty k = 0.569696
         7         8         9        10     9      180.000000        0.918172         4    ;  uncertainty k = 0.463986
         7         8         9        36     9        0.000000        0.036887         1    ;  uncertainty k = 0.700692
         7         8         9        36     9      180.000000        6.513920         2    ;  uncertainty k = 1.135261
         7         8         9        36     9        0.000000        0.521732         3    ;  uncertainty k = 0.385188
         7         8         9        36     9      180.000000        1.117821         4    ;  uncertainty k = 0.330142
        10         5         4        34     9        0.000000        0.139927         1    ;  uncertainty k = 0.233388
        10         5         4        34     9      180.000000        8.199302         2    ;  uncertainty k = 0.492393
        10         5         4        34     9        0.000000        1.032825         3    ;  uncertainty k = 0.329116
        10         5         4        34     9      180.000000        1.219854         4    ;  uncertainty k = 0.291231
        10         9         8        35     9        0.000000       -0.033262         1    ;  uncertainty k = 0.634830
        10         9         8        35     9      180.000000        6.504272         2    ;  uncertainty k = 1.136878
        10         9         8        35     9        0.000000        0.521238         3    ;  uncertainty k = 0.433609
        10         9         8        35     9      180.000000        1.070757         4    ;  uncertainty k = 0.343719
        11         1         2        33     9        0.000000       -0.444465         1    ;  uncertainty k = 0.331198
        11         1         2        33     9      180.000000        6.982226         2    ;  uncertainty k = 0.396117
        11         1         2        33     9        0.000000        0.801490         3    ;  uncertainty k = 0.230308
        11         1         2        33     9      180.000000        1.180032         4    ;  uncertainty k = 0.128391
        11         1         4        34     9        0.000000       -0.570256         1    ;  uncertainty k = 0.225437
        11         1         4        34     9      180.000000        8.036469         2    ;  uncertainty k = 0.539841
        11         1         4        34     9        0.000000        0.826404         3    ;  uncertainty k = 0.259178
        11         1         4        34     9      180.000000        1.188346         4    ;  uncertainty k = 0.226655
        11        22        23        24     9        0.000000        0.284522         1    ;  uncertainty k = 0.937481
        11        22        23        24     9      180.000000        8.701419         2    ;  uncertainty k = 0.854399
        11        22        23        24     9        0.000000        0.836725         3    ;  uncertainty k = 0.185927
        11        22        23        24     9      180.000000        1.496108         4    ;  uncertainty k = 0.299674
        11        22        23        45     9        0.000000        0.007093         1    ;  uncertainty k = 0.499750
        11        22        23        45     9      180.000000        5.972503         2    ;  uncertainty k = 0.983101
        11        22        23        45     9        0.000000        0.942185         3    ;  uncertainty k = 0.273147
        11        22        23        45     9      180.000000        1.158934         4    ;  uncertainty k = 0.246634
        11        22        27        26     9        0.000000       -0.020825         1    ;  uncertainty k = 0.416438
        11        22        27        26     9      180.000000        7.821353         2    ;  uncertainty k = 0.442940
        11        22        27        26     9        0.000000        1.029527         3    ;  uncertainty k = 0.210996
        11        22        27        26     9      180.000000        1.524187         4    ;  uncertainty k = 0.257372
        11        22        27        28     9        0.000000       -0.506014         1    ;  uncertainty k = 0.475727
        11        22        27        28     9      180.000000        7.636457         2    ;  uncertainty k = 0.878998
        11        22        27        28     9        0.000000        1.159105         3    ;  uncertainty k = 0.332202
        11        22        27        28     9      180.000000        1.400876         4    ;  uncertainty k = 0.254665
        12         3         2        33     9        0.000000        0.121217         1    ;  uncertainty k = 0.290231
        12         3         2        33     9      180.000000        8.392066         2    ;  uncertainty k = 0.237540
        12         3         2        33     9        0.000000        1.008927         3    ;  uncertainty k = 0.147234
        12         3         2        33     9      180.000000        1.403202         4    ;  uncertainty k = 0.296826
        12        13        14        17     9        0.000000        0.066901         1    ;  uncertainty k = 0.283726
        12        13        14        17     9      180.000000       11.710083         2    ;  uncertainty k = 0.353674
        12        13        14        17     9        0.000000        0.182811         3    ;  uncertainty k = 0.720202
        12        13        14        17     9      180.000000        1.109574         4    ;  uncertainty k = 0.481167
        12        13        14        32     9        0.000000       -0.017494         1    ;  uncertainty k = 0.173714
        12        13        14        32     9      180.000000       14.363294         2    ;  uncertainty k = 0.607380
        12        13        14        32     9        0.000000        1.435980         3    ;  uncertainty k = 0.275161
        12        13        14        32     9      180.000000        1.433192         4    ;  uncertainty k = 0.364111
        12        15        16        17     9        0.000000       -0.218676         1    ;  uncertainty k = 0.596580
        12        15        16        17     9      180.000000       12.407068         2    ;  uncertainty k = 0.123681
        12        15        16        17     9        0.000000       -0.906203         3    ;  uncertainty k = 0.489793
        12        15        16        17     9      180.000000        0.843585         4    ;  uncertainty k = 0.186346
        12        15        16        20     9        0.000000        0.184532         1    ;  uncertainty k = 0.185116
        12        15        16        20     9      180.000000       10.416133         2    ;  uncertainty k = 0.432887
        12        15        16        20     9        0.000000        1.008897         3    ;  uncertainty k = 0.263665
        12        15        16        20     9      180.000000        1.312068         4    ;  uncertainty k = 0.198921
        13        12        15        16     9        0.000000       -0.063463         1    ;  uncertainty k = 0.307996
        13        12        15        16     9      180.000000       13.533776         2    ;  uncertainty k = 0.235761
        13        12        15        16     9        0.000000       -0.008027         3    ;  uncertainty k = 0.393785
        13        12        15        16     9      180.000000        0.895806         4    ;  uncertainty k = 0.353740
        13        12        15        39     9        0.000000        0.354951         1    ;  uncertainty k = 0.224427
        13        12        15        39     9      180.000000        7.770927         2    ;  uncertainty k = 0.596011
        13        12        15        39     9        0.000000        1.520536         3    ;  uncertainty k = 0.213424
        13        12        15        39     9      180.000000        1.695354         4    ;  uncertainty k = 0.220433
        13        14        17        16     9        0.000000       -0.083871         1    ;  uncertainty k = 0.503840
        13        14        17        16     9      180.000000        9.632009         2    ;  uncertainty k = 0.772498
        13        14        17        16     9        0.000000       -0.856582         3    ;  uncertainty k = 0.315845
        13        14        17        16     9      180.000000        0.850295         4    ;  uncertainty k = 0.312633
        13        14        17        18     9        0.000000        0.090569         1    ;  uncertainty k = 0.659109
        13        14        17        18     9      180.000000        5.910681         2    ;  uncertainty k = 0.740501
        13        14        17        18     9        0.000000        0.688322         3    ;  uncertainty k = 0.358043
        13        14        17        18     9      180.000000        1.155307         4    ;  uncertainty k = 0.109283
        14        13        12        15     9        0.000000       -0.124870         1    ;  uncertainty k = 0.185994
        14        13        12        15     9      180.000000       10.490445         2    ;  uncertainty k = 0.188903
        14        13        12        15     9        0.000000       -0.268827         3    ;  uncertainty k = 0.429183
        14        13        12        15     9      180.000000        1.001122         4    ;  uncertainty k = 0.192180
        14        17        16        15     9        0.000000       -0.509262         1    ;  uncertainty k = 0.694839
        14        17        16        15     9      180.000000        7.912355         2    ;  uncertainty k = 0.805071
        14        17        16        15     9        0.000000       -0.074098         3    ;  uncertainty k = 0.332409
        14        17        16        15     9      180.000000        0.975926         4    ;  uncertainty k = 0.348077
        14        17        16        20     9        0.000000        0.057519         1    ;  uncertainty k = 0.393033
        14        17        16        20     9      180.000000        8.293086         2    ;  uncertainty k = 0.536501
        14        17        16        20     9        0.000000       -0.358008         3    ;  uncertainty k = 0.387718
        14        17        16        20     9      180.000000        1.323431         4    ;  uncertainty k = 0.385061
        14        17        18        19     9        0.000000        0.735917         1    ;  uncertainty k = 0.566427
        14        17        18        19     9      180.000000        7.020194         2    ;  uncertainty k = 1.120550
        14        17        18        19     9        0.000000        0.462841         3    ;  uncertainty k = 0.720087
        14        17        18        19     9      180.000000        0.956654         4    ;  uncertainty k = 0.190582
        14        17        18        40     9        0.000000        0.508996         1    ;  uncertainty k = 1.358608
        14        17        18        40     9      180.000000        3.743219         2    ;  uncertainty k = 0.612749
        14        17        18        40     9        0.000000        1.394346         3    ;  uncertainty k = 0.353170
        14        17        18        40     9      180.000000        0.085616         4    ;  uncertainty k = 0.181491
        15        12        13        38     9        0.000000        0.273867         1    ;  uncertainty k = 0.127054
        15        12        13        38     9      180.000000        6.508274         2    ;  uncertainty k = 0.505811
        15        12        13        38     9        0.000000        1.412890         3    ;  uncertainty k = 0.220140
        15        12        13        38     9      180.000000        1.578030         4    ;  uncertainty k = 0.240120
        15        16        17        18     9        0.000000       -0.015838         1    ;  uncertainty k = 0.684653
        15        16        17        18     9      180.000000        7.503478         2    ;  uncertainty k = 0.244894
        15        16        17        18     9        0.000000        0.274467         3    ;  uncertainty k = 0.380074
        15        16        17        18     9      180.000000        1.166875         4    ;  uncertainty k = 0.188465
        15        16        20        19     9        0.000000        0.920877         1    ;  uncertainty k = 1.195894
        15        16        20        19     9      180.000000        6.170686         2    ;  uncertainty k = 0.776888
        15        16        20        19     9        0.000000        0.748733         3    ;  uncertainty k = 0.243740
        15        16        20        19     9      180.000000        0.310120         4    ;  uncertainty k = 0.167650
        15        16        20        21     9        0.000000        0.431596         1    ;  uncertainty k = 1.632908
        15        16        20        21     9      180.000000        2.939093         2    ;  uncertainty k = 0.462934
        15        16        20        21     9        0.000000        0.896081         3    ;  uncertainty k = 0.415683
        15        16        20        21     9      180.000000        0.094087         4    ;  uncertainty k = 0.106857
        16        17        14        32     9        0.000000        0.184940         1    ;  uncertainty k = 0.837885
        16        17        14        32     9      180.000000       10.609626         2    ;  uncertainty k = 0.471852
        16        17        14        32     9        0.000000        1.569526         3    ;  uncertainty k = 0.333646
        16        17        14        32     9      180.000000        1.252964         4    ;  uncertainty k = 0.376923
        16        17        18        19     9        0.000000        0.733130         1    ;  uncertainty k = 1.239500
        16        17        18        19     9      180.000000       12.621232         2    ;  uncertainty k = 0.788859
        16        17        18        19     9        0.000000      -10.897133         3    ;  uncertainty k = 2.487921
        16        17        18        19     9      180.000000        1.970433         4    ;  uncertainty k = 0.727953
        16        17        18        40     9        0.000000        0.022479         1    ;  uncertainty k = 0.790315
        16        17        18        40     9      180.000000        7.643811         2    ;  uncertainty k = 0.589215
        16        17        18        40     9        0.000000        1.303849         3    ;  uncertainty k = 0.478283
        16        17        18        40     9      180.000000        0.321472         4    ;  uncertainty k = 0.318614
        16        20        19        18     9        0.000000       -0.221909         1    ;  uncertainty k = 0.335254
        16        20        19        18     9      180.000000       15.692629         2    ;  uncertainty k = 0.601044
        16        20        19        18     9        0.000000       -6.358408         3    ;  uncertainty k = 1.611834
        16        20        19        18     9      180.000000        0.931445         4    ;  uncertainty k = 0.371133
        16        20        19        41     9        0.000000        1.168257         1    ;  uncertainty k = 0.810698
        16        20        19        41     9      180.000000        7.063877         2    ;  uncertainty k = 0.586688
        16        20        19        41     9        0.000000        1.589410         3    ;  uncertainty k = 0.293885
        16        20        19        41     9      180.000000        0.162598         4    ;  uncertainty k = 0.094008
        16        20        21        42     9        0.000000       -0.427794         1    ;  uncertainty k = 0.186443
        16        20        21        42     9      180.000000       -1.332992         2    ;  uncertainty k = 0.180238
        16        20        21        42     9        0.000000        1.093219         3    ;  uncertainty k = 0.079343
        16        20        21        42     9      180.000000        0.217940         4    ;  uncertainty k = 0.044450
        16        20        21        43     9        0.000000       -0.427794         1    ;  uncertainty k = 0.186443
        16        20        21        43     9      180.000000       -1.332992         2    ;  uncertainty k = 0.180238
        16        20        21        43     9        0.000000        1.093219         3    ;  uncertainty k = 0.079343
        16        20        21        43     9      180.000000        0.217940         4    ;  uncertainty k = 0.044450
        16        20        21        44     9        0.000000       -0.427794         1    ;  uncertainty k = 0.186443
        16        20        21        44     9      180.000000       -1.332992         2    ;  uncertainty k = 0.180238
        16        20        21        44     9        0.000000        1.093219         3    ;  uncertainty k = 0.079343
        16        20        21        44     9      180.000000        0.217940         4    ;  uncertainty k = 0.044450
        17        14        13        38     9        0.000000        0.162377         1    ;  uncertainty k = 0.298843
        17        14        13        38     9      180.000000        8.039929         2    ;  uncertainty k = 0.333852
        17        14        13        38     9        0.000000        1.484023         3    ;  uncertainty k = 0.441984
        17        14        13        38     9      180.000000        1.625064         4    ;  uncertainty k = 0.080828
        17        16        15        39     9        0.000000        0.032257         1    ;  uncertainty k = 0.462896
        17        16        15        39     9      180.000000        6.574165         2    ;  uncertainty k = 0.883513
        17        16        15        39     9        0.000000        1.349825         3    ;  uncertainty k = 0.219773
        17        16        15        39     9      180.000000        1.411581         4    ;  uncertainty k = 0.243871
        17        16        20        19     9        0.000000        0.242141         1    ;  uncertainty k = 0.746291
        17        16        20        19     9      180.000000       14.181681         2    ;  uncertainty k = 0.776233
        17        16        20        19     9        0.000000       -6.765288         3    ;  uncertainty k = 1.139163
        17        16        20        19     9      180.000000        0.944031         4    ;  uncertainty k = 0.534126
        17        16        20        21     9        0.000000        2.314604         1    ;  uncertainty k = 0.692869
        17        16        20        21     9      180.000000        5.379126         2    ;  uncertainty k = 0.396614
        17        16        20        21     9        0.000000        1.554689         3    ;  uncertainty k = 0.283005
        17        16        20        21     9      180.000000        0.143053         4    ;  uncertainty k = 0.115179
        17        18        19        20     9        0.000000       -0.294690         1    ;  uncertainty k = 0.290396
        17        18        19        20     9      180.000000       22.788881         2    ;  uncertainty k = 0.268915
        17        18        19        20     9        0.000000       -6.419412         3    ;  uncertainty k = 0.167163
        17        18        19        20     9      180.000000        1.324900         4    ;  uncertainty k = 0.422360
        17        18        19        41     9        0.000000        0.022474         1    ;  uncertainty k = 0.692452
        17        18        19        41     9      180.000000       12.611243         2    ;  uncertainty k = 0.215153
        17        18        19        41     9        0.000000        1.880253         3    ;  uncertainty k = 0.253315
        17        18        19        41     9      180.000000        0.944387         4    ;  uncertainty k = 0.155577
        18        17        14        32     9        0.000000        0.009053         1    ;  uncertainty k = 0.814582
        18        17        14        32     9      180.000000        7.497677         2    ;  uncertainty k = 0.905864
        18        17        14        32     9        0.000000        1.463260         3    ;  uncertainty k = 0.231996
        18        17        14        32     9      180.000000        1.048758         4    ;  uncertainty k = 0.346407
        18        17        16        20     9        0.000000       -0.316720         1    ;  uncertainty k = 0.139776
        18        17        16        20     9      180.000000       12.154371         2    ;  uncertainty k = 0.958205
        18        17        16        20     9        0.000000       -3.284810         3    ;  uncertainty k = 1.026242
        18        17        16        20     9      180.000000        1.541072         4    ;  uncertainty k = 0.754691
        18        19        20        21     9        0.000000        1.368953         1    ;  uncertainty k = 0.837741
        18        19        20        21     9      180.000000        9.004467         2    ;  uncertainty k = 0.354505
        18        19        20        21     9        0.000000        1.878856         3    ;  uncertainty k = 0.452638
        18        19        20        21     9      180.000000       -0.023119         4    ;  uncertainty k = 0.154179
        19        20        21        42     9        0.000000        0.006517         1    ;  uncertainty k = 0.192868
        19        20        21        42     9      180.000000       -1.293886         2    ;  uncertainty k = 0.190493
        19        20        21        42     9        0.000000        0.596127         3    ;  uncertainty k = 0.115813
        19        20        21        42     9      180.000000        0.186905         4    ;  uncertainty k = 0.048784
        19        20        21        43     9        0.000000        0.006517         1    ;  uncertainty k = 0.192868
        19        20        21        43     9      180.000000       -1.293886         2    ;  uncertainty k = 0.190493
        19        20        21        43     9        0.000000        0.596127         3    ;  uncertainty k = 0.115813
        19        20        21        43     9      180.000000        0.186905         4    ;  uncertainty k = 0.048784
        19        20        21        44     9        0.000000        0.006517         1    ;  uncertainty k = 0.192868
        19        20        21        44     9      180.000000       -1.293886         2    ;  uncertainty k = 0.190493
        19        20        21        44     9        0.000000        0.596127         3    ;  uncertainty k = 0.115813
        19        20        21        44     9      180.000000        0.186905         4    ;  uncertainty k = 0.048784
        20        16        15        39     9        0.000000        0.218470         1    ;  uncertainty k = 0.309805
        20        16        15        39     9      180.000000        5.677135         2    ;  uncertainty k = 0.329541
        20        16        15        39     9        0.000000        1.171204         3    ;  uncertainty k = 0.435998
        20        16        15        39     9      180.000000        0.915250         4    ;  uncertainty k = 0.363783
        20        19        18        40     9        0.000000        0.268043         1    ;  uncertainty k = 0.725532
        20        19        18        40     9      180.000000       14.343561         2    ;  uncertainty k = 0.573600
        20        19        18        40     9        0.000000        1.694644         3    ;  uncertainty k = 0.624254
        20        19        18        40     9      180.000000        0.922056         4    ;  uncertainty k = 0.423295
        21        20        19        41     9        0.000000       -0.309602         1    ;  uncertainty k = 0.374866
        21        20        19        41     9      180.000000        2.795954         2    ;  uncertainty k = 0.536088
        21        20        19        41     9        0.000000        1.069721         3    ;  uncertainty k = 0.338651
        21        20        19        41     9      180.000000        0.096722         4    ;  uncertainty k = 0.208597
        22        23        24        25     9        0.000000        0.036596         1    ;  uncertainty k = 0.371494
        22        23        24        25     9      180.000000       16.597051         2    ;  uncertainty k = 0.304805
        22        23        24        25     9        0.000000        0.966622         3    ;  uncertainty k = 0.517836
        22        23        24        25     9      180.000000        1.451098         4    ;  uncertainty k = 0.177715
        22        27        26        25     9        0.000000       -0.265671         1    ;  uncertainty k = 0.419233
        22        27        26        25     9      180.000000       10.460453         2    ;  uncertainty k = 0.389563
        22        27        26        25     9        0.000000       -0.366508         3    ;  uncertainty k = 0.514478
        22        27        26        25     9      180.000000        0.929899         4    ;  uncertainty k = 0.330294
        22        27        26        47     9        0.000000        0.238370         1    ;  uncertainty k = 0.382235
        22        27        26        47     9      180.000000        7.525224         2    ;  uncertainty k = 0.903253
        22        27        26        47     9        0.000000        1.267263         3    ;  uncertainty k = 0.290614
        22        27        26        47     9      180.000000        1.474858         4    ;  uncertainty k = 0.123420
        22        27        28        29     9        0.000000       -5.228558         1    ;  uncertainty k = 2.158654
        22        27        28        29     9      180.000000       -0.861345         2    ;  uncertainty k = 0.805164
        22        27        28        29     9        0.000000        1.201043         3    ;  uncertainty k = 0.425533
        22        27        28        29     9      180.000000       -0.042324         4    ;  uncertainty k = 0.375368
        22        27        28        30     9        0.000000       -5.228558         1    ;  uncertainty k = 2.158654
        22        27        28        30     9      180.000000       -0.861345         2    ;  uncertainty k = 0.805164
        22        27        28        30     9        0.000000        1.201043         3    ;  uncertainty k = 0.425533
        22        27        28        30     9      180.000000       -0.042324         4    ;  uncertainty k = 0.375368
        22        27        28        31     9        0.000000        0.262419         1    ;  uncertainty k = 1.833671
        22        27        28        31     9      180.000000       -1.026928         2    ;  uncertainty k = 0.798424
        22        27        28        31     9        0.000000        0.956202         3    ;  uncertainty k = 0.348086
        22        27        28        31     9      180.000000        0.178350         4    ;  uncertainty k = 0.195567
        23        22        11        37     9        0.000000        0.917546         1    ;  uncertainty k = 1.463601
        23        22        11        37     9      180.000000        4.182459         2    ;  uncertainty k = 0.765145
        23        22        11        37     9        0.000000       -0.106076         3    ;  uncertainty k = 0.498484
        23        22        11        37     9      180.000000       -0.220151         4    ;  uncertainty k = 0.253379
        23        22        27        26     9        0.000000       -0.438836         1    ;  uncertainty k = 0.840317
        23        22        27        26     9      180.000000        4.610451         2    ;  uncertainty k = 1.641700
        23        22        27        26     9        0.000000        0.358135         3    ;  uncertainty k = 0.323564
        23        22        27        26     9      180.000000        1.351096         4    ;  uncertainty k = 0.315699
        23        22        27        28     9        0.000000        0.917644         1    ;  uncertainty k = 0.634888
        23        22        27        28     9      180.000000        4.793052         2    ;  uncertainty k = 1.087369
        23        22        27        28     9        0.000000        1.108848         3    ;  uncertainty k = 0.290817
        23        22        27        28     9      180.000000        1.561542         4    ;  uncertainty k = 0.342191
        23        24        25        26     9        0.000000       -0.485016         1    ;  uncertainty k = 0.425215
        23        24        25        26     9      180.000000       15.189731         2    ;  uncertainty k = 0.461239
        23        24        25        26     9        0.000000        1.127628         3    ;  uncertainty k = 0.661679
        23        24        25        26     9      180.000000        1.285431         4    ;  uncertainty k = 0.097277
        23        24        25        46     9        0.000000        0.172532         1    ;  uncertainty k = 0.566096
        23        24        25        46     9      180.000000       15.445790         2    ;  uncertainty k = 0.425751
        23        24        25        46     9        0.000000        2.152702         3    ;  uncertainty k = 0.508048
        23        24        25        46     9      180.000000        1.381411         4    ;  uncertainty k = 0.359273
        24        23        22        27     9        0.000000       -0.562844         1    ;  uncertainty k = 0.540741
        24        23        22        27     9      180.000000        6.748516         2    ;  uncertainty k = 1.268444
        24        23        22        27     9        0.000000        0.077078         3    ;  uncertainty k = 0.370452
        24        23        22        27     9      180.000000        1.216829         4    ;  uncertainty k = 0.295894
        24        25        26        27     9        0.000000       -0.252470         1    ;  uncertainty k = 0.431541
        24        25        26        27     9      180.000000       13.556321         2    ;  uncertainty k = 0.574918
        24        25        26        27     9        0.000000       -1.106330         3    ;  uncertainty k = 1.113054
        24        25        26        27     9      180.000000        0.952273         4    ;  uncertainty k = 0.151718
        24        25        26        47     9        0.000000       -0.068096         1    ;  uncertainty k = 0.262319
        24        25        26        47     9      180.000000        9.165641         2    ;  uncertainty k = 0.726880
        24        25        26        47     9        0.000000        0.979809         3    ;  uncertainty k = 0.350348
        24        25        26        47     9      180.000000        1.652653         4    ;  uncertainty k = 0.185846
        25        24        23        45     9        0.000000        0.508068         1    ;  uncertainty k = 0.686768
        25        24        23        45     9      180.000000       16.706316         2    ;  uncertainty k = 0.583289
        25        24        23        45     9        0.000000        2.361241         3    ;  uncertainty k = 0.235965
        25        24        23        45     9      180.000000        1.517602         4    ;  uncertainty k = 0.508263
        25        26        27        28     9        0.000000        0.601785         1    ;  uncertainty k = 0.840720
        25        26        27        28     9      180.000000        9.254868         2    ;  uncertainty k = 0.664789
        25        26        27        28     9        0.000000        1.560648         3    ;  uncertainty k = 0.502423
        25        26        27        28     9      180.000000        1.838812         4    ;  uncertainty k = 0.146620
        26        27        28        29     9        0.000000       -0.492328         1    ;  uncertainty k = 1.108207
        26        27        28        29     9      180.000000        0.135604         2    ;  uncertainty k = 0.455038
        26        27        28        29     9        0.000000        0.177825         3    ;  uncertainty k = 0.237275
        26        27        28        29     9      180.000000        0.012963         4    ;  uncertainty k = 0.209193
        26        27        28        30     9        0.000000       -0.492328         1    ;  uncertainty k = 1.108207
        26        27        28        30     9      180.000000        0.135604         2    ;  uncertainty k = 0.455038
        26        27        28        30     9        0.000000        0.177825         3    ;  uncertainty k = 0.237275
        26        27        28        30     9      180.000000        0.012963         4    ;  uncertainty k = 0.209193
        26        27        28        31     9        0.000000        3.406873         1    ;  uncertainty k = 1.708515
        26        27        28        31     9      180.000000        0.171418         2    ;  uncertainty k = 0.576991
        26        27        28        31     9        0.000000       -0.078308         3    ;  uncertainty k = 0.399031
        26        27        28        31     9      180.000000        0.444416         4    ;  uncertainty k = 0.155672
        27        22        11        37     9        0.000000        9.262102         1    ;  uncertainty k = 0.773179
        27        22        11        37     9      180.000000        3.945832         2    ;  uncertainty k = 0.536443
        27        22        11        37     9        0.000000        0.752572         3    ;  uncertainty k = 0.273739
        27        22        11        37     9      180.000000       -0.119638         4    ;  uncertainty k = 0.176171
        27        22        23        45     9        0.000000        0.000816         1    ;  uncertainty k = 1.384590
        27        22        23        45     9      180.000000        4.685089         2    ;  uncertainty k = 1.110640
        27        22        23        45     9        0.000000        1.104676         3    ;  uncertainty k = 0.238511
        27        22        23        45     9      180.000000        1.089443         4    ;  uncertainty k = 0.205054
        27        26        25        46     9        0.000000       -0.148524         1    ;  uncertainty k = 0.589762
        27        26        25        46     9      180.000000        6.244191         2    ;  uncertainty k = 0.249577
        27        26        25        46     9        0.000000        1.014104         3    ;  uncertainty k = 0.237437
        27        26        25        46     9      180.000000        1.497615         4    ;  uncertainty k = 0.181166
        27        28        31        48     9        0.000000        2.345205         1    ;  uncertainty k = 0.643494
        27        28        31        48     9      180.000000       -2.433988         2    ;  uncertainty k = 0.375725
        27        28        31        48     9        0.000000        0.170343         3    ;  uncertainty k = 0.101207
        27        28        31        48     9      180.000000        0.001304         4    ;  uncertainty k = 0.149206
        27        28        31        49     9        0.000000        2.345205         1    ;  uncertainty k = 0.643494
        27        28        31        49     9      180.000000       -2.433988         2    ;  uncertainty k = 0.375725
        27        28        31        49     9        0.000000        0.170343         3    ;  uncertainty k = 0.101207
        27        28        31        49     9      180.000000        0.001304         4    ;  uncertainty k = 0.149206
        27        28        31        50     9        0.000000        2.345205         1    ;  uncertainty k = 0.643494
        27        28        31        50     9      180.000000       -2.433988         2    ;  uncertainty k = 0.375725
        27        28        31        50     9        0.000000        0.170343         3    ;  uncertainty k = 0.101207
        27        28        31        50     9      180.000000        0.001304         4    ;  uncertainty k = 0.149206
        28        27        26        47     9        0.000000       -0.424036         1    ;  uncertainty k = 0.616072
        28        27        26        47     9      180.000000        7.010376         2    ;  uncertainty k = 0.550571
        28        27        26        47     9        0.000000        0.781435         3    ;  uncertainty k = 0.169299
        28        27        26        47     9      180.000000        1.269235         4    ;  uncertainty k = 0.186788
        29        28        31        48     9        0.000000       -0.057641         1    ;  uncertainty k = 0.603700
        29        28        31        48     9      180.000000       -0.366450         2    ;  uncertainty k = 0.288160
        29        28        31        48     9        0.000000        0.801561         3    ;  uncertainty k = 0.057212
        29        28        31        48     9      180.000000        0.039212         4    ;  uncertainty k = 0.101280
        29        28        31        49     9        0.000000       -0.057641         1    ;  uncertainty k = 0.603700
        29        28        31        49     9      180.000000       -0.366450         2    ;  uncertainty k = 0.288160
        29        28        31        49     9        0.000000        0.801561         3    ;  uncertainty k = 0.057212
        29        28        31        49     9      180.000000        0.039212         4    ;  uncertainty k = 0.101280
        29        28        31        50     9        0.000000       -0.057641         1    ;  uncertainty k = 0.603700
        29        28        31        50     9      180.000000       -0.366450         2    ;  uncertainty k = 0.288160
        29        28        31        50     9        0.000000        0.801561         3    ;  uncertainty k = 0.057212
        29        28        31        50     9      180.000000        0.039212         4    ;  uncertainty k = 0.101280
        30        28        31        48     9        0.000000       -0.057641         1    ;  uncertainty k = 0.603700
        30        28        31        48     9      180.000000       -0.366450         2    ;  uncertainty k = 0.288160
        30        28        31        48     9        0.000000        0.801561         3    ;  uncertainty k = 0.057212
        30        28        31        48     9      180.000000        0.039212         4    ;  uncertainty k = 0.101280
        30        28        31        49     9        0.000000       -0.057641         1    ;  uncertainty k = 0.603700
        30        28        31        49     9      180.000000       -0.366450         2    ;  uncertainty k = 0.288160
        30        28        31        49     9        0.000000        0.801561         3    ;  uncertainty k = 0.057212
        30        28        31        49     9      180.000000        0.039212         4    ;  uncertainty k = 0.101280
        30        28        31        50     9        0.000000       -0.057641         1    ;  uncertainty k = 0.603700
        30        28        31        50     9      180.000000       -0.366450         2    ;  uncertainty k = 0.288160
        30        28        31        50     9        0.000000        0.801561         3    ;  uncertainty k = 0.057212
        30        28        31        50     9      180.000000        0.039212         4    ;  uncertainty k = 0.101280
        32        14        13        38     9        0.000000       -0.387443         1    ;  uncertainty k = 0.194218
        32        14        13        38     9      180.000000       10.499776         2    ;  uncertainty k = 0.429271
        32        14        13        38     9        0.000000        1.032162         3    ;  uncertainty k = 0.154474
        32        14        13        38     9      180.000000        1.126205         4    ;  uncertainty k = 0.295307
        35         8         9        36     9        0.000000       -0.152652         1    ;  uncertainty k = 0.805688
        35         8         9        36     9      180.000000        5.398109         2    ;  uncertainty k = 0.723628
        35         8         9        36     9        0.000000        0.147471         3    ;  uncertainty k = 0.248173
        35         8         9        36     9      180.000000        0.216442         4    ;  uncertainty k = 0.153410
        40        18        19        41     9        0.000000       -0.058497         1    ;  uncertainty k = 0.360472
        40        18        19        41     9      180.000000        5.838955         2    ;  uncertainty k = 0.745105
        40        18        19        41     9        0.000000        1.139357         3    ;  uncertainty k = 0.420200
        40        18        19        41     9      180.000000        0.332488         4    ;  uncertainty k = 0.136193
        46        25        26        47     9        0.000000       -0.307962         1    ;  uncertainty k = 0.440104
        46        25        26        47     9      180.000000        6.502709         2    ;  uncertainty k = 0.379417
        46        25        26        47     9        0.000000       -0.130867         3    ;  uncertainty k = 0.246878
        46        25        26        47     9      180.000000        0.283979         4    ;  uncertainty k = 0.141773

[ dihedrals ] ; impropers
;       ai        aj        ak        al funct           phase               k        pn
         1         2         4        11     4      180.000000       20.686970         2    ;  uncertainty k = 0.060627
         1         4        11         2     4      180.000000       20.686970         2    ;  uncertainty k = 0.060627
         1        11         2         4     4      180.000000       20.686970         2    ;  uncertainty k = 0.060627
         2         1         3        33     4      180.000000        3.079896         2    ;  uncertainty k = 0.378683
         2         3        33         1     4      180.000000        3.079896         2    ;  uncertainty k = 0.378683
         2        33         1         3     4      180.000000        3.079896         2    ;  uncertainty k = 0.378683
         3         2         6        12     4      180.000000       17.555721         2    ;  uncertainty k = 0.093950
         3         6        12         2     4      180.000000       17.555721         2    ;  uncertainty k = 0.093950
         3        12         2         6     4      180.000000       17.555721         2    ;  uncertainty k = 0.093950
         4         1         5        34     4      180.000000        2.538906         2    ;  uncertainty k = 0.373105
         4         5        34         1     4      180.000000        2.538906         2    ;  uncertainty k = 0.373105
         4        34         1         5     4      180.000000        2.538906         2    ;  uncertainty k = 0.373105
         5         4         6        10     4      180.000000       18.442492         2    ;  uncertainty k = 0.055238
         5         6        10         4     4      180.000000       18.442492         2    ;  uncertainty k = 0.055238
         5        10         4         6     4      180.000000       18.442492         2    ;  uncertainty k = 0.055238
         6         3         5         7     4      180.000000       16.630972         2    ;  uncertainty k = 0.082829
         6         5         7         3     4      180.000000       16.630972         2    ;  uncertainty k = 0.082829
         6         7         3         5     4      180.000000       16.630972         2    ;  uncertainty k = 0.082829
         8         7         9        35     4      180.000000       12.058352         2    ;  uncertainty k = 0.155869
         8         9        35         7     4      180.000000       12.058352         2    ;  uncertainty k = 0.155869
         8        35         7         9     4      180.000000       12.058352         2    ;  uncertainty k = 0.155869
         9         8        10        36     4      180.000000       11.948848         2    ;  uncertainty k = 0.101429
         9        10        36         8     4      180.000000       11.948848         2    ;  uncertainty k = 0.101429
         9        36         8        10     4      180.000000       11.948848         2    ;  uncertainty k = 0.101429
        11         1        22        37     4      180.000000        1.379952         2    ;  uncertainty k = 1.192013
        11        22        37         1     4      180.000000        1.379952         2    ;  uncertainty k = 1.192013
        11        37         1        22     4      180.000000        1.379952         2    ;  uncertainty k = 1.192013
        12         3        13        15     4      180.000000       13.395501         2    ;  uncertainty k = 0.148376
        12        13        15         3     4      180.000000       13.395501         2    ;  uncertainty k = 0.148376
        12        15         3        13     4      180.000000       13.395501         2    ;  uncertainty k = 0.148376
        13        12        14        38     4      180.000000        1.566018         2    ;  uncertainty k = 0.130210
        13        14        38        12     4      180.000000        1.566018         2    ;  uncertainty k = 0.130210
        13        38        12        14     4      180.000000        1.566018         2    ;  uncertainty k = 0.130210
        14        13        17        32     4      180.000000       14.741211         2    ;  uncertainty k = 0.086473
        14        17        32        13     4      180.000000       14.741211         2    ;  uncertainty k = 0.086473
        14        32        13        17     4      180.000000       14.741211         2    ;  uncertainty k = 0.086473
        15        12        16        39     4      180.000000        2.501120         2    ;  uncertainty k = 0.285040
        15        16        39        12     4      180.000000        2.501120         2    ;  uncertainty k = 0.285040
        15        39        12        16     4      180.000000        2.501120         2    ;  uncertainty k = 0.285040
        16        15        17        20     4      180.000000        1.076195         2    ;  uncertainty k = 0.724034
        16        17        20        15     4      180.000000        1.076195         2    ;  uncertainty k = 0.724034
        16        20        15        17     4      180.000000        1.076195         2    ;  uncertainty k = 0.724034
        18        17        19        40     4      180.000000        0.066053         2    ;  uncertainty k = 0.147700
        18        19        40        17     4      180.000000        0.066053         2    ;  uncertainty k = 0.147700
        18        40        17        19     4      180.000000        0.066053         2    ;  uncertainty k = 0.147700
        19        18        20        41     4      180.000000        0.801878         2    ;  uncertainty k = 0.380076
        19        20        41        18     4      180.000000        0.801878         2    ;  uncertainty k = 0.380076
        19        41        18        20     4      180.000000        0.801878         2    ;  uncertainty k = 0.380076
        22        11        23        27     4      180.000000       22.010767         2    ;  uncertainty k = 0.077536
        22        23        27        11     4      180.000000       22.010767         2    ;  uncertainty k = 0.077536
        22        27        11        23     4      180.000000       22.010767         2    ;  uncertainty k = 0.077536
        23        22        24        45     4      180.000000       10.900442         2    ;  uncertainty k = 0.192114
        23        24        45        22     4      180.000000       10.900442         2    ;  uncertainty k = 0.192114
        23        45        22        24     4      180.000000       10.900442         2    ;  uncertainty k = 0.192114
        25        24        26        46     4      180.000000       11.385376         2    ;  uncertainty k = 0.107036
        25        26        46        24     4      180.000000       11.385376         2    ;  uncertainty k = 0.107036
        25        46        24        26     4      180.000000       11.385376         2    ;  uncertainty k = 0.107036
        26        25        27        47     4      180.000000        4.322236         2    ;  uncertainty k = 0.262313
        26        27        47        25     4      180.000000        4.322236         2    ;  uncertainty k = 0.262313
        26        47        25        27     4      180.000000        4.322236         2    ;  uncertainty k = 0.262313
        27        22        26        28     4      180.000000        5.945007         2    ;  uncertainty k = 0.459977
        27        26        28        22     4      180.000000        5.945007         2    ;  uncertainty k = 0.459977
        27        28        22        26     4      180.000000        5.945007         2    ;  uncertainty k = 0.459977

[ pairs ]
;       ai        aj funct
         1         6     1
         1        10     1
         1        12     1
         1        23     1
         1        27     1
         2         5     1
         2         7     1
         2        13     1
         2        15     1
         2        22     1
         2        34     1
         2        37     1
         3         4     1
         3         8     1
         3        10     1
         3        11     1
         3        14     1
         3        16     1
         3        38     1
         3        39     1
         4         7     1
         4         9     1
         4        22     1
         4        33     1
         4        37     1
         5         8     1
         5        11     1
         5        12     1
         5        36     1
         6         9     1
         6        13     1
         6        15     1
         6        33     1
         6        34     1
         6        35     1
         7        10     1
         7        12     1
         7        36     1
        10        34     1
        10        35     1
        11        24     1
        11        26     1
        11        28     1
        11        33     1
        11        34     1
        11        45     1
        12        17     1
        12        20     1
        12        32     1
        12        33     1
        13        16     1
        13        18     1
        13        39     1
        14        15     1
        14        19     1
        14        20     1
        14        40     1
        15        18     1
        15        19     1
        15        21     1
        15        38     1
        16        32     1
        16        40     1
        16        41     1
        16        42     1
        16        43     1
        16        44     1
        17        21     1
        17        38     1
        17        39     1
        17        41     1
        18        21     1
        18        32     1
        19        42     1
        19        43     1
        19        44     1
        20        39     1
        20        40     1
        21        41     1
        22        25     1
        22        29     1
        22        30     1
        22        31     1
        22        47     1
        23        26     1
        23        28     1
        23        37     1
        23        46     1
        24        27     1
        24        47     1
        25        28     1
        25        45     1
        26        29     1
        26        30     1
        26        31     1
        27        37     1
        27        45     1
        27        46     1
        27        48     1
        27        49     1
        27        50     1
        28        47     1
        29        48     1
        29        49     1
        29        50     1
        30        48     1
        30        49     1
        30        50     1
        32        38     1
        35        36     1
        40        41     1
        46        47     1
