; ITP file created by ByteFF-joint-25, 2026-02-17 09:29:13.454552

[ atomtypes ]
;name           bonded.type        at.num        mass        charge   ptype           sigma         epsilon
 n0bf                                   7      0.0000       0.00000       A     3.38414e-01     3.93827e-01    ;  uncertainty sigma = 0.000003, epsilon = 0.000862
 n1bf                                   7      0.0000       0.00000       A     3.38415e-01     3.93854e-01    ;  uncertainty sigma = 0.000010, epsilon = 0.001065
 c2bf                                   6      0.0000       0.00000       A     3.31531e-01     4.13177e-01    ;  uncertainty sigma = 0.000013, epsilon = 0.000483
 c3bf                                   6      0.0000       0.00000       A     3.31530e-01     4.13238e-01    ;  uncertainty sigma = 0.000010, epsilon = 0.000599
 c4bf                                   6      0.0000       0.00000       A     3.31519e-01     4.13020e-01    ;  uncertainty sigma = 0.000010, epsilon = 0.001115
 c5bf                                   6      0.0000       0.00000       A     3.31516e-01     4.13470e-01    ;  uncertainty sigma = 0.000011, epsilon = 0.000986
 c6bf                                   6      0.0000       0.00000       A     3.31509e-01     4.13539e-01    ;  uncertainty sigma = 0.000009, epsilon = 0.000465
 c7bf                                   6      0.0000       0.00000       A     3.31538e-01     4.13732e-01    ;  uncertainty sigma = 0.000012, epsilon = 0.001772
 c8bf                                   6      0.0000       0.00000       A     3.31496e-01     4.13470e-01    ;  uncertainty sigma = 0.000006, epsilon = 0.000742
 c9bf                                   6      0.0000       0.00000       A     3.31488e-01     4.12630e-01    ;  uncertainty sigma = 0.000012, epsilon = 0.000891
 c10bf                                  6      0.0000       0.00000       A     3.31497e-01     4.13000e-01    ;  uncertainty sigma = 0.000018, epsilon = 0.000978
 n11bf                                  7      0.0000       0.00000       A     3.27956e-01     6.47518e-01    ;  uncertainty sigma = 0.000036, epsilon = 0.003822
 c12bf                                  6      0.0000       0.00000       A     3.31517e-01     4.13376e-01    ;  uncertainty sigma = 0.000005, epsilon = 0.000487
 c13bf                                  6      0.0000       0.00000       A     3.31520e-01     4.13481e-01    ;  uncertainty sigma = 0.000003, epsilon = 0.000874
 c14bf                                  6      0.0000       0.00000       A     3.31511e-01     4.13208e-01    ;  uncertainty sigma = 0.000009, epsilon = 0.000510
 c15bf                                  6      0.0000       0.00000       A     3.31543e-01     4.13206e-01    ;  uncertainty sigma = 0.000011, epsilon = 0.000919
 c16bf                                  6      0.0000       0.00000       A     3.31530e-01     4.12649e-01    ;  uncertainty sigma = 0.000008, epsilon = 0.000597
 o17bf                                  8      0.0000       0.00000       A     3.15602e-01     3.03321e-01    ;  uncertainty sigma = 0.000009, epsilon = 0.001399
 c18bf                                  6      0.0000       0.00000       A     3.39789e-01     4.51128e-01    ;  uncertainty sigma = 0.000005, epsilon = 0.001115
 c19bf                                  6      0.0000       0.00000       A     3.39788e-01     4.50658e-01    ;  uncertainty sigma = 0.000017, epsilon = 0.000968
 c20bf                                  6      0.0000       0.00000       A     3.31502e-01     4.13462e-01    ;  uncertainty sigma = 0.000018, epsilon = 0.002180
 c21bf                                  6      0.0000       0.00000       A     3.31532e-01     4.13419e-01    ;  uncertainty sigma = 0.000012, epsilon = 0.000931
 n22bf                                  7      0.0000       0.00000       A     3.38420e-01     3.93806e-01    ;  uncertainty sigma = 0.000013, epsilon = 0.000881
 c23bf                                  6      0.0000       0.00000       A     3.31513e-01     4.13350e-01    ;  uncertainty sigma = 0.000011, epsilon = 0.000728
 c24bf                                  6      0.0000       0.00000       A     3.31518e-01     4.13124e-01    ;  uncertainty sigma = 0.000015, epsilon = 0.000361
 c25bf                                  6      0.0000       0.00000       A     3.31501e-01     4.13078e-01    ;  uncertainty sigma = 0.000025, epsilon = 0.001598
 s26bf                                 16      0.0000       0.00000       A     4.05775e-01     2.56504e-01    ;  uncertainty sigma = 0.000009, epsilon = 0.002944
 o27bf                                  8      0.0000       0.00000       A     3.04808e-01     6.12058e-01    ;  uncertainty sigma = 0.000011, epsilon = 0.001075
 o28bf                                  8      0.0000       0.00000       A     3.04808e-01     6.12058e-01    ;  uncertainty sigma = 0.000011, epsilon = 0.001075
 c29bf                                  6      0.0000       0.00000       A     3.39790e-01     4.50653e-01    ;  uncertainty sigma = 0.000003, epsilon = 0.000848
 h30bf                                  1      0.0000       0.00000       A     2.53628e-01     6.69334e-02    ;  uncertainty sigma = 0.000020, epsilon = 0.000763
 h31bf                                  1      0.0000       0.00000       A     2.53628e-01     6.69334e-02    ;  uncertainty sigma = 0.000020, epsilon = 0.000763
 h32bf                                  1      0.0000       0.00000       A     2.62540e-01     6.71221e-02    ;  uncertainty sigma = 0.000022, epsilon = 0.000645
 h33bf                                  1      0.0000       0.00000       A     2.62566e-01     6.71159e-02    ;  uncertainty sigma = 0.000015, epsilon = 0.000400
 h34bf                                  1      0.0000       0.00000       A     1.10720e-01     4.14040e-02    ;  uncertainty sigma = 0.000106, epsilon = 0.001477
 h35bf                                  1      0.0000       0.00000       A     2.62565e-01     6.71246e-02    ;  uncertainty sigma = 0.000010, epsilon = 0.000560
 h36bf                                  1      0.0000       0.00000       A     2.62560e-01     6.69144e-02    ;  uncertainty sigma = 0.000007, epsilon = 0.000606
 h37bf                                  1      0.0000       0.00000       A     2.62568e-01     6.72441e-02    ;  uncertainty sigma = 0.000024, epsilon = 0.000434
 h38bf                                  1      0.0000       0.00000       A     2.42196e-01     8.66944e-02    ;  uncertainty sigma = 0.000018, epsilon = 0.000727
 h39bf                                  1      0.0000       0.00000       A     2.42196e-01     8.66944e-02    ;  uncertainty sigma = 0.000018, epsilon = 0.000727
 h40bf                                  1      0.0000       0.00000       A     2.60034e-01     8.66218e-02    ;  uncertainty sigma = 0.000003, epsilon = 0.000254
 h41bf                                  1      0.0000       0.00000       A     2.60034e-01     8.66218e-02    ;  uncertainty sigma = 0.000003, epsilon = 0.000254
 h42bf                                  1      0.0000       0.00000       A     2.53624e-01     6.69778e-02    ;  uncertainty sigma = 0.000049, epsilon = 0.000568
 h43bf                                  1      0.0000       0.00000       A     2.53633e-01     6.70304e-02    ;  uncertainty sigma = 0.000014, epsilon = 0.000494
 h44bf                                  1      0.0000       0.00000       A     2.62533e-01     6.70950e-02    ;  uncertainty sigma = 0.000019, epsilon = 0.000754
 h45bf                                  1      0.0000       0.00000       A     2.42167e-01     8.68275e-02    ;  uncertainty sigma = 0.000012, epsilon = 0.000620
 h46bf                                  1      0.0000       0.00000       A     2.42167e-01     8.68275e-02    ;  uncertainty sigma = 0.000012, epsilon = 0.000620
 h47bf                                  1      0.0000       0.00000       A     2.42167e-01     8.68275e-02    ;  uncertainty sigma = 0.000012, epsilon = 0.000620

[ moleculetype ]
;name             nrexcl
 MOL                   3

[ atoms ]
;       nr            type      resi   res      atom      cgnr      charge          mass ; qtot
         1            n0bf         1   UNL        n0         1    -0.62862       14.0070 ; qtot   -0.629
         2            n1bf         1   UNL        n1         2    -0.61815       14.0070 ; qtot   -1.247
         3            c2bf         1   UNL        c2         3     0.29560       12.0110 ; qtot   -0.951
         4            c3bf         1   UNL        c3         4     0.29621       12.0110 ; qtot   -0.655
         5            c4bf         1   UNL        c4         5     0.27576       12.0110 ; qtot   -0.379
         6            c5bf         1   UNL        c5         6     0.32361       12.0110 ; qtot   -0.056
         7            c6bf         1   UNL        c6         7    -0.22162       12.0110 ; qtot   -0.277
         8            c7bf         1   UNL        c7         8     0.17400       12.0110 ; qtot   -0.103
         9            c8bf         1   UNL        c8         9    -0.15997       12.0110 ; qtot   -0.263
        10            c9bf         1   UNL        c9        10    -0.02364       12.0110 ; qtot   -0.287
        11           c10bf         1   UNL       c10        11    -0.07287       12.0110 ; qtot   -0.360
        12           n11bf         1   UNL       n11        12    -0.64735       14.0070 ; qtot   -1.007
        13           c12bf         1   UNL       c12        13    -0.07776       12.0110 ; qtot   -1.085
        14           c13bf         1   UNL       c13        14    -0.15933       12.0110 ; qtot   -1.244
        15           c14bf         1   UNL       c14        15    -0.05557       12.0110 ; qtot   -1.300
        16           c15bf         1   UNL       c15        16    -0.17169       12.0110 ; qtot   -1.471
        17           c16bf         1   UNL       c16        17     0.12716       12.0110 ; qtot   -1.344
        18           o17bf         1   UNL       o17        18    -0.31626       15.9990 ; qtot   -1.660
        19           c18bf         1   UNL       c18        19     0.12099       12.0110 ; qtot   -1.540
        20           c19bf         1   UNL       c19        20    -0.05069       12.0110 ; qtot   -1.590
        21           c20bf         1   UNL       c20        21     0.15628       12.0110 ; qtot   -1.434
        22           c21bf         1   UNL       c21        22     0.33325       12.0110 ; qtot   -1.101
        23           n22bf         1   UNL       n22        23    -0.60182       14.0070 ; qtot   -1.702
        24           c23bf         1   UNL       c23        24     0.35581       12.0110 ; qtot   -1.347
        25           c24bf         1   UNL       c24        25    -0.13704       12.0110 ; qtot   -1.484
        26           c25bf         1   UNL       c25        26    -0.26398       12.0110 ; qtot   -1.748
        27           s26bf         1   UNL       s26        27     1.01656       32.0670 ; qtot   -0.731
        28           o27bf         1   UNL       o27        28    -0.58472       15.9990 ; qtot   -1.316
        29           o28bf         1   UNL       o28        29    -0.58472       15.9990 ; qtot   -1.901
        30           c29bf         1   UNL       c29        30    -0.18352       12.0110 ; qtot   -2.084
        31           h30bf         1   UNL       h30        31     0.03380        1.0080 ; qtot   -2.050
        32           h31bf         1   UNL       h31        32     0.03331        1.0080 ; qtot   -2.017
        33           h32bf         1   UNL       h32        33     0.15776        1.0080 ; qtot   -1.859
        34           h33bf         1   UNL       h33        34     0.14719        1.0080 ; qtot   -1.712
        35           h34bf         1   UNL       h34        35     0.47844        1.0080 ; qtot   -1.234
        36           h35bf         1   UNL       h35        36     0.14209        1.0080 ; qtot   -1.092
        37           h36bf         1   UNL       h36        37     0.14948        1.0080 ; qtot   -0.942
        38           h37bf         1   UNL       h37        38     0.14304        1.0080 ; qtot   -0.799
        39           h38bf         1   UNL       h38        39     0.05852        1.0080 ; qtot   -0.740
        40           h39bf         1   UNL       h39        40     0.05852        1.0080 ; qtot   -0.682
        41           h40bf         1   UNL       h40        41     0.06429        1.0080 ; qtot   -0.618
        42           h41bf         1   UNL       h41        42     0.06429        1.0080 ; qtot   -0.553
        43           h42bf         1   UNL       h42        43     0.03967        1.0080 ; qtot   -0.514
        44           h43bf         1   UNL       h43        44     0.03424        1.0080 ; qtot   -0.479
        45           h44bf         1   UNL       h44        45     0.16807        1.0080 ; qtot   -0.311
        46           h45bf         1   UNL       h45        46     0.10378        1.0080 ; qtot   -0.208
        47           h46bf         1   UNL       h46        47     0.10378        1.0080 ; qtot   -0.104
        48           h47bf         1   UNL       h47        48     0.10382        1.0080 ; qtot   -0.000

[ bonds ]
;       ai        aj funct               r               k
         1         4     1        0.131606   448635.018164    ;  uncertainty r = 0.000067, k = 6.059825
         1         6     1        0.136382   355171.598340    ;  uncertainty r = 0.000057, k = 8.738537
         2         3     1        0.131584   437137.956152    ;  uncertainty r = 0.000061, k = 11.801020
         2         5     1        0.135767   353109.910889    ;  uncertainty r = 0.000088, k = 12.675257
         3         4     1        0.141378   325245.374902    ;  uncertainty r = 0.000067, k = 16.241050
         3        31     1        0.109180   341408.015723    ;  uncertainty r = 0.000031, k = 1.111515
         4        32     1        0.109175   341608.201123    ;  uncertainty r = 0.000026, k = 2.358967
         5         6     1        0.142995   298655.574805    ;  uncertainty r = 0.000072, k = 15.498955
         5        10     1        0.143092   310030.620508    ;  uncertainty r = 0.000114, k = 17.661693
         6         7     1        0.141431   396079.468311    ;  uncertainty r = 0.000094, k = 15.205662
         7         8     1        0.138770   381943.478027    ;  uncertainty r = 0.000111, k = 9.337689
         7        33     1        0.108811   340366.765625    ;  uncertainty r = 0.000031, k = 1.855832
         8         9     1        0.142004   351951.266699    ;  uncertainty r = 0.000218, k = 13.007842
         8        12     1        0.141414   345942.921143    ;  uncertainty r = 0.000097, k = 12.910238
         9        10     1        0.137996   347522.621191    ;  uncertainty r = 0.000140, k = 16.794309
         9        34     1        0.108883   338510.243311    ;  uncertainty r = 0.000020, k = 3.739130
        10        11     1        0.148122   282177.116553    ;  uncertainty r = 0.000079, k = 12.887769
        11        13     1        0.140573   339941.904736    ;  uncertainty r = 0.000078, k = 2.961486
        11        15     1        0.140629   343087.744629    ;  uncertainty r = 0.000113, k = 6.632269
        12        21     1        0.139103   334487.356934    ;  uncertainty r = 0.000264, k = 9.014077
        12        35     1        0.101492   409720.242969    ;  uncertainty r = 0.000088, k = 5.983700
        13        14     1        0.139727   368115.184375    ;  uncertainty r = 0.000066, k = 2.688655
        13        36     1        0.108708   333952.814160    ;  uncertainty r = 0.000022, k = 1.740617
        14        17     1        0.139089   370147.606299    ;  uncertainty r = 0.000039, k = 3.317424
        14        37     1        0.108821   337683.734766    ;  uncertainty r = 0.000025, k = 1.840887
        15        16     1        0.138677   370193.445410    ;  uncertainty r = 0.000062, k = 6.402456
        15        38     1        0.108836   334550.688965    ;  uncertainty r = 0.000024, k = 1.552755
        16        17     1        0.139799   368292.258691    ;  uncertainty r = 0.000037, k = 14.400063
        16        20     1        0.151393   285260.799121    ;  uncertainty r = 0.000028, k = 13.170208
        17        18     1        0.137181   348187.198926    ;  uncertainty r = 0.000061, k = 9.182981
        18        19     1        0.145766   220721.271191    ;  uncertainty r = 0.000047, k = 9.655630
        19        20     1        0.154810   236331.697559    ;  uncertainty r = 0.000054, k = 10.389868
        19        39     1        0.109419   307653.115625    ;  uncertainty r = 0.000033, k = 3.340529
        19        40     1        0.109419   307653.115625    ;  uncertainty r = 0.000033, k = 3.340529
        20        41     1        0.109533   307437.429199    ;  uncertainty r = 0.000017, k = 4.142315
        20        42     1        0.109533   307437.429199    ;  uncertainty r = 0.000017, k = 4.142315
        21        22     1        0.140927   340447.871484    ;  uncertainty r = 0.000113, k = 16.488682
        21        26     1        0.141356   348414.581348    ;  uncertainty r = 0.000198, k = 15.946795
        22        23     1        0.132524   387119.492578    ;  uncertainty r = 0.000108, k = 11.004632
        22        43     1        0.108905   336131.001904    ;  uncertainty r = 0.000101, k = 3.724259
        23        24     1        0.133802   397972.278857    ;  uncertainty r = 0.000074, k = 5.323621
        24        25     1        0.139170   363105.058887    ;  uncertainty r = 0.000048, k = 3.861511
        24        44     1        0.108994   339519.240039    ;  uncertainty r = 0.000025, k = 1.411838
        25        26     1        0.138845   368349.231982    ;  uncertainty r = 0.000202, k = 14.185200
        25        45     1        0.108610   333138.767725    ;  uncertainty r = 0.000052, k = 1.956201
        26        27     1        0.180205   137177.881958    ;  uncertainty r = 0.000181, k = 18.369757
        27        28     1        0.147757   507438.196289    ;  uncertainty r = 0.000058, k = 6.198409
        27        29     1        0.147757   507438.196289    ;  uncertainty r = 0.000058, k = 6.198409
        27        30     1        0.181050   174448.795117    ;  uncertainty r = 0.000039, k = 9.209375
        30        46     1        0.109286   321567.954541    ;  uncertainty r = 0.000031, k = 1.364985
        30        47     1        0.109286   321567.954541    ;  uncertainty r = 0.000031, k = 1.364985
        30        48     1        0.109286   321567.954541    ;  uncertainty r = 0.000031, k = 1.364985

[ angles ]
;       ai        aj        ak funct           theta             cth
         1         4         3     1      120.931259      612.842998    ;  uncertainty theta = 0.002470, k = 0.239695
         1         4        32     1      116.754013      350.159800    ;  uncertainty theta = 0.001533, k = 0.075385
         1         6         5     1      119.243858      555.279545    ;  uncertainty theta = 0.007472, k = 0.086369
         1         6         7     1      122.312637      528.712460    ;  uncertainty theta = 0.003351, k = 0.210334
         2         3         4     1      121.240555      622.447314    ;  uncertainty theta = 0.002919, k = 0.205880
         2         3        31     1      116.813477      347.959523    ;  uncertainty theta = 0.001638, k = 0.087624
         2         5         6     1      119.722855      514.456656    ;  uncertainty theta = 0.004269, k = 0.061579
         2         5        10     1      118.043076      466.796653    ;  uncertainty theta = 0.004173, k = 0.227568
         3         2         5     1      116.502525      472.887509    ;  uncertainty theta = 0.004302, k = 0.130226
         3         4        32     1      121.868530      283.534439    ;  uncertainty theta = 0.002376, k = 0.096063
         4         1         6     1      114.458984      488.266211    ;  uncertainty theta = 0.001996, k = 0.147683
         4         3        31     1      121.994606      282.804174    ;  uncertainty theta = 0.002439, k = 0.090842
         5         6         7     1      119.517235      392.036829    ;  uncertainty theta = 0.005326, k = 0.191059
         5        10         9     1      121.231812      457.315586    ;  uncertainty theta = 0.004121, k = 0.139471
         5        10        11     1      119.284325      398.049829    ;  uncertainty theta = 0.005280, k = 0.269275
         6         5        10     1      120.715248      397.657068    ;  uncertainty theta = 0.005658, k = 0.086343
         6         7         8     1      118.206688      518.635644    ;  uncertainty theta = 0.002447, k = 0.073028
         6         7        33     1      120.837975      275.673543    ;  uncertainty theta = 0.003390, k = 0.103596
         7         8         9     1      119.362228      387.607768    ;  uncertainty theta = 0.003782, k = 0.067189
         7         8        12     1      122.010704      487.333947    ;  uncertainty theta = 0.006482, k = 0.189293
         8         7        33     1      121.438538      270.401917    ;  uncertainty theta = 0.001365, k = 0.142094
         8         9        10     1      122.333328      516.540292    ;  uncertainty theta = 0.004616, k = 0.261136
         8         9        34     1      119.369408      284.883310    ;  uncertainty theta = 0.005054, k = 0.124449
         8        12        21     1      115.247620      387.593978    ;  uncertainty theta = 0.002924, k = 0.212981
         8        12        35     1      115.334732      382.605017    ;  uncertainty theta = 0.007384, k = 0.160726
         9         8        12     1      120.277283      500.376100    ;  uncertainty theta = 0.004774, k = 0.343101
         9        10        11     1      121.323685      424.983658    ;  uncertainty theta = 0.003438, k = 0.151474
        10         9        34     1      118.689438      277.888663    ;  uncertainty theta = 0.005220, k = 0.052528
        10        11        13     1      120.203941      397.442205    ;  uncertainty theta = 0.002415, k = 0.085749
        10        11        15     1      120.333572      391.740886    ;  uncertainty theta = 0.001887, k = 0.148991
        11        13        14     1      123.118027      521.834391    ;  uncertainty theta = 0.002819, k = 0.055451
        11        13        36     1      119.021057      283.226302    ;  uncertainty theta = 0.002561, k = 0.072957
        11        15        16     1      120.044067      536.030055    ;  uncertainty theta = 0.003140, k = 0.065577
        11        15        38     1      119.704918      278.346161    ;  uncertainty theta = 0.003210, k = 0.114465
        12        21        22     1      118.512817      444.270049    ;  uncertainty theta = 0.006989, k = 0.276229
        12        21        26     1      122.762405      517.830842    ;  uncertainty theta = 0.007977, k = 0.368248
        13        11        15     1      121.315369      434.809189    ;  uncertainty theta = 0.003052, k = 0.110277
        13        14        17     1      116.603127      519.864394    ;  uncertainty theta = 0.001923, k = 0.119449
        13        14        37     1      121.648170      281.545418    ;  uncertainty theta = 0.001322, k = 0.046706
        14        13        36     1      119.768372      293.255810    ;  uncertainty theta = 0.002467, k = 0.035855
        14        17        16     1      120.227600      358.618361    ;  uncertainty theta = 0.004301, k = 0.166687
        14        17        18     1      124.705750      504.536925    ;  uncertainty theta = 0.002603, k = 0.156422
        15        16        17     1      117.909668      402.206727    ;  uncertainty theta = 0.003549, k = 0.229114
        15        16        20     1      130.572113      395.534998    ;  uncertainty theta = 0.001912, k = 0.096347
        16        15        38     1      120.178490      291.586482    ;  uncertainty theta = 0.001549, k = 0.030516
        16        17        18     1      116.026466      662.255007    ;  uncertainty theta = 0.004312, k = 0.180403
        16        20        19     1      102.142494      763.861738    ;  uncertainty theta = 0.003641, k = 0.083107
        16        20        41     1      111.042259      397.715771    ;  uncertainty theta = 0.000909, k = 0.058342
        16        20        42     1      111.042259      397.715771    ;  uncertainty theta = 0.000909, k = 0.058342
        17        14        37     1      121.838280      287.889347    ;  uncertainty theta = 0.002478, k = 0.049883
        17        16        20     1      110.774193      550.287295    ;  uncertainty theta = 0.004844, k = 0.218759
        17        18        19     1      110.089989      730.139858    ;  uncertainty theta = 0.004161, k = 0.113052
        18        19        20     1      108.519630      855.935275    ;  uncertainty theta = 0.003341, k = 0.074312
        18        19        39     1      107.038589      485.655489    ;  uncertainty theta = 0.001701, k = 0.082175
        18        19        40     1      107.038589      485.655489    ;  uncertainty theta = 0.001701, k = 0.082175
        19        20        41     1      109.768173      408.994746    ;  uncertainty theta = 0.000621, k = 0.057547
        19        20        42     1      109.768173      408.994746    ;  uncertainty theta = 0.000621, k = 0.057547
        20        19        39     1      111.147232      409.496327    ;  uncertainty theta = 0.001300, k = 0.061012
        20        19        40     1      111.147232      409.496327    ;  uncertainty theta = 0.001300, k = 0.061012
        21        12        35     1      114.408607      380.718399    ;  uncertainty theta = 0.008156, k = 0.169224
        21        22        23     1      124.922012      667.515332    ;  uncertainty theta = 0.002966, k = 0.161817
        21        22        43     1      118.731201      264.771767    ;  uncertainty theta = 0.008633, k = 0.144655
        21        26        25     1      123.289940      400.819392    ;  uncertainty theta = 0.003703, k = 0.311812
        21        26        27     1      119.668861      323.012512    ;  uncertainty theta = 0.009862, k = 0.668304
        22        21        26     1      118.657333      362.619675    ;  uncertainty theta = 0.004612, k = 0.362834
        22        23        24     1      118.268311      445.304685    ;  uncertainty theta = 0.004478, k = 0.098123
        23        22        43     1      116.579346      347.314711    ;  uncertainty theta = 0.005152, k = 0.066004
        23        24        25     1      122.431091      677.632432    ;  uncertainty theta = 0.002046, k = 0.093657
        23        24        44     1      116.840332      340.667018    ;  uncertainty theta = 0.001197, k = 0.068775
        24        25        26     1      118.808189      483.994172    ;  uncertainty theta = 0.004991, k = 0.079007
        24        25        45     1      122.214798      277.736813    ;  uncertainty theta = 0.004016, k = 0.070188
        25        24        44     1      120.256371      277.546338    ;  uncertainty theta = 0.002265, k = 0.082404
        25        26        27     1      114.589760      352.518854    ;  uncertainty theta = 0.008187, k = 0.213542
        26        25        45     1      119.535889      260.121124    ;  uncertainty theta = 0.004889, k = 0.124126
        26        27        28     1      112.903671      607.682140    ;  uncertainty theta = 0.002869, k = 0.171145
        26        27        29     1      112.903671      607.682140    ;  uncertainty theta = 0.002869, k = 0.171145
        26        27        30     1      104.371536      610.740975    ;  uncertainty theta = 0.002610, k = 0.101867
        27        30        46     1      107.113976      366.636152    ;  uncertainty theta = 0.002061, k = 0.075109
        27        30        47     1      107.113976      366.636152    ;  uncertainty theta = 0.002061, k = 0.075109
        27        30        48     1      107.113976      366.636152    ;  uncertainty theta = 0.002061, k = 0.075109
        28        27        29     1      123.473061      838.268511    ;  uncertainty theta = 0.001927, k = 0.047858
        28        27        30     1      112.603310      748.419640    ;  uncertainty theta = 0.000730, k = 0.122171
        29        27        30     1      112.603310      748.419640    ;  uncertainty theta = 0.000730, k = 0.122171
        39        19        40     1      107.493996      331.646449    ;  uncertainty theta = 0.002923, k = 0.071291
        41        20        42     1      104.956436      297.556355    ;  uncertainty theta = 0.001784, k = 0.066291
        46        30        47     1      108.843689      296.191780    ;  uncertainty theta = 0.002069, k = 0.023129
        46        30        48     1      108.843689      296.191780    ;  uncertainty theta = 0.002069, k = 0.023129
        47        30        48     1      108.843689      296.191780    ;  uncertainty theta = 0.002069, k = 0.023129

[ dihedrals ] ; propers for gromacs 4.5 or higher, use funct 9
;       ai        aj        ak        al funct           phase               k        pn
         1         4         3         2     9        0.000000       -0.202867         1    ;  uncertainty k = 0.782206
         1         4         3         2     9      180.000000       12.112998         2    ;  uncertainty k = 0.805809
         1         4         3         2     9        0.000000       -1.599826         3    ;  uncertainty k = 0.569696
         1         4         3         2     9      180.000000        0.918171         4    ;  uncertainty k = 0.463986
         1         4         3        31     9        0.000000       -0.033262         1    ;  uncertainty k = 0.634831
         1         4         3        31     9      180.000000        6.504271         2    ;  uncertainty k = 1.136879
         1         4         3        31     9        0.000000        0.521237         3    ;  uncertainty k = 0.433609
         1         4         3        31     9      180.000000        1.070757         4    ;  uncertainty k = 0.343719
         1         6         5         2     9        0.000000       -0.400491         1    ;  uncertainty k = 0.890675
         1         6         5         2     9      180.000000        7.087147         2    ;  uncertainty k = 0.720454
         1         6         5         2     9        0.000000        0.077638         3    ;  uncertainty k = 0.327161
         1         6         5         2     9      180.000000        1.330895         4    ;  uncertainty k = 0.356326
         1         6         5        10     9        0.000000       -0.290490         1    ;  uncertainty k = 0.705103
         1         6         5        10     9      180.000000        5.010624         2    ;  uncertainty k = 1.173314
         1         6         5        10     9        0.000000        0.089880         3    ;  uncertainty k = 0.373701
         1         6         5        10     9      180.000000        1.326825         4    ;  uncertainty k = 0.226813
         1         6         7         8     9        0.000000        0.146698         1    ;  uncertainty k = 0.428360
         1         6         7         8     9      180.000000        9.787396         2    ;  uncertainty k = 0.378068
         1         6         7         8     9        0.000000        0.568643         3    ;  uncertainty k = 0.286793
         1         6         7         8     9      180.000000        1.391199         4    ;  uncertainty k = 0.231273
         1         6         7        33     9        0.000000        0.139926         1    ;  uncertainty k = 0.233388
         1         6         7        33     9      180.000000        8.199300         2    ;  uncertainty k = 0.492394
         1         6         7        33     9        0.000000        1.032825         3    ;  uncertainty k = 0.329116
         1         6         7        33     9      180.000000        1.219854         4    ;  uncertainty k = 0.291231
         2         3         4        32     9        0.000000        0.036888         1    ;  uncertainty k = 0.700690
         2         3         4        32     9      180.000000        6.513922         2    ;  uncertainty k = 1.135263
         2         3         4        32     9        0.000000        0.521732         3    ;  uncertainty k = 0.385189
         2         3         4        32     9      180.000000        1.117821         4    ;  uncertainty k = 0.330143
         2         5         6         7     9        0.000000        0.076453         1    ;  uncertainty k = 0.284768
         2         5         6         7     9      180.000000        6.080418         2    ;  uncertainty k = 1.149878
         2         5         6         7     9        0.000000        0.106983         3    ;  uncertainty k = 0.156573
         2         5         6         7     9      180.000000        1.373586         4    ;  uncertainty k = 0.405208
         2         5        10         9     9        0.000000        0.257447         1    ;  uncertainty k = 0.525287
         2         5        10         9     9      180.000000        6.891790         2    ;  uncertainty k = 0.820954
         2         5        10         9     9        0.000000        0.370264         3    ;  uncertainty k = 0.294912
         2         5        10         9     9      180.000000        1.156446         4    ;  uncertainty k = 0.347894
         2         5        10        11     9        0.000000        0.194885         1    ;  uncertainty k = 1.323304
         2         5        10        11     9      180.000000        7.204372         2    ;  uncertainty k = 0.682718
         2         5        10        11     9        0.000000        0.770272         3    ;  uncertainty k = 0.530029
         2         5        10        11     9      180.000000        1.196736         4    ;  uncertainty k = 0.264972
         3         2         5         6     9        0.000000       -0.112022         1    ;  uncertainty k = 0.910116
         3         2         5         6     9      180.000000       11.596635         2    ;  uncertainty k = 0.629166
         3         2         5         6     9        0.000000        1.457658         3    ;  uncertainty k = 0.287217
         3         2         5         6     9      180.000000        1.330866         4    ;  uncertainty k = 0.318778
         3         2         5        10     9        0.000000       -0.220077         1    ;  uncertainty k = 0.538092
         3         2         5        10     9      180.000000       12.436103         2    ;  uncertainty k = 0.565525
         3         2         5        10     9        0.000000        2.050858         3    ;  uncertainty k = 0.350526
         3         2         5        10     9      180.000000        1.320772         4    ;  uncertainty k = 0.192088
         3         4         1         6     9        0.000000        0.013311         1    ;  uncertainty k = 0.131653
         3         4         1         6     9      180.000000       17.231919         2    ;  uncertainty k = 0.196673
         3         4         1         6     9        0.000000        0.888029         3    ;  uncertainty k = 0.629563
         3         4         1         6     9      180.000000        1.519865         4    ;  uncertainty k = 0.234840
         4         1         6         5     9        0.000000       -0.063178         1    ;  uncertainty k = 1.326753
         4         1         6         5     9      180.000000       10.095140         2    ;  uncertainty k = 0.612696
         4         1         6         5     9        0.000000        1.278116         3    ;  uncertainty k = 0.488030
         4         1         6         5     9      180.000000        1.281713         4    ;  uncertainty k = 0.220795
         4         1         6         7     9        0.000000        0.427931         1    ;  uncertainty k = 1.029214
         4         1         6         7     9      180.000000       12.638433         2    ;  uncertainty k = 0.318598
         4         1         6         7     9        0.000000        2.227131         3    ;  uncertainty k = 0.470955
         4         1         6         7     9      180.000000        1.437848         4    ;  uncertainty k = 0.260470
         4         3         2         5     9        0.000000        0.020379         1    ;  uncertainty k = 0.368422
         4         3         2         5     9      180.000000       16.581263         2    ;  uncertainty k = 0.335688
         4         3         2         5     9        0.000000        0.829257         3    ;  uncertainty k = 0.750676
         4         3         2         5     9      180.000000        1.566270         4    ;  uncertainty k = 0.253963
         5         2         3        31     9        0.000000        0.275901         1    ;  uncertainty k = 0.531875
         5         2         3        31     9      180.000000       18.156242         2    ;  uncertainty k = 0.522835
         5         2         3        31     9        0.000000        2.344021         3    ;  uncertainty k = 0.655907
         5         2         3        31     9      180.000000        1.633483         4    ;  uncertainty k = 0.415921
         5         6         7         8     9        0.000000        0.121234         1    ;  uncertainty k = 0.458446
         5         6         7         8     9      180.000000        7.195261         2    ;  uncertainty k = 0.794920
         5         6         7         8     9        0.000000        0.037659         3    ;  uncertainty k = 0.279135
         5         6         7         8     9      180.000000        1.290689         4    ;  uncertainty k = 0.271574
         5         6         7        33     9        0.000000       -0.216754         1    ;  uncertainty k = 0.343874
         5         6         7        33     9      180.000000        5.853915         2    ;  uncertainty k = 0.879792
         5         6         7        33     9        0.000000        1.199032         3    ;  uncertainty k = 0.162615
         5         6         7        33     9      180.000000        1.246406         4    ;  uncertainty k = 0.338414
         5        10         9         8     9        0.000000        0.024799         1    ;  uncertainty k = 0.540812
         5        10         9         8     9      180.000000       12.484457         2    ;  uncertainty k = 0.426740
         5        10         9         8     9        0.000000        0.362611         3    ;  uncertainty k = 0.227868
         5        10         9         8     9      180.000000        1.278342         4    ;  uncertainty k = 0.326974
         5        10         9        34     9        0.000000        0.119124         1    ;  uncertainty k = 0.250904
         5        10         9        34     9      180.000000        9.596010         2    ;  uncertainty k = 0.354802
         5        10         9        34     9        0.000000        1.468217         3    ;  uncertainty k = 0.146692
         5        10         9        34     9      180.000000        1.666843         4    ;  uncertainty k = 0.175537
         5        10        11        13     9        0.000000        0.375712         1    ;  uncertainty k = 0.753710
         5        10        11        13     9      180.000000        4.875547         2    ;  uncertainty k = 0.312973
         5        10        11        13     9        0.000000        0.328165         3    ;  uncertainty k = 0.281647
         5        10        11        13     9      180.000000        0.728963         4    ;  uncertainty k = 0.091629
         5        10        11        15     9        0.000000        0.273621         1    ;  uncertainty k = 0.688156
         5        10        11        15     9      180.000000        4.884418         2    ;  uncertainty k = 0.364004
         5        10        11        15     9        0.000000        0.360581         3    ;  uncertainty k = 0.231466
         5        10        11        15     9      180.000000        0.687395         4    ;  uncertainty k = 0.100321
         6         1         4        32     9        0.000000        0.424413         1    ;  uncertainty k = 0.517708
         6         1         4        32     9      180.000000       19.045700         2    ;  uncertainty k = 0.443936
         6         1         4        32     9        0.000000        2.354563         3    ;  uncertainty k = 0.582720
         6         1         4        32     9      180.000000        1.407430         4    ;  uncertainty k = 0.336466
         6         5        10         9     9        0.000000       -0.067598         1    ;  uncertainty k = 0.466158
         6         5        10         9     9      180.000000        5.815780         2    ;  uncertainty k = 1.007573
         6         5        10         9     9        0.000000        0.062200         3    ;  uncertainty k = 0.267452
         6         5        10         9     9      180.000000        0.997122         4    ;  uncertainty k = 0.334934
         6         5        10        11     9        0.000000        0.084388         1    ;  uncertainty k = 0.737271
         6         5        10        11     9      180.000000        4.876257         2    ;  uncertainty k = 0.500296
         6         5        10        11     9        0.000000        1.056583         3    ;  uncertainty k = 0.225291
         6         5        10        11     9      180.000000        1.271495         4    ;  uncertainty k = 0.338492
         6         7         8         9     9        0.000000       -0.221709         1    ;  uncertainty k = 0.191087
         6         7         8         9     9      180.000000        9.798199         2    ;  uncertainty k = 0.334095
         6         7         8         9     9        0.000000        0.329470         3    ;  uncertainty k = 0.461908
         6         7         8         9     9      180.000000        1.353768         4    ;  uncertainty k = 0.303960
         6         7         8        12     9        0.000000       -0.189602         1    ;  uncertainty k = 0.394616
         6         7         8        12     9      180.000000       11.233637         2    ;  uncertainty k = 0.435509
         6         7         8        12     9        0.000000        0.975271         3    ;  uncertainty k = 0.174800
         6         7         8        12     9      180.000000        1.594279         4    ;  uncertainty k = 0.138017
         7         6         5        10     9        0.000000       -0.700820         1    ;  uncertainty k = 0.531875
         7         6         5        10     9      180.000000        4.602087         2    ;  uncertainty k = 1.543740
         7         6         5        10     9        0.000000        0.274637         3    ;  uncertainty k = 0.301848
         7         6         5        10     9      180.000000        1.243710         4    ;  uncertainty k = 0.357779
         7         8         9        10     9        0.000000       -0.067393         1    ;  uncertainty k = 0.318747
         7         8         9        10     9      180.000000        6.259141         2    ;  uncertainty k = 0.983004
         7         8         9        10     9        0.000000        0.303549         3    ;  uncertainty k = 0.200218
         7         8         9        10     9      180.000000        1.349605         4    ;  uncertainty k = 0.315845
         7         8         9        34     9        0.000000        0.249483         1    ;  uncertainty k = 0.404908
         7         8         9        34     9      180.000000        5.922881         2    ;  uncertainty k = 0.882861
         7         8         9        34     9        0.000000        1.141823         3    ;  uncertainty k = 0.151874
         7         8         9        34     9      180.000000        1.438043         4    ;  uncertainty k = 0.272334
         7         8        12        21     9        0.000000        2.391292         1    ;  uncertainty k = 0.927260
         7         8        12        21     9      180.000000        5.627187         2    ;  uncertainty k = 0.345909
         7         8        12        21     9        0.000000        0.130796         3    ;  uncertainty k = 0.275596
         7         8        12        21     9      180.000000        0.108068         4    ;  uncertainty k = 0.070781
         7         8        12        35     9        0.000000        3.714210         1    ;  uncertainty k = 1.019184
         7         8        12        35     9      180.000000        4.537148         2    ;  uncertainty k = 0.136540
         7         8        12        35     9        0.000000        0.421529         3    ;  uncertainty k = 0.226094
         7         8        12        35     9      180.000000       -0.068003         4    ;  uncertainty k = 0.067047
         8         9        10        11     9        0.000000        0.194115         1    ;  uncertainty k = 0.199735
         8         9        10        11     9      180.000000       10.326712         2    ;  uncertainty k = 0.643065
         8         9        10        11     9        0.000000        1.350123         3    ;  uncertainty k = 0.293165
         8         9        10        11     9      180.000000        1.716005         4    ;  uncertainty k = 0.287970
         8        12        21        22     9        0.000000        4.219815         1    ;  uncertainty k = 1.204825
         8        12        21        22     9      180.000000        5.915024         2    ;  uncertainty k = 0.485743
         8        12        21        22     9        0.000000        0.506820         3    ;  uncertainty k = 0.114705
         8        12        21        22     9      180.000000        0.021030         4    ;  uncertainty k = 0.159762
         8        12        21        26     9        0.000000        0.589932         1    ;  uncertainty k = 1.531190
         8        12        21        26     9      180.000000        8.272737         2    ;  uncertainty k = 0.309915
         8        12        21        26     9        0.000000       -0.349199         3    ;  uncertainty k = 0.585018
         8        12        21        26     9      180.000000        0.078445         4    ;  uncertainty k = 0.210861
         9         8         7        33     9        0.000000        0.274320         1    ;  uncertainty k = 0.397236
         9         8         7        33     9      180.000000        7.009105         2    ;  uncertainty k = 0.649587
         9         8         7        33     9        0.000000        1.295657         3    ;  uncertainty k = 0.118446
         9         8         7        33     9      180.000000        1.628271         4    ;  uncertainty k = 0.154579
         9         8        12        21     9        0.000000        2.704328         1    ;  uncertainty k = 1.100884
         9         8        12        21     9      180.000000        5.654041         2    ;  uncertainty k = 0.307786
         9         8        12        21     9        0.000000        0.621213         3    ;  uncertainty k = 0.287959
         9         8        12        21     9      180.000000        0.073946         4    ;  uncertainty k = 0.167406
         9         8        12        35     9        0.000000        3.340434         1    ;  uncertainty k = 0.856255
         9         8        12        35     9      180.000000        4.536996         2    ;  uncertainty k = 0.547944
         9         8        12        35     9        0.000000        0.508740         3    ;  uncertainty k = 0.257942
         9         8        12        35     9      180.000000       -0.053044         4    ;  uncertainty k = 0.129026
         9        10        11        13     9        0.000000       -0.404962         1    ;  uncertainty k = 0.398794
         9        10        11        13     9      180.000000        5.581340         2    ;  uncertainty k = 0.118622
         9        10        11        13     9        0.000000        0.446175         3    ;  uncertainty k = 0.195797
         9        10        11        13     9      180.000000        0.562061         4    ;  uncertainty k = 0.096813
         9        10        11        15     9        0.000000       -0.487810         1    ;  uncertainty k = 0.387483
         9        10        11        15     9      180.000000        5.571570         2    ;  uncertainty k = 0.217873
         9        10        11        15     9        0.000000        0.421440         3    ;  uncertainty k = 0.121284
         9        10        11        15     9      180.000000        0.540466         4    ;  uncertainty k = 0.094932
        10         9         8        12     9        0.000000        0.292126         1    ;  uncertainty k = 0.726257
        10         9         8        12     9      180.000000        7.663087         2    ;  uncertainty k = 0.508407
        10         9         8        12     9        0.000000        0.808661         3    ;  uncertainty k = 0.270238
        10         9         8        12     9      180.000000        1.634815         4    ;  uncertainty k = 0.115058
        10        11        13        14     9        0.000000        0.079616         1    ;  uncertainty k = 0.399329
        10        11        13        14     9      180.000000        8.406599         2    ;  uncertainty k = 0.647677
        10        11        13        14     9        0.000000        1.236337         3    ;  uncertainty k = 0.318880
        10        11        13        14     9      180.000000        1.915006         4    ;  uncertainty k = 0.191836
        10        11        13        36     9        0.000000       -0.237991         1    ;  uncertainty k = 0.028665
        10        11        13        36     9      180.000000        7.501898         2    ;  uncertainty k = 0.333504
        10        11        13        36     9        0.000000        0.801434         3    ;  uncertainty k = 0.212557
        10        11        13        36     9      180.000000        1.177106         4    ;  uncertainty k = 0.182455
        10        11        15        16     9        0.000000        0.035851         1    ;  uncertainty k = 0.460935
        10        11        15        16     9      180.000000        9.873059         2    ;  uncertainty k = 0.482198
        10        11        15        16     9        0.000000        1.399121         3    ;  uncertainty k = 0.249545
        10        11        15        16     9      180.000000        1.680498         4    ;  uncertainty k = 0.143652
        10        11        15        38     9        0.000000       -0.281592         1    ;  uncertainty k = 0.047339
        10        11        15        38     9      180.000000        7.431613         2    ;  uncertainty k = 0.244309
        10        11        15        38     9        0.000000        0.808169         3    ;  uncertainty k = 0.214397
        10        11        15        38     9      180.000000        1.149108         4    ;  uncertainty k = 0.141695
        11        10         9        34     9        0.000000        0.190499         1    ;  uncertainty k = 0.317123
        11        10         9        34     9      180.000000        8.442989         2    ;  uncertainty k = 0.290860
        11        10         9        34     9        0.000000        1.006442         3    ;  uncertainty k = 0.164458
        11        10         9        34     9      180.000000        1.399682         4    ;  uncertainty k = 0.290029
        11        13        14        17     9        0.000000        0.031701         1    ;  uncertainty k = 0.191781
        11        13        14        17     9      180.000000       14.554207         2    ;  uncertainty k = 0.206035
        11        13        14        17     9        0.000000       -0.655334         3    ;  uncertainty k = 0.569532
        11        13        14        17     9      180.000000        0.794151         4    ;  uncertainty k = 0.362499
        11        13        14        37     9        0.000000        0.107425         1    ;  uncertainty k = 0.210447
        11        13        14        37     9      180.000000        7.952550         2    ;  uncertainty k = 0.437983
        11        13        14        37     9        0.000000        1.440672         3    ;  uncertainty k = 0.245383
        11        13        14        37     9      180.000000        1.869238         4    ;  uncertainty k = 0.249531
        11        15        16        17     9        0.000000       -0.109172         1    ;  uncertainty k = 0.327164
        11        15        16        17     9      180.000000       14.705961         2    ;  uncertainty k = 0.263704
        11        15        16        17     9        0.000000       -1.463125         3    ;  uncertainty k = 0.732630
        11        15        16        17     9      180.000000        0.599413         4    ;  uncertainty k = 0.291027
        11        15        16        20     9        0.000000        0.317448         1    ;  uncertainty k = 0.521242
        11        15        16        20     9      180.000000        8.618256         2    ;  uncertainty k = 0.145161
        11        15        16        20     9        0.000000        1.468182         3    ;  uncertainty k = 0.069700
        11        15        16        20     9      180.000000        1.679112         4    ;  uncertainty k = 0.158204
        12         8         7        33     9        0.000000       -0.570257         1    ;  uncertainty k = 0.225437
        12         8         7        33     9      180.000000        8.036469         2    ;  uncertainty k = 0.539841
        12         8         7        33     9        0.000000        0.826405         3    ;  uncertainty k = 0.259177
        12         8         7        33     9      180.000000        1.188346         4    ;  uncertainty k = 0.226656
        12         8         9        34     9        0.000000       -0.444465         1    ;  uncertainty k = 0.331198
        12         8         9        34     9      180.000000        6.982223         2    ;  uncertainty k = 0.396117
        12         8         9        34     9        0.000000        0.801489         3    ;  uncertainty k = 0.230307
        12         8         9        34     9      180.000000        1.180032         4    ;  uncertainty k = 0.128391
        12        21        22        23     9        0.000000        0.284521         1    ;  uncertainty k = 0.937479
        12        21        22        23     9      180.000000        8.701419         2    ;  uncertainty k = 0.854400
        12        21        22        23     9        0.000000        0.836725         3    ;  uncertainty k = 0.185927
        12        21        22        23     9      180.000000        1.496108         4    ;  uncertainty k = 0.299674
        12        21        22        43     9        0.000000        0.007095         1    ;  uncertainty k = 0.499751
        12        21        22        43     9      180.000000        5.972505         2    ;  uncertainty k = 0.983101
        12        21        22        43     9        0.000000        0.942184         3    ;  uncertainty k = 0.273147
        12        21        22        43     9      180.000000        1.158934         4    ;  uncertainty k = 0.246635
        12        21        26        25     9        0.000000       -0.020826         1    ;  uncertainty k = 0.416439
        12        21        26        25     9      180.000000        7.821353         2    ;  uncertainty k = 0.442938
        12        21        26        25     9        0.000000        1.029527         3    ;  uncertainty k = 0.210995
        12        21        26        25     9      180.000000        1.524188         4    ;  uncertainty k = 0.257372
        12        21        26        27     9        0.000000       -0.506014         1    ;  uncertainty k = 0.475728
        12        21        26        27     9      180.000000        7.636456         2    ;  uncertainty k = 0.879000
        12        21        26        27     9        0.000000        1.159106         3    ;  uncertainty k = 0.332203
        12        21        26        27     9      180.000000        1.400876         4    ;  uncertainty k = 0.254665
        13        11        15        16     9        0.000000       -0.091611         1    ;  uncertainty k = 0.172605
        13        11        15        16     9      180.000000       11.920018         2    ;  uncertainty k = 0.421688
        13        11        15        16     9        0.000000       -0.227589         3    ;  uncertainty k = 0.593169
        13        11        15        16     9      180.000000        0.944406         4    ;  uncertainty k = 0.442166
        13        11        15        38     9        0.000000        0.260433         1    ;  uncertainty k = 0.249884
        13        11        15        38     9      180.000000        7.022765         2    ;  uncertainty k = 0.412175
        13        11        15        38     9        0.000000        1.384846         3    ;  uncertainty k = 0.214135
        13        11        15        38     9      180.000000        1.634015         4    ;  uncertainty k = 0.202132
        13        14        17        16     9        0.000000        0.259339         1    ;  uncertainty k = 0.252259
        13        14        17        16     9      180.000000       11.351111         2    ;  uncertainty k = 0.258279
        13        14        17        16     9        0.000000       -0.970518         3    ;  uncertainty k = 0.366753
        13        14        17        16     9      180.000000        0.948150         4    ;  uncertainty k = 0.204715
        13        14        17        18     9        0.000000        0.335401         1    ;  uncertainty k = 0.285154
        13        14        17        18     9      180.000000       10.069125         2    ;  uncertainty k = 0.366455
        13        14        17        18     9        0.000000        1.509132         3    ;  uncertainty k = 0.158883
        13        14        17        18     9      180.000000        1.598403         4    ;  uncertainty k = 0.214682
        14        13        11        15     9        0.000000       -0.172390         1    ;  uncertainty k = 0.129282
        14        13        11        15     9      180.000000       11.846219         2    ;  uncertainty k = 0.217368
        14        13        11        15     9        0.000000       -0.484806         3    ;  uncertainty k = 0.378261
        14        13        11        15     9      180.000000        0.892006         4    ;  uncertainty k = 0.264536
        14        17        16        15     9        0.000000       -0.309566         1    ;  uncertainty k = 0.568203
        14        17        16        15     9      180.000000        7.788537         2    ;  uncertainty k = 0.785100
        14        17        16        15     9        0.000000       -0.320812         3    ;  uncertainty k = 0.183541
        14        17        16        15     9      180.000000        0.977640         4    ;  uncertainty k = 0.391180
        14        17        16        20     9        0.000000        0.132229         1    ;  uncertainty k = 0.272909
        14        17        16        20     9      180.000000        7.008171         2    ;  uncertainty k = 0.203757
        14        17        16        20     9        0.000000        0.585412         3    ;  uncertainty k = 0.434183
        14        17        16        20     9      180.000000        1.170257         4    ;  uncertainty k = 0.215267
        14        17        18        19     9        0.000000        0.661323         1    ;  uncertainty k = 1.500963
        14        17        18        19     9      180.000000        5.713776         2    ;  uncertainty k = 0.511237
        14        17        18        19     9        0.000000        1.097310         3    ;  uncertainty k = 0.159680
        14        17        18        19     9      180.000000        0.193839         4    ;  uncertainty k = 0.206793
        15        11        13        36     9        0.000000        0.199326         1    ;  uncertainty k = 0.065252
        15        11        13        36     9      180.000000        6.996153         2    ;  uncertainty k = 0.450082
        15        11        13        36     9        0.000000        1.382259         3    ;  uncertainty k = 0.131959
        15        11        13        36     9      180.000000        1.621022         4    ;  uncertainty k = 0.219532
        15        16        17        18     9        0.000000        0.190468         1    ;  uncertainty k = 0.218447
        15        16        17        18     9      180.000000        9.130341         2    ;  uncertainty k = 0.175566
        15        16        17        18     9        0.000000        0.283411         3    ;  uncertainty k = 0.479678
        15        16        17        18     9      180.000000        1.206119         4    ;  uncertainty k = 0.200520
        15        16        20        19     9        0.000000       -0.528705         1    ;  uncertainty k = 1.210882
        15        16        20        19     9      180.000000        2.665109         2    ;  uncertainty k = 0.348422
        15        16        20        19     9        0.000000        0.236509         3    ;  uncertainty k = 0.058216
        15        16        20        19     9      180.000000        0.746283         4    ;  uncertainty k = 0.104635
        15        16        20        41     9        0.000000        0.950825         1    ;  uncertainty k = 0.460940
        15        16        20        41     9      180.000000        0.729240         2    ;  uncertainty k = 0.241108
        15        16        20        41     9        0.000000        0.065238         3    ;  uncertainty k = 0.082066
        15        16        20        41     9      180.000000        0.218358         4    ;  uncertainty k = 0.081133
        15        16        20        42     9        0.000000        0.950825         1    ;  uncertainty k = 0.460940
        15        16        20        42     9      180.000000        0.729240         2    ;  uncertainty k = 0.241108
        15        16        20        42     9        0.000000        0.065238         3    ;  uncertainty k = 0.082066
        15        16        20        42     9      180.000000        0.218358         4    ;  uncertainty k = 0.081133
        16        17        14        37     9        0.000000        0.124272         1    ;  uncertainty k = 0.143692
        16        17        14        37     9      180.000000        6.089708         2    ;  uncertainty k = 0.886005
        16        17        14        37     9        0.000000        1.291347         3    ;  uncertainty k = 0.183767
        16        17        14        37     9      180.000000        1.404445         4    ;  uncertainty k = 0.251813
        16        17        18        19     9        0.000000       -0.213300         1    ;  uncertainty k = 1.214774
        16        17        18        19     9      180.000000       10.885383         2    ;  uncertainty k = 0.571564
        16        17        18        19     9        0.000000       -0.544254         3    ;  uncertainty k = 0.778616
        16        17        18        19     9      180.000000        0.096574         4    ;  uncertainty k = 0.160415
        16        20        19        18     9        0.000000       -0.831470         1    ;  uncertainty k = 1.300242
        16        20        19        18     9      180.000000       -1.300129         2    ;  uncertainty k = 1.292603
        16        20        19        18     9        0.000000        1.136218         3    ;  uncertainty k = 0.301771
        16        20        19        18     9      180.000000       -1.599174         4    ;  uncertainty k = 0.349897
        16        20        19        39     9        0.000000       -0.437796         1    ;  uncertainty k = 0.427281
        16        20        19        39     9      180.000000       -0.934108         2    ;  uncertainty k = 0.387208
        16        20        19        39     9        0.000000        0.186270         3    ;  uncertainty k = 0.122062
        16        20        19        39     9      180.000000       -0.053568         4    ;  uncertainty k = 0.080913
        16        20        19        40     9        0.000000       -0.437796         1    ;  uncertainty k = 0.427281
        16        20        19        40     9      180.000000       -0.934108         2    ;  uncertainty k = 0.387208
        16        20        19        40     9        0.000000        0.186270         3    ;  uncertainty k = 0.122062
        16        20        19        40     9      180.000000       -0.053568         4    ;  uncertainty k = 0.080913
        17        14        13        36     9        0.000000        0.097619         1    ;  uncertainty k = 0.150561
        17        14        13        36     9      180.000000        9.526267         2    ;  uncertainty k = 0.484637
        17        14        13        36     9        0.000000        1.223128         3    ;  uncertainty k = 0.292554
        17        14        13        36     9      180.000000        1.655857         4    ;  uncertainty k = 0.126764
        17        16        15        38     9        0.000000        0.012215         1    ;  uncertainty k = 0.346429
        17        16        15        38     9      180.000000        8.793155         2    ;  uncertainty k = 0.966014
        17        16        15        38     9        0.000000        1.258615         3    ;  uncertainty k = 0.340604
        17        16        15        38     9      180.000000        1.596147         4    ;  uncertainty k = 0.205941
        17        16        20        19     9        0.000000       -0.278779         1    ;  uncertainty k = 1.111510
        17        16        20        19     9      180.000000       16.149317         2    ;  uncertainty k = 0.566505
        17        16        20        19     9        0.000000       -1.794501         3    ;  uncertainty k = 0.360305
        17        16        20        19     9      180.000000        0.244174         4    ;  uncertainty k = 0.523069
        17        16        20        41     9        0.000000       -0.747133         1    ;  uncertainty k = 0.612701
        17        16        20        41     9      180.000000        0.915234         2    ;  uncertainty k = 0.280375
        17        16        20        41     9        0.000000        0.424632         3    ;  uncertainty k = 0.135486
        17        16        20        41     9      180.000000        0.296985         4    ;  uncertainty k = 0.120880
        17        16        20        42     9        0.000000       -0.747133         1    ;  uncertainty k = 0.612701
        17        16        20        42     9      180.000000        0.915234         2    ;  uncertainty k = 0.280375
        17        16        20        42     9        0.000000        0.424632         3    ;  uncertainty k = 0.135486
        17        16        20        42     9      180.000000        0.296985         4    ;  uncertainty k = 0.120880
        17        18        19        20     9        0.000000        0.602793         1    ;  uncertainty k = 1.100685
        17        18        19        20     9      180.000000        1.000057         2    ;  uncertainty k = 1.812463
        17        18        19        20     9        0.000000        0.579396         3    ;  uncertainty k = 0.332734
        17        18        19        20     9      180.000000       -0.455014         4    ;  uncertainty k = 0.337571
        17        18        19        39     9        0.000000       -1.196219         1    ;  uncertainty k = 0.700357
        17        18        19        39     9      180.000000       -0.682337         2    ;  uncertainty k = 0.398274
        17        18        19        39     9        0.000000        0.938110         3    ;  uncertainty k = 0.172172
        17        18        19        39     9      180.000000        0.287851         4    ;  uncertainty k = 0.206782
        17        18        19        40     9        0.000000       -1.196219         1    ;  uncertainty k = 0.700357
        17        18        19        40     9      180.000000       -0.682337         2    ;  uncertainty k = 0.398274
        17        18        19        40     9        0.000000        0.938110         3    ;  uncertainty k = 0.172172
        17        18        19        40     9      180.000000        0.287851         4    ;  uncertainty k = 0.206782
        18        17        14        37     9        0.000000       -0.002191         1    ;  uncertainty k = 0.817935
        18        17        14        37     9      180.000000        7.050715         2    ;  uncertainty k = 0.320580
        18        17        14        37     9        0.000000        0.723371         3    ;  uncertainty k = 0.439191
        18        17        14        37     9      180.000000        0.894454         4    ;  uncertainty k = 0.303428
        18        17        16        20     9        0.000000        0.522324         1    ;  uncertainty k = 0.627810
        18        17        16        20     9      180.000000       13.621055         2    ;  uncertainty k = 0.746696
        18        17        16        20     9        0.000000       -0.920014         3    ;  uncertainty k = 1.019658
        18        17        16        20     9      180.000000        1.145576         4    ;  uncertainty k = 0.539096
        18        19        20        41     9        0.000000       -1.181669         1    ;  uncertainty k = 0.673227
        18        19        20        41     9      180.000000       -0.177613         2    ;  uncertainty k = 0.209845
        18        19        20        41     9        0.000000        1.435483         3    ;  uncertainty k = 0.336178
        18        19        20        41     9      180.000000        0.060583         4    ;  uncertainty k = 0.094305
        18        19        20        42     9        0.000000       -1.181669         1    ;  uncertainty k = 0.673227
        18        19        20        42     9      180.000000       -0.177613         2    ;  uncertainty k = 0.209845
        18        19        20        42     9        0.000000        1.435483         3    ;  uncertainty k = 0.336178
        18        19        20        42     9      180.000000        0.060583         4    ;  uncertainty k = 0.094305
        20        16        15        38     9        0.000000       -0.493252         1    ;  uncertainty k = 0.927463
        20        16        15        38     9      180.000000        6.500951         2    ;  uncertainty k = 0.464265
        20        16        15        38     9        0.000000        0.828797         3    ;  uncertainty k = 0.205101
        20        16        15        38     9      180.000000        0.957242         4    ;  uncertainty k = 0.300074
        21        22        23        24     9        0.000000        0.036596         1    ;  uncertainty k = 0.371494
        21        22        23        24     9      180.000000       16.597051         2    ;  uncertainty k = 0.304805
        21        22        23        24     9        0.000000        0.966622         3    ;  uncertainty k = 0.517836
        21        22        23        24     9      180.000000        1.451098         4    ;  uncertainty k = 0.177715
        21        26        25        24     9        0.000000       -0.265670         1    ;  uncertainty k = 0.419233
        21        26        25        24     9      180.000000       10.460453         2    ;  uncertainty k = 0.389564
        21        26        25        24     9        0.000000       -0.366508         3    ;  uncertainty k = 0.514479
        21        26        25        24     9      180.000000        0.929899         4    ;  uncertainty k = 0.330295
        21        26        25        45     9        0.000000        0.238370         1    ;  uncertainty k = 0.382235
        21        26        25        45     9      180.000000        7.525223         2    ;  uncertainty k = 0.903252
        21        26        25        45     9        0.000000        1.267263         3    ;  uncertainty k = 0.290613
        21        26        25        45     9      180.000000        1.474858         4    ;  uncertainty k = 0.123420
        21        26        27        28     9        0.000000       -5.228558         1    ;  uncertainty k = 2.158654
        21        26        27        28     9      180.000000       -0.861345         2    ;  uncertainty k = 0.805164
        21        26        27        28     9        0.000000        1.201043         3    ;  uncertainty k = 0.425533
        21        26        27        28     9      180.000000       -0.042324         4    ;  uncertainty k = 0.375368
        21        26        27        29     9        0.000000       -5.228558         1    ;  uncertainty k = 2.158654
        21        26        27        29     9      180.000000       -0.861345         2    ;  uncertainty k = 0.805164
        21        26        27        29     9        0.000000        1.201043         3    ;  uncertainty k = 0.425533
        21        26        27        29     9      180.000000       -0.042324         4    ;  uncertainty k = 0.375368
        21        26        27        30     9        0.000000        0.262419         1    ;  uncertainty k = 1.833671
        21        26        27        30     9      180.000000       -1.026928         2    ;  uncertainty k = 0.798424
        21        26        27        30     9        0.000000        0.956202         3    ;  uncertainty k = 0.348086
        21        26        27        30     9      180.000000        0.178350         4    ;  uncertainty k = 0.195567
        22        21        12        35     9        0.000000        0.917542         1    ;  uncertainty k = 1.463603
        22        21        12        35     9      180.000000        4.182459         2    ;  uncertainty k = 0.765144
        22        21        12        35     9        0.000000       -0.106076         3    ;  uncertainty k = 0.498483
        22        21        12        35     9      180.000000       -0.220151         4    ;  uncertainty k = 0.253379
        22        21        26        25     9        0.000000       -0.438836         1    ;  uncertainty k = 0.840319
        22        21        26        25     9      180.000000        4.610450         2    ;  uncertainty k = 1.641701
        22        21        26        25     9        0.000000        0.358136         3    ;  uncertainty k = 0.323564
        22        21        26        25     9      180.000000        1.351097         4    ;  uncertainty k = 0.315699
        22        21        26        27     9        0.000000        0.917644         1    ;  uncertainty k = 0.634888
        22        21        26        27     9      180.000000        4.793052         2    ;  uncertainty k = 1.087369
        22        21        26        27     9        0.000000        1.108848         3    ;  uncertainty k = 0.290817
        22        21        26        27     9      180.000000        1.561542         4    ;  uncertainty k = 0.342191
        22        23        24        25     9        0.000000       -0.485019         1    ;  uncertainty k = 0.425216
        22        23        24        25     9      180.000000       15.189731         2    ;  uncertainty k = 0.461238
        22        23        24        25     9        0.000000        1.127627         3    ;  uncertainty k = 0.661679
        22        23        24        25     9      180.000000        1.285431         4    ;  uncertainty k = 0.097276
        22        23        24        44     9        0.000000        0.172532         1    ;  uncertainty k = 0.566096
        22        23        24        44     9      180.000000       15.445790         2    ;  uncertainty k = 0.425751
        22        23        24        44     9        0.000000        2.152702         3    ;  uncertainty k = 0.508048
        22        23        24        44     9      180.000000        1.381411         4    ;  uncertainty k = 0.359273
        23        22        21        26     9        0.000000       -0.562844         1    ;  uncertainty k = 0.540741
        23        22        21        26     9      180.000000        6.748516         2    ;  uncertainty k = 1.268444
        23        22        21        26     9        0.000000        0.077078         3    ;  uncertainty k = 0.370452
        23        22        21        26     9      180.000000        1.216829         4    ;  uncertainty k = 0.295894
        23        24        25        26     9        0.000000       -0.252469         1    ;  uncertainty k = 0.431542
        23        24        25        26     9      180.000000       13.556322         2    ;  uncertainty k = 0.574918
        23        24        25        26     9        0.000000       -1.106331         3    ;  uncertainty k = 1.113054
        23        24        25        26     9      180.000000        0.952273         4    ;  uncertainty k = 0.151718
        23        24        25        45     9        0.000000       -0.068095         1    ;  uncertainty k = 0.262319
        23        24        25        45     9      180.000000        9.165642         2    ;  uncertainty k = 0.726879
        23        24        25        45     9        0.000000        0.979808         3    ;  uncertainty k = 0.350347
        23        24        25        45     9      180.000000        1.652653         4    ;  uncertainty k = 0.185846
        24        23        22        43     9        0.000000        0.508068         1    ;  uncertainty k = 0.686768
        24        23        22        43     9      180.000000       16.706316         2    ;  uncertainty k = 0.583289
        24        23        22        43     9        0.000000        2.361241         3    ;  uncertainty k = 0.235965
        24        23        22        43     9      180.000000        1.517602         4    ;  uncertainty k = 0.508263
        24        25        26        27     9        0.000000        0.601784         1    ;  uncertainty k = 0.840720
        24        25        26        27     9      180.000000        9.254868         2    ;  uncertainty k = 0.664789
        24        25        26        27     9        0.000000        1.560649         3    ;  uncertainty k = 0.502422
        24        25        26        27     9      180.000000        1.838812         4    ;  uncertainty k = 0.146620
        25        26        27        28     9        0.000000       -0.492329         1    ;  uncertainty k = 1.108208
        25        26        27        28     9      180.000000        0.135604         2    ;  uncertainty k = 0.455040
        25        26        27        28     9        0.000000        0.177825         3    ;  uncertainty k = 0.237274
        25        26        27        28     9      180.000000        0.012963         4    ;  uncertainty k = 0.209193
        25        26        27        29     9        0.000000       -0.492329         1    ;  uncertainty k = 1.108208
        25        26        27        29     9      180.000000        0.135604         2    ;  uncertainty k = 0.455040
        25        26        27        29     9        0.000000        0.177825         3    ;  uncertainty k = 0.237274
        25        26        27        29     9      180.000000        0.012963         4    ;  uncertainty k = 0.209193
        25        26        27        30     9        0.000000        3.406873         1    ;  uncertainty k = 1.708514
        25        26        27        30     9      180.000000        0.171419         2    ;  uncertainty k = 0.576992
        25        26        27        30     9        0.000000       -0.078308         3    ;  uncertainty k = 0.399032
        25        26        27        30     9      180.000000        0.444415         4    ;  uncertainty k = 0.155672
        26        21        12        35     9        0.000000        9.262100         1    ;  uncertainty k = 0.773178
        26        21        12        35     9      180.000000        3.945831         2    ;  uncertainty k = 0.536445
        26        21        12        35     9        0.000000        0.752572         3    ;  uncertainty k = 0.273740
        26        21        12        35     9      180.000000       -0.119638         4    ;  uncertainty k = 0.176171
        26        21        22        43     9        0.000000        0.000816         1    ;  uncertainty k = 1.384590
        26        21        22        43     9      180.000000        4.685089         2    ;  uncertainty k = 1.110640
        26        21        22        43     9        0.000000        1.104676         3    ;  uncertainty k = 0.238511
        26        21        22        43     9      180.000000        1.089443         4    ;  uncertainty k = 0.205054
        26        25        24        44     9        0.000000       -0.148525         1    ;  uncertainty k = 0.589762
        26        25        24        44     9      180.000000        6.244192         2    ;  uncertainty k = 0.249576
        26        25        24        44     9        0.000000        1.014104         3    ;  uncertainty k = 0.237436
        26        25        24        44     9      180.000000        1.497615         4    ;  uncertainty k = 0.181166
        26        27        30        46     9        0.000000        2.345205         1    ;  uncertainty k = 0.643494
        26        27        30        46     9      180.000000       -2.433988         2    ;  uncertainty k = 0.375725
        26        27        30        46     9        0.000000        0.170343         3    ;  uncertainty k = 0.101207
        26        27        30        46     9      180.000000        0.001304         4    ;  uncertainty k = 0.149206
        26        27        30        47     9        0.000000        2.345205         1    ;  uncertainty k = 0.643494
        26        27        30        47     9      180.000000       -2.433988         2    ;  uncertainty k = 0.375725
        26        27        30        47     9        0.000000        0.170343         3    ;  uncertainty k = 0.101207
        26        27        30        47     9      180.000000        0.001304         4    ;  uncertainty k = 0.149206
        26        27        30        48     9        0.000000        2.345205         1    ;  uncertainty k = 0.643494
        26        27        30        48     9      180.000000       -2.433988         2    ;  uncertainty k = 0.375725
        26        27        30        48     9        0.000000        0.170343         3    ;  uncertainty k = 0.101207
        26        27        30        48     9      180.000000        0.001304         4    ;  uncertainty k = 0.149206
        27        26        25        45     9        0.000000       -0.424036         1    ;  uncertainty k = 0.616071
        27        26        25        45     9      180.000000        7.010375         2    ;  uncertainty k = 0.550570
        27        26        25        45     9        0.000000        0.781435         3    ;  uncertainty k = 0.169298
        27        26        25        45     9      180.000000        1.269235         4    ;  uncertainty k = 0.186788
        28        27        30        46     9        0.000000       -0.057641         1    ;  uncertainty k = 0.603700
        28        27        30        46     9      180.000000       -0.366450         2    ;  uncertainty k = 0.288160
        28        27        30        46     9        0.000000        0.801561         3    ;  uncertainty k = 0.057212
        28        27        30        46     9      180.000000        0.039212         4    ;  uncertainty k = 0.101280
        28        27        30        47     9        0.000000       -0.057641         1    ;  uncertainty k = 0.603700
        28        27        30        47     9      180.000000       -0.366450         2    ;  uncertainty k = 0.288160
        28        27        30        47     9        0.000000        0.801561         3    ;  uncertainty k = 0.057212
        28        27        30        47     9      180.000000        0.039212         4    ;  uncertainty k = 0.101280
        28        27        30        48     9        0.000000       -0.057641         1    ;  uncertainty k = 0.603700
        28        27        30        48     9      180.000000       -0.366450         2    ;  uncertainty k = 0.288160
        28        27        30        48     9        0.000000        0.801561         3    ;  uncertainty k = 0.057212
        28        27        30        48     9      180.000000        0.039212         4    ;  uncertainty k = 0.101280
        29        27        30        46     9        0.000000       -0.057641         1    ;  uncertainty k = 0.603700
        29        27        30        46     9      180.000000       -0.366450         2    ;  uncertainty k = 0.288160
        29        27        30        46     9        0.000000        0.801561         3    ;  uncertainty k = 0.057212
        29        27        30        46     9      180.000000        0.039212         4    ;  uncertainty k = 0.101280
        29        27        30        47     9        0.000000       -0.057641         1    ;  uncertainty k = 0.603700
        29        27        30        47     9      180.000000       -0.366450         2    ;  uncertainty k = 0.288160
        29        27        30        47     9        0.000000        0.801561         3    ;  uncertainty k = 0.057212
        29        27        30        47     9      180.000000        0.039212         4    ;  uncertainty k = 0.101280
        29        27        30        48     9        0.000000       -0.057641         1    ;  uncertainty k = 0.603700
        29        27        30        48     9      180.000000       -0.366450         2    ;  uncertainty k = 0.288160
        29        27        30        48     9        0.000000        0.801561         3    ;  uncertainty k = 0.057212
        29        27        30        48     9      180.000000        0.039212         4    ;  uncertainty k = 0.101280
        31         3         4        32     9        0.000000       -0.152652         1    ;  uncertainty k = 0.805688
        31         3         4        32     9      180.000000        5.398109         2    ;  uncertainty k = 0.723627
        31         3         4        32     9        0.000000        0.147471         3    ;  uncertainty k = 0.248173
        31         3         4        32     9      180.000000        0.216442         4    ;  uncertainty k = 0.153409
        36        13        14        37     9        0.000000       -0.110403         1    ;  uncertainty k = 0.326866
        36        13        14        37     9      180.000000        7.433535         2    ;  uncertainty k = 0.304962
        36        13        14        37     9        0.000000       -0.320072         3    ;  uncertainty k = 0.295333
        36        13        14        37     9      180.000000        0.136463         4    ;  uncertainty k = 0.087849
        39        19        20        41     9        0.000000        0.443660         1    ;  uncertainty k = 0.286565
        39        19        20        41     9      180.000000       -0.243002         2    ;  uncertainty k = 0.195561
        39        19        20        41     9        0.000000        0.347298         3    ;  uncertainty k = 0.106708
        39        19        20        41     9      180.000000        0.034238         4    ;  uncertainty k = 0.091689
        39        19        20        42     9        0.000000        0.443660         1    ;  uncertainty k = 0.286565
        39        19        20        42     9      180.000000       -0.243002         2    ;  uncertainty k = 0.195561
        39        19        20        42     9        0.000000        0.347298         3    ;  uncertainty k = 0.106708
        39        19        20        42     9      180.000000        0.034238         4    ;  uncertainty k = 0.091689
        40        19        20        41     9        0.000000        0.443660         1    ;  uncertainty k = 0.286565
        40        19        20        41     9      180.000000       -0.243002         2    ;  uncertainty k = 0.195561
        40        19        20        41     9        0.000000        0.347298         3    ;  uncertainty k = 0.106708
        40        19        20        41     9      180.000000        0.034238         4    ;  uncertainty k = 0.091689
        40        19        20        42     9        0.000000        0.443660         1    ;  uncertainty k = 0.286565
        40        19        20        42     9      180.000000       -0.243002         2    ;  uncertainty k = 0.195561
        40        19        20        42     9        0.000000        0.347298         3    ;  uncertainty k = 0.106708
        40        19        20        42     9      180.000000        0.034238         4    ;  uncertainty k = 0.091689
        44        24        25        45     9        0.000000       -0.307962         1    ;  uncertainty k = 0.440104
        44        24        25        45     9      180.000000        6.502710         2    ;  uncertainty k = 0.379417
        44        24        25        45     9        0.000000       -0.130867         3    ;  uncertainty k = 0.246878
        44        24        25        45     9      180.000000        0.283979         4    ;  uncertainty k = 0.141773

[ dihedrals ] ; impropers
;       ai        aj        ak        al funct           phase               k        pn
         3         2         4        31     4      180.000000       12.058349         2    ;  uncertainty k = 0.155868
         3         4        31         2     4      180.000000       12.058349         2    ;  uncertainty k = 0.155868
         3        31         2         4     4      180.000000       12.058349         2    ;  uncertainty k = 0.155868
         4         1         3        32     4      180.000000       11.948849         2    ;  uncertainty k = 0.101429
         4         3        32         1     4      180.000000       11.948849         2    ;  uncertainty k = 0.101429
         4        32         1         3     4      180.000000       11.948849         2    ;  uncertainty k = 0.101429
         5         2         6        10     4      180.000000       16.653203         2    ;  uncertainty k = 0.085341
         5         6        10         2     4      180.000000       16.653203         2    ;  uncertainty k = 0.085341
         5        10         2         6     4      180.000000       16.653203         2    ;  uncertainty k = 0.085341
         6         1         5         7     4      180.000000       18.442493         2    ;  uncertainty k = 0.055238
         6         5         7         1     4      180.000000       18.442493         2    ;  uncertainty k = 0.055238
         6         7         1         5     4      180.000000       18.442493         2    ;  uncertainty k = 0.055238
         7         6         8        33     4      180.000000        2.538910         2    ;  uncertainty k = 0.373104
         7         8        33         6     4      180.000000        2.538910         2    ;  uncertainty k = 0.373104
         7        33         6         8     4      180.000000        2.538910         2    ;  uncertainty k = 0.373104
         8         7         9        12     4      180.000000       20.686961         2    ;  uncertainty k = 0.060627
         8         9        12         7     4      180.000000       20.686961         2    ;  uncertainty k = 0.060627
         8        12         7         9     4      180.000000       20.686961         2    ;  uncertainty k = 0.060627
         9         8        10        34     4      180.000000        3.095663         2    ;  uncertainty k = 0.356853
         9        10        34         8     4      180.000000        3.095663         2    ;  uncertainty k = 0.356853
         9        34         8        10     4      180.000000        3.095663         2    ;  uncertainty k = 0.356853
        10         5         9        11     4      180.000000       17.986258         2    ;  uncertainty k = 0.111105
        10         9        11         5     4      180.000000       17.986258         2    ;  uncertainty k = 0.111105
        10        11         5         9     4      180.000000       17.986258         2    ;  uncertainty k = 0.111105
        11        10        13        15     4      180.000000       11.459766         2    ;  uncertainty k = 0.209242
        11        13        15        10     4      180.000000       11.459766         2    ;  uncertainty k = 0.209242
        11        15        10        13     4      180.000000       11.459766         2    ;  uncertainty k = 0.209242
        12         8        21        35     4      180.000000        1.379953         2    ;  uncertainty k = 1.192014
        12        21        35         8     4      180.000000        1.379953         2    ;  uncertainty k = 1.192014
        12        35         8        21     4      180.000000        1.379953         2    ;  uncertainty k = 1.192014
        13        11        14        36     4      180.000000        4.214657         2    ;  uncertainty k = 0.103845
        13        14        36        11     4      180.000000        4.214657         2    ;  uncertainty k = 0.103845
        13        36        11        14     4      180.000000        4.214657         2    ;  uncertainty k = 0.103845
        14        13        17        37     4      180.000000        2.257811         2    ;  uncertainty k = 0.246104
        14        17        37        13     4      180.000000        2.257811         2    ;  uncertainty k = 0.246104
        14        37        13        17     4      180.000000        2.257811         2    ;  uncertainty k = 0.246104
        15        11        16        38     4      180.000000        4.986449         2    ;  uncertainty k = 0.194426
        15        16        38        11     4      180.000000        4.986449         2    ;  uncertainty k = 0.194426
        15        38        11        16     4      180.000000        4.986449         2    ;  uncertainty k = 0.194426
        16        15        17        20     4      180.000000        1.823509         2    ;  uncertainty k = 0.493481
        16        17        20        15     4      180.000000        1.823509         2    ;  uncertainty k = 0.493481
        16        20        15        17     4      180.000000        1.823509         2    ;  uncertainty k = 0.493481
        17        14        16        18     4      180.000000        8.607914         2    ;  uncertainty k = 0.189321
        17        16        18        14     4      180.000000        8.607914         2    ;  uncertainty k = 0.189321
        17        18        14        16     4      180.000000        8.607914         2    ;  uncertainty k = 0.189321
        21        12        22        26     4      180.000000       22.010768         2    ;  uncertainty k = 0.077537
        21        22        26        12     4      180.000000       22.010768         2    ;  uncertainty k = 0.077537
        21        26        12        22     4      180.000000       22.010768         2    ;  uncertainty k = 0.077537
        22        21        23        43     4      180.000000       10.900442         2    ;  uncertainty k = 0.192114
        22        23        43        21     4      180.000000       10.900442         2    ;  uncertainty k = 0.192114
        22        43        21        23     4      180.000000       10.900442         2    ;  uncertainty k = 0.192114
        24        23        25        44     4      180.000000       11.385377         2    ;  uncertainty k = 0.107036
        24        25        44        23     4      180.000000       11.385377         2    ;  uncertainty k = 0.107036
        24        44        23        25     4      180.000000       11.385377         2    ;  uncertainty k = 0.107036
        25        24        26        45     4      180.000000        4.322240         2    ;  uncertainty k = 0.262313
        25        26        45        24     4      180.000000        4.322240         2    ;  uncertainty k = 0.262313
        25        45        24        26     4      180.000000        4.322240         2    ;  uncertainty k = 0.262313
        26        21        25        27     4      180.000000        5.945009         2    ;  uncertainty k = 0.459976
        26        25        27        21     4      180.000000        5.945009         2    ;  uncertainty k = 0.459976
        26        27        21        25     4      180.000000        5.945009         2    ;  uncertainty k = 0.459976

[ pairs ]
;       ai        aj funct
         1         2     1
         1         8     1
         1        10     1
         1        31     1
         1        33     1
         2         7     1
         2         9     1
         2        11     1
         2        32     1
         3         6     1
         3        10     1
         4         5     1
         4         7     1
         5         8     1
         5        13     1
         5        15     1
         5        31     1
         5        33     1
         5        34     1
         6         9     1
         6        11     1
         6        12     1
         6        32     1
         7        10     1
         7        21     1
         7        34     1
         7        35     1
         8        11     1
         8        22     1
         8        26     1
         9        13     1
         9        15     1
         9        21     1
         9        33     1
         9        35     1
        10        12     1
        10        14     1
        10        16     1
        10        36     1
        10        38     1
        11        17     1
        11        20     1
        11        34     1
        11        37     1
        12        23     1
        12        25     1
        12        27     1
        12        33     1
        12        34     1
        12        43     1
        13        16     1
        13        18     1
        13        38     1
        14        15     1
        14        19     1
        14        20     1
        15        18     1
        15        19     1
        15        36     1
        15        41     1
        15        42     1
        16        37     1
        16        39     1
        16        40     1
        17        36     1
        17        38     1
        17        39     1
        17        40     1
        17        41     1
        17        42     1
        18        37     1
        18        41     1
        18        42     1
        20        38     1
        21        24     1
        21        28     1
        21        29     1
        21        30     1
        21        45     1
        22        25     1
        22        27     1
        22        35     1
        22        44     1
        23        26     1
        23        45     1
        24        27     1
        24        43     1
        25        28     1
        25        29     1
        25        30     1
        26        35     1
        26        43     1
        26        44     1
        26        46     1
        26        47     1
        26        48     1
        27        45     1
        28        46     1
        28        47     1
        28        48     1
        29        46     1
        29        47     1
        29        48     1
        31        32     1
        36        37     1
        39        41     1
        39        42     1
        40        41     1
        40        42     1
        44        45     1
