; ITP file created by ByteFF-joint-25, 2026-02-17 09:22:33.051989

[ atomtypes ]
;name           bonded.type        at.num        mass        charge   ptype           sigma         epsilon
 n0bf                                   7      0.0000       0.00000       A     3.38414e-01     3.93827e-01    ;  uncertainty sigma = 0.000003, epsilon = 0.000862
 n1bf                                   7      0.0000       0.00000       A     3.38415e-01     3.93854e-01    ;  uncertainty sigma = 0.000010, epsilon = 0.001065
 c2bf                                   6      0.0000       0.00000       A     3.31531e-01     4.13177e-01    ;  uncertainty sigma = 0.000013, epsilon = 0.000483
 c3bf                                   6      0.0000       0.00000       A     3.31530e-01     4.13238e-01    ;  uncertainty sigma = 0.000010, epsilon = 0.000599
 c4bf                                   6      0.0000       0.00000       A     3.31520e-01     4.13032e-01    ;  uncertainty sigma = 0.000010, epsilon = 0.001099
 c5bf                                   6      0.0000       0.00000       A     3.31516e-01     4.13470e-01    ;  uncertainty sigma = 0.000011, epsilon = 0.000986
 c6bf                                   6      0.0000       0.00000       A     3.31509e-01     4.13539e-01    ;  uncertainty sigma = 0.000009, epsilon = 0.000465
 c7bf                                   6      0.0000       0.00000       A     3.31538e-01     4.13732e-01    ;  uncertainty sigma = 0.000012, epsilon = 0.001772
 c8bf                                   6      0.0000       0.00000       A     3.31495e-01     4.13442e-01    ;  uncertainty sigma = 0.000006, epsilon = 0.000713
 c9bf                                   6      0.0000       0.00000       A     3.31494e-01     4.12632e-01    ;  uncertainty sigma = 0.000011, epsilon = 0.000887
 c10bf                                  6      0.0000       0.00000       A     3.31493e-01     4.13085e-01    ;  uncertainty sigma = 0.000012, epsilon = 0.001096
 n11bf                                  7      0.0000       0.00000       A     3.27956e-01     6.47518e-01    ;  uncertainty sigma = 0.000036, epsilon = 0.003822
 c12bf                                  6      0.0000       0.00000       A     3.31515e-01     4.13273e-01    ;  uncertainty sigma = 0.000005, epsilon = 0.000488
 c13bf                                  6      0.0000       0.00000       A     3.31520e-01     4.13535e-01    ;  uncertainty sigma = 0.000003, epsilon = 0.000768
 c14bf                                  6      0.0000       0.00000       A     3.31509e-01     4.13573e-01    ;  uncertainty sigma = 0.000007, epsilon = 0.000771
 c15bf                                  6      0.0000       0.00000       A     3.31502e-01     4.13462e-01    ;  uncertainty sigma = 0.000018, epsilon = 0.002180
 c16bf                                  6      0.0000       0.00000       A     3.31532e-01     4.13419e-01    ;  uncertainty sigma = 0.000012, epsilon = 0.000931
 n17bf                                  7      0.0000       0.00000       A     3.38420e-01     3.93806e-01    ;  uncertainty sigma = 0.000013, epsilon = 0.000881
 c18bf                                  6      0.0000       0.00000       A     3.31513e-01     4.13350e-01    ;  uncertainty sigma = 0.000011, epsilon = 0.000728
 c19bf                                  6      0.0000       0.00000       A     3.31518e-01     4.13124e-01    ;  uncertainty sigma = 0.000015, epsilon = 0.000361
 c20bf                                  6      0.0000       0.00000       A     3.31501e-01     4.13078e-01    ;  uncertainty sigma = 0.000025, epsilon = 0.001598
 s21bf                                 16      0.0000       0.00000       A     4.05775e-01     2.56504e-01    ;  uncertainty sigma = 0.000009, epsilon = 0.002944
 o22bf                                  8      0.0000       0.00000       A     3.04808e-01     6.12058e-01    ;  uncertainty sigma = 0.000011, epsilon = 0.001075
 o23bf                                  8      0.0000       0.00000       A     3.04808e-01     6.12058e-01    ;  uncertainty sigma = 0.000011, epsilon = 0.001075
 c24bf                                  6      0.0000       0.00000       A     3.39790e-01     4.50653e-01    ;  uncertainty sigma = 0.000003, epsilon = 0.000848
 c25bf                                  6      0.0000       0.00000       A     3.31511e-01     4.13342e-01    ;  uncertainty sigma = 0.000004, epsilon = 0.000736
 c26bf                                  6      0.0000       0.00000       A     3.31508e-01     4.13381e-01    ;  uncertainty sigma = 0.000003, epsilon = 0.000757
 o27bf                                  8      0.0000       0.00000       A     3.15622e-01     3.03641e-01    ;  uncertainty sigma = 0.000015, epsilon = 0.000957
 c28bf                                  6      0.0000       0.00000       A     3.39774e-01     4.50864e-01    ;  uncertainty sigma = 0.000009, epsilon = 0.000621
 c29bf                                  6      0.0000       0.00000       A     3.39774e-01     4.50864e-01    ;  uncertainty sigma = 0.000009, epsilon = 0.000621
 o30bf                                  8      0.0000       0.00000       A     3.15634e-01     3.03755e-01    ;  uncertainty sigma = 0.000014, epsilon = 0.000927
 h31bf                                  1      0.0000       0.00000       A     2.53628e-01     6.69334e-02    ;  uncertainty sigma = 0.000020, epsilon = 0.000763
 h32bf                                  1      0.0000       0.00000       A     2.53628e-01     6.69334e-02    ;  uncertainty sigma = 0.000020, epsilon = 0.000763
 h33bf                                  1      0.0000       0.00000       A     2.62540e-01     6.71221e-02    ;  uncertainty sigma = 0.000022, epsilon = 0.000645
 h34bf                                  1      0.0000       0.00000       A     2.62566e-01     6.71159e-02    ;  uncertainty sigma = 0.000015, epsilon = 0.000400
 h35bf                                  1      0.0000       0.00000       A     1.10720e-01     4.14040e-02    ;  uncertainty sigma = 0.000106, epsilon = 0.001477
 h36bf                                  1      0.0000       0.00000       A     2.62564e-01     6.71413e-02    ;  uncertainty sigma = 0.000007, epsilon = 0.000543
 h37bf                                  1      0.0000       0.00000       A     2.62562e-01     6.68741e-02    ;  uncertainty sigma = 0.000009, epsilon = 0.000591
 h38bf                                  1      0.0000       0.00000       A     2.62557e-01     6.71799e-02    ;  uncertainty sigma = 0.000017, epsilon = 0.000556
 h39bf                                  1      0.0000       0.00000       A     2.53624e-01     6.69778e-02    ;  uncertainty sigma = 0.000049, epsilon = 0.000568
 h40bf                                  1      0.0000       0.00000       A     2.53633e-01     6.70304e-02    ;  uncertainty sigma = 0.000014, epsilon = 0.000494
 h41bf                                  1      0.0000       0.00000       A     2.62533e-01     6.70950e-02    ;  uncertainty sigma = 0.000019, epsilon = 0.000754
 h42bf                                  1      0.0000       0.00000       A     2.42167e-01     8.68275e-02    ;  uncertainty sigma = 0.000012, epsilon = 0.000620
 h43bf                                  1      0.0000       0.00000       A     2.42167e-01     8.68275e-02    ;  uncertainty sigma = 0.000012, epsilon = 0.000620
 h44bf                                  1      0.0000       0.00000       A     2.42167e-01     8.68275e-02    ;  uncertainty sigma = 0.000012, epsilon = 0.000620
 h45bf                                  1      0.0000       0.00000       A     2.42208e-01     8.68243e-02    ;  uncertainty sigma = 0.000028, epsilon = 0.000782
 h46bf                                  1      0.0000       0.00000       A     2.42208e-01     8.68243e-02    ;  uncertainty sigma = 0.000028, epsilon = 0.000782
 h47bf                                  1      0.0000       0.00000       A     2.42208e-01     8.68243e-02    ;  uncertainty sigma = 0.000028, epsilon = 0.000782
 h48bf                                  1      0.0000       0.00000       A     2.42208e-01     8.68242e-02    ;  uncertainty sigma = 0.000028, epsilon = 0.000782

[ moleculetype ]
;name             nrexcl
 MOL                   3

[ atoms ]
;       nr            type      resi   res      atom      cgnr      charge          mass ; qtot
         1            n0bf         1   UNL        n0         1    -0.62862       14.0070 ; qtot   -0.629
         2            n1bf         1   UNL        n1         2    -0.61837       14.0070 ; qtot   -1.247
         3            c2bf         1   UNL        c2         3     0.29560       12.0110 ; qtot   -0.951
         4            c3bf         1   UNL        c3         4     0.29621       12.0110 ; qtot   -0.655
         5            c4bf         1   UNL        c4         5     0.27686       12.0110 ; qtot   -0.378
         6            c5bf         1   UNL        c5         6     0.32364       12.0110 ; qtot   -0.055
         7            c6bf         1   UNL        c6         7    -0.22162       12.0110 ; qtot   -0.276
         8            c7bf         1   UNL        c7         8     0.17398       12.0110 ; qtot   -0.102
         9            c8bf         1   UNL        c8         9    -0.15823       12.0110 ; qtot   -0.261
        10            c9bf         1   UNL        c9        10    -0.02643       12.0110 ; qtot   -0.287
        11           c10bf         1   UNL       c10        11    -0.03789       12.0110 ; qtot   -0.325
        12           n11bf         1   UNL       n11        12    -0.64735       14.0070 ; qtot   -0.972
        13           c12bf         1   UNL       c12        13    -0.10099       12.0110 ; qtot   -1.073
        14           c13bf         1   UNL       c13        14    -0.12899       12.0110 ; qtot   -1.202
        15           c14bf         1   UNL       c14        15    -0.10384       12.0110 ; qtot   -1.306
        16           c15bf         1   UNL       c15        16     0.15628       12.0110 ; qtot   -1.150
        17           c16bf         1   UNL       c16        17     0.33325       12.0110 ; qtot   -0.817
        18           n17bf         1   UNL       n17        18    -0.60182       14.0070 ; qtot   -1.418
        19           c18bf         1   UNL       c18        19     0.35581       12.0110 ; qtot   -1.063
        20           c19bf         1   UNL       c19        20    -0.13704       12.0110 ; qtot   -1.200
        21           c20bf         1   UNL       c20        21    -0.26398       12.0110 ; qtot   -1.464
        22           s21bf         1   UNL       s21        22     1.01656       32.0670 ; qtot   -0.447
        23           o22bf         1   UNL       o22        23    -0.58472       15.9990 ; qtot   -1.032
        24           o23bf         1   UNL       o23        24    -0.58472       15.9990 ; qtot   -1.616
        25           c24bf         1   UNL       c24        25    -0.18352       12.0110 ; qtot   -1.800
        26           c25bf         1   UNL       c25        26     0.05184       12.0110 ; qtot   -1.748
        27           c26bf         1   UNL       c26        27     0.06132       12.0110 ; qtot   -1.687
        28           o27bf         1   UNL       o27        28    -0.31283       15.9990 ; qtot   -2.000
        29           c28bf         1   UNL       c28        29     0.09300       12.0110 ; qtot   -1.907
        30           c29bf         1   UNL       c29        30     0.09336       12.0110 ; qtot   -1.813
        31           o30bf         1   UNL       o30        31    -0.31331       15.9990 ; qtot   -2.127
        32           h31bf         1   UNL       h31        32     0.03380        1.0080 ; qtot   -2.093
        33           h32bf         1   UNL       h32        33     0.03331        1.0080 ; qtot   -2.059
        34           h33bf         1   UNL       h33        34     0.15776        1.0080 ; qtot   -1.902
        35           h34bf         1   UNL       h34        35     0.14739        1.0080 ; qtot   -1.754
        36           h35bf         1   UNL       h35        36     0.47844        1.0080 ; qtot   -1.276
        37           h36bf         1   UNL       h36        37     0.14406        1.0080 ; qtot   -1.132
        38           h37bf         1   UNL       h37        38     0.14915        1.0080 ; qtot   -0.983
        39           h38bf         1   UNL       h38        39     0.15303        1.0080 ; qtot   -0.830
        40           h39bf         1   UNL       h39        40     0.03967        1.0080 ; qtot   -0.790
        41           h40bf         1   UNL       h40        41     0.03424        1.0080 ; qtot   -0.756
        42           h41bf         1   UNL       h41        42     0.16807        1.0080 ; qtot   -0.588
        43           h42bf         1   UNL       h42        43     0.10378        1.0080 ; qtot   -0.484
        44           h43bf         1   UNL       h43        44     0.10378        1.0080 ; qtot   -0.380
        45           h44bf         1   UNL       h44        45     0.10378        1.0080 ; qtot   -0.276
        46           h45bf         1   UNL       h45        46     0.06907        1.0080 ; qtot   -0.207
        47           h46bf         1   UNL       h46        47     0.06907        1.0080 ; qtot   -0.138
        48           h47bf         1   UNL       h47        48     0.06907        1.0080 ; qtot   -0.069
        49           h48bf         1   UNL       h48        49     0.06909        1.0080 ; qtot    0.000

[ bonds ]
;       ai        aj funct               r               k
         1         4     1        0.131606   448635.018164    ;  uncertainty r = 0.000067, k = 6.059825
         1         6     1        0.136382   355171.598340    ;  uncertainty r = 0.000057, k = 8.738537
         2         3     1        0.131584   437137.956152    ;  uncertainty r = 0.000061, k = 11.801020
         2         5     1        0.135778   353105.007764    ;  uncertainty r = 0.000090, k = 12.247048
         3         4     1        0.141378   325245.374902    ;  uncertainty r = 0.000067, k = 16.241050
         3        32     1        0.109180   341408.015723    ;  uncertainty r = 0.000031, k = 1.111515
         4        33     1        0.109175   341608.201123    ;  uncertainty r = 0.000026, k = 2.358967
         5         6     1        0.142986   298955.789062    ;  uncertainty r = 0.000070, k = 15.529028
         5        10     1        0.143087   310743.999658    ;  uncertainty r = 0.000108, k = 16.756457
         6         7     1        0.141431   396079.468311    ;  uncertainty r = 0.000094, k = 15.205662
         7         8     1        0.138770   381943.478027    ;  uncertainty r = 0.000111, k = 9.337689
         7        34     1        0.108811   340366.765625    ;  uncertainty r = 0.000031, k = 1.855832
         8         9     1        0.142016   351723.960889    ;  uncertainty r = 0.000226, k = 13.039620
         8        12     1        0.141414   345942.921143    ;  uncertainty r = 0.000097, k = 12.910238
         9        10     1        0.137971   347109.098779    ;  uncertainty r = 0.000131, k = 16.295757
         9        35     1        0.108883   338478.321924    ;  uncertainty r = 0.000019, k = 3.628971
        10        11     1        0.148076   281720.436426    ;  uncertainty r = 0.000103, k = 16.475649
        11        13     1        0.140295   345606.367578    ;  uncertainty r = 0.000129, k = 5.107312
        11        15     1        0.139871   353470.367188    ;  uncertainty r = 0.000057, k = 4.882197
        12        16     1        0.139103   334487.356934    ;  uncertainty r = 0.000264, k = 9.014077
        12        36     1        0.101492   409720.242969    ;  uncertainty r = 0.000088, k = 5.983700
        13        14     1        0.139179   370939.665283    ;  uncertainty r = 0.000040, k = 3.006844
        13        37     1        0.108706   333887.515771    ;  uncertainty r = 0.000022, k = 1.690350
        14        27     1        0.139698   359046.650391    ;  uncertainty r = 0.000029, k = 3.509057
        14        38     1        0.108798   337028.631299    ;  uncertainty r = 0.000024, k = 1.790547
        15        26     1        0.139444   357723.572754    ;  uncertainty r = 0.000034, k = 3.324877
        15        39     1        0.108792   337211.451465    ;  uncertainty r = 0.000015, k = 1.970392
        16        17     1        0.140927   340447.897021    ;  uncertainty r = 0.000113, k = 16.488682
        16        21     1        0.141356   348414.581348    ;  uncertainty r = 0.000198, k = 15.946785
        17        18     1        0.132524   387119.543652    ;  uncertainty r = 0.000108, k = 11.004631
        17        40     1        0.108905   336131.001904    ;  uncertainty r = 0.000101, k = 3.724292
        18        19     1        0.133802   397972.278857    ;  uncertainty r = 0.000074, k = 5.323603
        19        20     1        0.139170   363105.084424    ;  uncertainty r = 0.000048, k = 3.861484
        19        41     1        0.108994   339519.240039    ;  uncertainty r = 0.000025, k = 1.411827
        20        21     1        0.138845   368349.257520    ;  uncertainty r = 0.000202, k = 14.185219
        20        42     1        0.108610   333138.767725    ;  uncertainty r = 0.000052, k = 1.956172
        21        22     1        0.180205   137177.894727    ;  uncertainty r = 0.000181, k = 18.369765
        22        23     1        0.147757   507438.298437    ;  uncertainty r = 0.000058, k = 6.198400
        22        24     1        0.147757   507438.298437    ;  uncertainty r = 0.000058, k = 6.198400
        22        25     1        0.181050   174448.769580    ;  uncertainty r = 0.000039, k = 9.209305
        25        43     1        0.109286   321567.954541    ;  uncertainty r = 0.000031, k = 1.364991
        25        44     1        0.109286   321567.954541    ;  uncertainty r = 0.000031, k = 1.364991
        25        45     1        0.109286   321567.954541    ;  uncertainty r = 0.000031, k = 1.364991
        26        27     1        0.140188   351158.262842    ;  uncertainty r = 0.000011, k = 2.400636
        26        31     1        0.137555   314669.538574    ;  uncertainty r = 0.000027, k = 3.213145
        27        28     1        0.137443   315368.974463    ;  uncertainty r = 0.000047, k = 4.887660
        28        29     1        0.142779   266479.072363    ;  uncertainty r = 0.000025, k = 5.740076
        29        30     1        0.151713   212288.662305    ;  uncertainty r = 0.000039, k = 2.607953
        29        46     1        0.109608   310862.619531    ;  uncertainty r = 0.000022, k = 1.508461
        29        47     1        0.109608   310862.619531    ;  uncertainty r = 0.000022, k = 1.508461
        30        31     1        0.142803   266501.749316    ;  uncertainty r = 0.000025, k = 5.618281
        30        48     1        0.109608   310862.619531    ;  uncertainty r = 0.000022, k = 1.508461
        30        49     1        0.109608   310862.619531    ;  uncertainty r = 0.000022, k = 1.508461

[ angles ]
;       ai        aj        ak funct           theta             cth
         1         4         3     1      120.931259      612.842998    ;  uncertainty theta = 0.002470, k = 0.239695
         1         4        33     1      116.754013      350.159800    ;  uncertainty theta = 0.001533, k = 0.075385
         1         6         5     1      119.237061      555.453644    ;  uncertainty theta = 0.007560, k = 0.086708
         1         6         7     1      122.312637      528.712460    ;  uncertainty theta = 0.003351, k = 0.210334
         2         3         4     1      121.240555      622.447314    ;  uncertainty theta = 0.002919, k = 0.205880
         2         3        32     1      116.813477      347.959523    ;  uncertainty theta = 0.001638, k = 0.087624
         2         5         6     1      119.733253      514.201540    ;  uncertainty theta = 0.004312, k = 0.060153
         2         5        10     1      118.068481      466.942374    ;  uncertainty theta = 0.004243, k = 0.237953
         3         2         5     1      116.487465      472.832668    ;  uncertainty theta = 0.004375, k = 0.129808
         3         4        33     1      121.868530      283.534439    ;  uncertainty theta = 0.002376, k = 0.096063
         4         1         6     1      114.458984      488.266211    ;  uncertainty theta = 0.001996, k = 0.147683
         4         3        32     1      121.994606      282.804174    ;  uncertainty theta = 0.002439, k = 0.090842
         5         6         7     1      119.508713      392.049470    ;  uncertainty theta = 0.005326, k = 0.189414
         5        10         9     1      121.293655      457.231665    ;  uncertainty theta = 0.004337, k = 0.139430
         5        10        11     1      119.112534      399.576661    ;  uncertainty theta = 0.004814, k = 0.221667
         6         5        10     1      120.685410      397.461932    ;  uncertainty theta = 0.005531, k = 0.081494
         6         7         8     1      118.206688      518.635644    ;  uncertainty theta = 0.002447, k = 0.073028
         6         7        34     1      120.837975      275.673543    ;  uncertainty theta = 0.003390, k = 0.103596
         7         8         9     1      119.346848      388.125438    ;  uncertainty theta = 0.003729, k = 0.065606
         7         8        12     1      122.010704      487.333947    ;  uncertainty theta = 0.006482, k = 0.189293
         8         7        34     1      121.438538      270.401917    ;  uncertainty theta = 0.001365, k = 0.142094
         8         9        10     1      122.337524      516.110599    ;  uncertainty theta = 0.004838, k = 0.263267
         8         9        35     1      119.379494      284.869392    ;  uncertainty theta = 0.005040, k = 0.126097
         8        12        16     1      115.247620      387.593978    ;  uncertainty theta = 0.002924, k = 0.212981
         8        12        36     1      115.334732      382.605017    ;  uncertainty theta = 0.007384, k = 0.160726
         9         8        12     1      120.273453      499.668084    ;  uncertainty theta = 0.004731, k = 0.336549
         9        10        11     1      120.926804      423.876050    ;  uncertainty theta = 0.003197, k = 0.141633
        10         9        35     1      118.638779      277.878895    ;  uncertainty theta = 0.005185, k = 0.045318
        10        11        13     1      120.713562      395.692658    ;  uncertainty theta = 0.002605, k = 0.086921
        10        11        15     1      120.207359      390.886223    ;  uncertainty theta = 0.003293, k = 0.142806
        11        13        14     1      120.821793      524.280878    ;  uncertainty theta = 0.001700, k = 0.086188
        11        13        37     1      119.643700      282.530895    ;  uncertainty theta = 0.002381, k = 0.081315
        11        15        26     1      121.311684      509.446881    ;  uncertainty theta = 0.001329, k = 0.100158
        11        15        39     1      120.726196      275.021644    ;  uncertainty theta = 0.002677, k = 0.087355
        12        16        17     1      118.512817      444.270049    ;  uncertainty theta = 0.006989, k = 0.276229
        12        16        21     1      122.762405      517.830778    ;  uncertainty theta = 0.007977, k = 0.368248
        13        11        15     1      120.149338      421.086217    ;  uncertainty theta = 0.003385, k = 0.101849
        13        14        27     1      120.732498      507.017345    ;  uncertainty theta = 0.002229, k = 0.078144
        13        14        38     1      121.199158      278.308845    ;  uncertainty theta = 0.001028, k = 0.028845
        14        13        37     1      119.747520      294.001909    ;  uncertainty theta = 0.001087, k = 0.112574
        14        27        26     1      119.811745      343.937109    ;  uncertainty theta = 0.002570, k = 0.116665
        14        27        28     1      120.001381      545.041718    ;  uncertainty theta = 0.001428, k = 0.070994
        15        26        27     1      121.013229      343.512746    ;  uncertainty theta = 0.003671, k = 0.081067
        15        26        31     1      119.426758      531.895597    ;  uncertainty theta = 0.001388, k = 0.108994
        16        12        36     1      114.408607      380.718399    ;  uncertainty theta = 0.008156, k = 0.169224
        16        17        18     1      124.922012      667.515332    ;  uncertainty theta = 0.002966, k = 0.161817
        16        17        40     1      118.731201      264.771767    ;  uncertainty theta = 0.008633, k = 0.144655
        16        21        20     1      123.289940      400.819392    ;  uncertainty theta = 0.003703, k = 0.311812
        16        21        22     1      119.668861      323.012512    ;  uncertainty theta = 0.009862, k = 0.668304
        17        16        21     1      118.657333      362.619739    ;  uncertainty theta = 0.004612, k = 0.362834
        17        18        19     1      118.268311      445.304685    ;  uncertainty theta = 0.004478, k = 0.098123
        18        17        40     1      116.579346      347.314743    ;  uncertainty theta = 0.005152, k = 0.066004
        18        19        20     1      122.431076      677.632432    ;  uncertainty theta = 0.002046, k = 0.093657
        18        19        41     1      116.840332      340.667018    ;  uncertainty theta = 0.001197, k = 0.068775
        19        20        21     1      118.808189      483.994204    ;  uncertainty theta = 0.004991, k = 0.079007
        19        20        42     1      122.214798      277.736813    ;  uncertainty theta = 0.004016, k = 0.070187
        20        19        41     1      120.256363      277.546307    ;  uncertainty theta = 0.002265, k = 0.082403
        20        21        22     1      114.589767      352.518918    ;  uncertainty theta = 0.008187, k = 0.213541
        21        20        42     1      119.535904      260.121156    ;  uncertainty theta = 0.004889, k = 0.124125
        21        22        23     1      112.903687      607.682204    ;  uncertainty theta = 0.002869, k = 0.171145
        21        22        24     1      112.903687      607.682204    ;  uncertainty theta = 0.002869, k = 0.171145
        21        22        25     1      104.371536      610.740911    ;  uncertainty theta = 0.002610, k = 0.101866
        22        25        43     1      107.113976      366.636152    ;  uncertainty theta = 0.002061, k = 0.075109
        22        25        44     1      107.113976      366.636152    ;  uncertainty theta = 0.002061, k = 0.075109
        22        25        45     1      107.113976      366.636184    ;  uncertainty theta = 0.002061, k = 0.075109
        23        22        24     1      123.473061      838.268448    ;  uncertainty theta = 0.001927, k = 0.047858
        23        22        25     1      112.603317      748.419512    ;  uncertainty theta = 0.000730, k = 0.122171
        24        22        25     1      112.603317      748.419512    ;  uncertainty theta = 0.000730, k = 0.122171
        26        15        39     1      119.936546      288.344801    ;  uncertainty theta = 0.003368, k = 0.102079
        26        27        28     1      122.158142      489.933689    ;  uncertainty theta = 0.002800, k = 0.061259
        26        31        30     1      112.176552      493.361439    ;  uncertainty theta = 0.002119, k = 0.121014
        27        14        38     1      120.053146      280.072725    ;  uncertainty theta = 0.001823, k = 0.112546
        27        26        31     1      122.152748      477.391233    ;  uncertainty theta = 0.002331, k = 0.215514
        27        28        29     1      112.219482      485.394500    ;  uncertainty theta = 0.001872, k = 0.083237
        28        29        30     1      110.054199      704.742308    ;  uncertainty theta = 0.001694, k = 0.053722
        28        29        46     1      107.358688      470.641839    ;  uncertainty theta = 0.001635, k = 0.061523
        28        29        47     1      107.358688      470.641839    ;  uncertainty theta = 0.001635, k = 0.061523
        29        30        31     1      110.061600      704.296814    ;  uncertainty theta = 0.001752, k = 0.052083
        29        30        48     1      109.816628      405.838551    ;  uncertainty theta = 0.001500, k = 0.079718
        29        30        49     1      109.816628      405.838551    ;  uncertainty theta = 0.001500, k = 0.079718
        30        29        46     1      109.816628      405.838551    ;  uncertainty theta = 0.001500, k = 0.079718
        30        29        47     1      109.816628      405.838551    ;  uncertainty theta = 0.001500, k = 0.079718
        31        30        48     1      107.343361      471.498545    ;  uncertainty theta = 0.001661, k = 0.063851
        31        30        49     1      107.343361      471.498545    ;  uncertainty theta = 0.001661, k = 0.063851
        43        25        44     1      108.843689      296.191780    ;  uncertainty theta = 0.002069, k = 0.023128
        43        25        45     1      108.843689      296.191780    ;  uncertainty theta = 0.002069, k = 0.023128
        44        25        45     1      108.843689      296.191780    ;  uncertainty theta = 0.002069, k = 0.023128
        46        29        47     1      108.206787      317.590154    ;  uncertainty theta = 0.001971, k = 0.060966
        48        30        49     1      108.206787      317.590154    ;  uncertainty theta = 0.001971, k = 0.060966

[ dihedrals ] ; propers for gromacs 4.5 or higher, use funct 9
;       ai        aj        ak        al funct           phase               k        pn
         1         4         3         2     9        0.000000       -0.202867         1    ;  uncertainty k = 0.782206
         1         4         3         2     9      180.000000       12.112998         2    ;  uncertainty k = 0.805809
         1         4         3         2     9        0.000000       -1.599826         3    ;  uncertainty k = 0.569696
         1         4         3         2     9      180.000000        0.918171         4    ;  uncertainty k = 0.463986
         1         4         3        32     9        0.000000       -0.033262         1    ;  uncertainty k = 0.634831
         1         4         3        32     9      180.000000        6.504271         2    ;  uncertainty k = 1.136879
         1         4         3        32     9        0.000000        0.521237         3    ;  uncertainty k = 0.433609
         1         4         3        32     9      180.000000        1.070757         4    ;  uncertainty k = 0.343719
         1         6         5         2     9        0.000000       -0.401011         1    ;  uncertainty k = 0.894397
         1         6         5         2     9      180.000000        7.081986         2    ;  uncertainty k = 0.717046
         1         6         5         2     9        0.000000        0.076908         3    ;  uncertainty k = 0.329247
         1         6         5         2     9      180.000000        1.331247         4    ;  uncertainty k = 0.355969
         1         6         5        10     9        0.000000       -0.302446         1    ;  uncertainty k = 0.715252
         1         6         5        10     9      180.000000        4.982925         2    ;  uncertainty k = 1.180715
         1         6         5        10     9        0.000000        0.083746         3    ;  uncertainty k = 0.384654
         1         6         5        10     9      180.000000        1.331328         4    ;  uncertainty k = 0.224283
         1         6         7         8     9        0.000000        0.146698         1    ;  uncertainty k = 0.428360
         1         6         7         8     9      180.000000        9.787396         2    ;  uncertainty k = 0.378068
         1         6         7         8     9        0.000000        0.568643         3    ;  uncertainty k = 0.286793
         1         6         7         8     9      180.000000        1.391199         4    ;  uncertainty k = 0.231273
         1         6         7        34     9        0.000000        0.139926         1    ;  uncertainty k = 0.233388
         1         6         7        34     9      180.000000        8.199300         2    ;  uncertainty k = 0.492394
         1         6         7        34     9        0.000000        1.032825         3    ;  uncertainty k = 0.329116
         1         6         7        34     9      180.000000        1.219854         4    ;  uncertainty k = 0.291231
         2         3         4        33     9        0.000000        0.036888         1    ;  uncertainty k = 0.700690
         2         3         4        33     9      180.000000        6.513922         2    ;  uncertainty k = 1.135263
         2         3         4        33     9        0.000000        0.521732         3    ;  uncertainty k = 0.385189
         2         3         4        33     9      180.000000        1.117821         4    ;  uncertainty k = 0.330143
         2         5         6         7     9        0.000000        0.075849         1    ;  uncertainty k = 0.283756
         2         5         6         7     9      180.000000        6.078637         2    ;  uncertainty k = 1.158882
         2         5         6         7     9        0.000000        0.104271         3    ;  uncertainty k = 0.158715
         2         5         6         7     9      180.000000        1.372524         4    ;  uncertainty k = 0.407770
         2         5        10         9     9        0.000000        0.247488         1    ;  uncertainty k = 0.553620
         2         5        10         9     9      180.000000        6.935729         2    ;  uncertainty k = 0.813283
         2         5        10         9     9        0.000000        0.359065         3    ;  uncertainty k = 0.310418
         2         5        10         9     9      180.000000        1.155580         4    ;  uncertainty k = 0.341334
         2         5        10        11     9        0.000000        0.205629         1    ;  uncertainty k = 1.234424
         2         5        10        11     9      180.000000        7.315655         2    ;  uncertainty k = 0.659990
         2         5        10        11     9        0.000000        0.785291         3    ;  uncertainty k = 0.521132
         2         5        10        11     9      180.000000        1.189281         4    ;  uncertainty k = 0.270652
         3         2         5         6     9        0.000000       -0.113029         1    ;  uncertainty k = 0.904591
         3         2         5         6     9      180.000000       11.596614         2    ;  uncertainty k = 0.630250
         3         2         5         6     9        0.000000        1.461816         3    ;  uncertainty k = 0.289165
         3         2         5         6     9      180.000000        1.331720         4    ;  uncertainty k = 0.321302
         3         2         5        10     9        0.000000       -0.238049         1    ;  uncertainty k = 0.564872
         3         2         5        10     9      180.000000       12.423925         2    ;  uncertainty k = 0.570311
         3         2         5        10     9        0.000000        2.036371         3    ;  uncertainty k = 0.344322
         3         2         5        10     9      180.000000        1.328631         4    ;  uncertainty k = 0.196678
         3         4         1         6     9        0.000000        0.013311         1    ;  uncertainty k = 0.131653
         3         4         1         6     9      180.000000       17.231919         2    ;  uncertainty k = 0.196673
         3         4         1         6     9        0.000000        0.888029         3    ;  uncertainty k = 0.629563
         3         4         1         6     9      180.000000        1.519865         4    ;  uncertainty k = 0.234840
         4         1         6         5     9        0.000000       -0.066929         1    ;  uncertainty k = 1.324017
         4         1         6         5     9      180.000000       10.106723         2    ;  uncertainty k = 0.613877
         4         1         6         5     9        0.000000        1.276697         3    ;  uncertainty k = 0.487387
         4         1         6         5     9      180.000000        1.281462         4    ;  uncertainty k = 0.224205
         4         1         6         7     9        0.000000        0.427931         1    ;  uncertainty k = 1.029214
         4         1         6         7     9      180.000000       12.638433         2    ;  uncertainty k = 0.318598
         4         1         6         7     9        0.000000        2.227131         3    ;  uncertainty k = 0.470955
         4         1         6         7     9      180.000000        1.437848         4    ;  uncertainty k = 0.260470
         4         3         2         5     9        0.000000        0.027110         1    ;  uncertainty k = 0.371182
         4         3         2         5     9      180.000000       16.587531         2    ;  uncertainty k = 0.332667
         4         3         2         5     9        0.000000        0.831476         3    ;  uncertainty k = 0.750933
         4         3         2         5     9      180.000000        1.566984         4    ;  uncertainty k = 0.253152
         5         2         3        32     9        0.000000        0.277160         1    ;  uncertainty k = 0.534374
         5         2         3        32     9      180.000000       18.170607         2    ;  uncertainty k = 0.523188
         5         2         3        32     9        0.000000        2.343131         3    ;  uncertainty k = 0.655048
         5         2         3        32     9      180.000000        1.631290         4    ;  uncertainty k = 0.415356
         5         6         7         8     9        0.000000        0.124430         1    ;  uncertainty k = 0.466282
         5         6         7         8     9      180.000000        7.199209         2    ;  uncertainty k = 0.798805
         5         6         7         8     9        0.000000        0.037838         3    ;  uncertainty k = 0.281189
         5         6         7         8     9      180.000000        1.290891         4    ;  uncertainty k = 0.271170
         5         6         7        34     9        0.000000       -0.220233         1    ;  uncertainty k = 0.348629
         5         6         7        34     9      180.000000        5.857296         2    ;  uncertainty k = 0.877509
         5         6         7        34     9        0.000000        1.201342         3    ;  uncertainty k = 0.161925
         5         6         7        34     9      180.000000        1.244804         4    ;  uncertainty k = 0.338883
         5        10         9         8     9        0.000000        0.027957         1    ;  uncertainty k = 0.537154
         5        10         9         8     9      180.000000       12.593323         2    ;  uncertainty k = 0.425204
         5        10         9         8     9        0.000000        0.359531         3    ;  uncertainty k = 0.217939
         5        10         9         8     9      180.000000        1.265733         4    ;  uncertainty k = 0.324457
         5        10         9        35     9        0.000000        0.102684         1    ;  uncertainty k = 0.240075
         5        10         9        35     9      180.000000        9.642695         2    ;  uncertainty k = 0.358990
         5        10         9        35     9        0.000000        1.465438         3    ;  uncertainty k = 0.136101
         5        10         9        35     9      180.000000        1.662758         4    ;  uncertainty k = 0.174972
         5        10        11        13     9        0.000000        0.516926         1    ;  uncertainty k = 0.894959
         5        10        11        13     9      180.000000        4.887496         2    ;  uncertainty k = 0.316126
         5        10        11        13     9        0.000000        0.326188         3    ;  uncertainty k = 0.305395
         5        10        11        13     9      180.000000        0.679891         4    ;  uncertainty k = 0.071663
         5        10        11        15     9        0.000000       -0.311497         1    ;  uncertainty k = 0.745825
         5        10        11        15     9      180.000000        4.828574         2    ;  uncertainty k = 0.218984
         5        10        11        15     9        0.000000        0.441110         3    ;  uncertainty k = 0.245525
         5        10        11        15     9      180.000000        0.635929         4    ;  uncertainty k = 0.105677
         6         1         4        33     9        0.000000        0.424413         1    ;  uncertainty k = 0.517708
         6         1         4        33     9      180.000000       19.045700         2    ;  uncertainty k = 0.443936
         6         1         4        33     9        0.000000        2.354563         3    ;  uncertainty k = 0.582720
         6         1         4        33     9      180.000000        1.407430         4    ;  uncertainty k = 0.336466
         6         5        10         9     9        0.000000       -0.085244         1    ;  uncertainty k = 0.487911
         6         5        10         9     9      180.000000        5.829187         2    ;  uncertainty k = 0.988439
         6         5        10         9     9        0.000000        0.053328         3    ;  uncertainty k = 0.280577
         6         5        10         9     9      180.000000        0.993969         4    ;  uncertainty k = 0.337841
         6         5        10        11     9        0.000000        0.121271         1    ;  uncertainty k = 0.759875
         6         5        10        11     9      180.000000        4.970808         2    ;  uncertainty k = 0.538065
         6         5        10        11     9        0.000000        1.056695         3    ;  uncertainty k = 0.216285
         6         5        10        11     9      180.000000        1.271763         4    ;  uncertainty k = 0.357997
         6         7         8         9     9        0.000000       -0.228092         1    ;  uncertainty k = 0.197033
         6         7         8         9     9      180.000000        9.795092         2    ;  uncertainty k = 0.332068
         6         7         8         9     9        0.000000        0.326816         3    ;  uncertainty k = 0.466135
         6         7         8         9     9      180.000000        1.353783         4    ;  uncertainty k = 0.302430
         6         7         8        12     9        0.000000       -0.189602         1    ;  uncertainty k = 0.394616
         6         7         8        12     9      180.000000       11.233637         2    ;  uncertainty k = 0.435509
         6         7         8        12     9        0.000000        0.975271         3    ;  uncertainty k = 0.174800
         6         7         8        12     9      180.000000        1.594279         4    ;  uncertainty k = 0.138017
         7         6         5        10     9        0.000000       -0.710070         1    ;  uncertainty k = 0.536103
         7         6         5        10     9      180.000000        4.577812         2    ;  uncertainty k = 1.559431
         7         6         5        10     9        0.000000        0.261482         3    ;  uncertainty k = 0.305564
         7         6         5        10     9      180.000000        1.244295         4    ;  uncertainty k = 0.357881
         7         8         9        10     9        0.000000       -0.070299         1    ;  uncertainty k = 0.327634
         7         8         9        10     9      180.000000        6.230102         2    ;  uncertainty k = 0.973363
         7         8         9        10     9        0.000000        0.294626         3    ;  uncertainty k = 0.210052
         7         8         9        10     9      180.000000        1.348310         4    ;  uncertainty k = 0.315089
         7         8         9        35     9        0.000000        0.244679         1    ;  uncertainty k = 0.404944
         7         8         9        35     9      180.000000        5.915897         2    ;  uncertainty k = 0.901736
         7         8         9        35     9        0.000000        1.142333         3    ;  uncertainty k = 0.150582
         7         8         9        35     9      180.000000        1.436507         4    ;  uncertainty k = 0.270615
         7         8        12        16     9        0.000000        2.391292         1    ;  uncertainty k = 0.927260
         7         8        12        16     9      180.000000        5.627187         2    ;  uncertainty k = 0.345909
         7         8        12        16     9        0.000000        0.130796         3    ;  uncertainty k = 0.275596
         7         8        12        16     9      180.000000        0.108068         4    ;  uncertainty k = 0.070781
         7         8        12        36     9        0.000000        3.714210         1    ;  uncertainty k = 1.019184
         7         8        12        36     9      180.000000        4.537148         2    ;  uncertainty k = 0.136540
         7         8        12        36     9        0.000000        0.421529         3    ;  uncertainty k = 0.226094
         7         8        12        36     9      180.000000       -0.068003         4    ;  uncertainty k = 0.067047
         8         9        10        11     9        0.000000        0.211744         1    ;  uncertainty k = 0.203615
         8         9        10        11     9      180.000000       10.428526         2    ;  uncertainty k = 0.653265
         8         9        10        11     9        0.000000        1.367439         3    ;  uncertainty k = 0.297271
         8         9        10        11     9      180.000000        1.710541         4    ;  uncertainty k = 0.309841
         8        12        16        17     9        0.000000        4.219815         1    ;  uncertainty k = 1.204825
         8        12        16        17     9      180.000000        5.915024         2    ;  uncertainty k = 0.485743
         8        12        16        17     9        0.000000        0.506820         3    ;  uncertainty k = 0.114705
         8        12        16        17     9      180.000000        0.021030         4    ;  uncertainty k = 0.159762
         8        12        16        21     9        0.000000        0.589933         1    ;  uncertainty k = 1.531190
         8        12        16        21     9      180.000000        8.272737         2    ;  uncertainty k = 0.309915
         8        12        16        21     9        0.000000       -0.349199         3    ;  uncertainty k = 0.585019
         8        12        16        21     9      180.000000        0.078445         4    ;  uncertainty k = 0.210860
         9         8         7        34     9        0.000000        0.274821         1    ;  uncertainty k = 0.400400
         9         8         7        34     9      180.000000        7.018724         2    ;  uncertainty k = 0.647883
         9         8         7        34     9        0.000000        1.296032         3    ;  uncertainty k = 0.118685
         9         8         7        34     9      180.000000        1.627050         4    ;  uncertainty k = 0.154383
         9         8        12        16     9        0.000000        2.703468         1    ;  uncertainty k = 1.103257
         9         8        12        16     9      180.000000        5.668154         2    ;  uncertainty k = 0.308754
         9         8        12        16     9        0.000000        0.629093         3    ;  uncertainty k = 0.285892
         9         8        12        16     9      180.000000        0.072458         4    ;  uncertainty k = 0.168010
         9         8        12        36     9        0.000000        3.327116         1    ;  uncertainty k = 0.854538
         9         8        12        36     9      180.000000        4.545283         2    ;  uncertainty k = 0.548824
         9         8        12        36     9        0.000000        0.510790         3    ;  uncertainty k = 0.256947
         9         8        12        36     9      180.000000       -0.052071         4    ;  uncertainty k = 0.127806
         9        10        11        13     9        0.000000       -0.318571         1    ;  uncertainty k = 0.456106
         9        10        11        13     9      180.000000        5.395805         2    ;  uncertainty k = 0.195251
         9        10        11        13     9        0.000000        0.449170         3    ;  uncertainty k = 0.184842
         9        10        11        13     9      180.000000        0.518687         4    ;  uncertainty k = 0.122366
         9        10        11        15     9        0.000000       -0.200047         1    ;  uncertainty k = 0.271135
         9        10        11        15     9      180.000000        5.369021         2    ;  uncertainty k = 0.128212
         9        10        11        15     9        0.000000        0.396421         3    ;  uncertainty k = 0.099460
         9        10        11        15     9      180.000000        0.540578         4    ;  uncertainty k = 0.088568
        10         9         8        12     9        0.000000        0.294628         1    ;  uncertainty k = 0.724136
        10         9         8        12     9      180.000000        7.628856         2    ;  uncertainty k = 0.520355
        10         9         8        12     9        0.000000        0.809865         3    ;  uncertainty k = 0.261381
        10         9         8        12     9      180.000000        1.634865         4    ;  uncertainty k = 0.116992
        10        11        13        14     9        0.000000        0.070929         1    ;  uncertainty k = 0.359615
        10        11        13        14     9      180.000000        8.381735         2    ;  uncertainty k = 0.564066
        10        11        13        14     9        0.000000        1.172274         3    ;  uncertainty k = 0.239461
        10        11        13        14     9      180.000000        1.887562         4    ;  uncertainty k = 0.170241
        10        11        13        37     9        0.000000       -0.198917         1    ;  uncertainty k = 0.093227
        10        11        13        37     9      180.000000        7.267585         2    ;  uncertainty k = 0.382709
        10        11        13        37     9        0.000000        0.813700         3    ;  uncertainty k = 0.234049
        10        11        13        37     9      180.000000        1.159987         4    ;  uncertainty k = 0.191754
        10        11        15        26     9        0.000000        0.203140         1    ;  uncertainty k = 0.293214
        10        11        15        26     9      180.000000        8.955743         2    ;  uncertainty k = 0.461914
        10        11        15        26     9        0.000000        1.287321         3    ;  uncertainty k = 0.231925
        10        11        15        26     9      180.000000        1.779585         4    ;  uncertainty k = 0.166569
        10        11        15        39     9        0.000000       -0.211363         1    ;  uncertainty k = 0.160712
        10        11        15        39     9      180.000000        7.378651         2    ;  uncertainty k = 0.209586
        10        11        15        39     9        0.000000        0.813392         3    ;  uncertainty k = 0.245571
        10        11        15        39     9      180.000000        1.106131         4    ;  uncertainty k = 0.204375
        11        10         9        35     9        0.000000        0.182587         1    ;  uncertainty k = 0.337362
        11        10         9        35     9      180.000000        8.510762         2    ;  uncertainty k = 0.299239
        11        10         9        35     9        0.000000        1.016325         3    ;  uncertainty k = 0.142449
        11        10         9        35     9      180.000000        1.392613         4    ;  uncertainty k = 0.298498
        11        13        14        27     9        0.000000        0.035344         1    ;  uncertainty k = 0.267092
        11        13        14        27     9      180.000000       14.270762         2    ;  uncertainty k = 0.245753
        11        13        14        27     9        0.000000       -0.597868         3    ;  uncertainty k = 0.644656
        11        13        14        27     9      180.000000        0.927561         4    ;  uncertainty k = 0.280987
        11        13        14        38     9        0.000000        0.030328         1    ;  uncertainty k = 0.209185
        11        13        14        38     9      180.000000        8.008999         2    ;  uncertainty k = 0.406478
        11        13        14        38     9        0.000000        1.397946         3    ;  uncertainty k = 0.231693
        11        13        14        38     9      180.000000        1.880704         4    ;  uncertainty k = 0.228321
        11        15        26        27     9        0.000000       -0.014607         1    ;  uncertainty k = 0.371717
        11        15        26        27     9      180.000000        8.793988         2    ;  uncertainty k = 0.594671
        11        15        26        27     9        0.000000        0.240782         3    ;  uncertainty k = 0.471952
        11        15        26        27     9      180.000000        1.202371         4    ;  uncertainty k = 0.343994
        11        15        26        31     9        0.000000        0.312371         1    ;  uncertainty k = 0.254518
        11        15        26        31     9      180.000000       11.536802         2    ;  uncertainty k = 0.360166
        11        15        26        31     9        0.000000        1.498125         3    ;  uncertainty k = 0.264224
        11        15        26        31     9      180.000000        1.646486         4    ;  uncertainty k = 0.204527
        12         8         7        34     9        0.000000       -0.570257         1    ;  uncertainty k = 0.225437
        12         8         7        34     9      180.000000        8.036469         2    ;  uncertainty k = 0.539841
        12         8         7        34     9        0.000000        0.826405         3    ;  uncertainty k = 0.259177
        12         8         7        34     9      180.000000        1.188346         4    ;  uncertainty k = 0.226656
        12         8         9        35     9        0.000000       -0.448990         1    ;  uncertainty k = 0.329598
        12         8         9        35     9      180.000000        6.979017         2    ;  uncertainty k = 0.398001
        12         8         9        35     9        0.000000        0.802896         3    ;  uncertainty k = 0.227291
        12         8         9        35     9      180.000000        1.178082         4    ;  uncertainty k = 0.126420
        12        16        17        18     9        0.000000        0.284521         1    ;  uncertainty k = 0.937479
        12        16        17        18     9      180.000000        8.701419         2    ;  uncertainty k = 0.854400
        12        16        17        18     9        0.000000        0.836725         3    ;  uncertainty k = 0.185927
        12        16        17        18     9      180.000000        1.496108         4    ;  uncertainty k = 0.299674
        12        16        17        40     9        0.000000        0.007095         1    ;  uncertainty k = 0.499751
        12        16        17        40     9      180.000000        5.972505         2    ;  uncertainty k = 0.983101
        12        16        17        40     9        0.000000        0.942184         3    ;  uncertainty k = 0.273147
        12        16        17        40     9      180.000000        1.158934         4    ;  uncertainty k = 0.246635
        12        16        21        20     9        0.000000       -0.020824         1    ;  uncertainty k = 0.416439
        12        16        21        20     9      180.000000        7.821356         2    ;  uncertainty k = 0.442938
        12        16        21        20     9        0.000000        1.029527         3    ;  uncertainty k = 0.210996
        12        16        21        20     9      180.000000        1.524188         4    ;  uncertainty k = 0.257372
        12        16        21        22     9        0.000000       -0.506013         1    ;  uncertainty k = 0.475730
        12        16        21        22     9      180.000000        7.636457         2    ;  uncertainty k = 0.878998
        12        16        21        22     9        0.000000        1.159105         3    ;  uncertainty k = 0.332202
        12        16        21        22     9      180.000000        1.400877         4    ;  uncertainty k = 0.254665
        13        11        15        26     9        0.000000       -0.041644         1    ;  uncertainty k = 0.225694
        13        11        15        26     9      180.000000       12.089010         2    ;  uncertainty k = 0.289734
        13        11        15        26     9        0.000000       -0.229822         3    ;  uncertainty k = 0.432401
        13        11        15        26     9      180.000000        0.989883         4    ;  uncertainty k = 0.308884
        13        11        15        39     9        0.000000        0.331782         1    ;  uncertainty k = 0.270702
        13        11        15        39     9      180.000000        7.091677         2    ;  uncertainty k = 0.382184
        13        11        15        39     9        0.000000        1.461242         3    ;  uncertainty k = 0.231200
        13        11        15        39     9      180.000000        1.623628         4    ;  uncertainty k = 0.199027
        13        14        27        26     9        0.000000       -0.047823         1    ;  uncertainty k = 0.306418
        13        14        27        26     9      180.000000        8.347722         2    ;  uncertainty k = 0.745085
        13        14        27        26     9        0.000000       -0.032018         3    ;  uncertainty k = 0.370711
        13        14        27        26     9      180.000000        1.203892         4    ;  uncertainty k = 0.359649
        13        14        27        28     9        0.000000        0.261747         1    ;  uncertainty k = 0.309108
        13        14        27        28     9      180.000000       10.704181         2    ;  uncertainty k = 0.302070
        13        14        27        28     9        0.000000        1.612935         3    ;  uncertainty k = 0.286208
        13        14        27        28     9      180.000000        1.670024         4    ;  uncertainty k = 0.123366
        14        13        11        15     9        0.000000       -0.154422         1    ;  uncertainty k = 0.113834
        14        13        11        15     9      180.000000       11.970118         2    ;  uncertainty k = 0.342253
        14        13        11        15     9        0.000000       -0.593117         3    ;  uncertainty k = 0.366656
        14        13        11        15     9      180.000000        0.911664         4    ;  uncertainty k = 0.295142
        14        27        26        15     9        0.000000       -0.037948         1    ;  uncertainty k = 0.606167
        14        27        26        15     9      180.000000        5.251850         2    ;  uncertainty k = 1.309072
        14        27        26        15     9        0.000000        0.237981         3    ;  uncertainty k = 0.308438
        14        27        26        15     9      180.000000        1.232444         4    ;  uncertainty k = 0.390874
        14        27        26        31     9        0.000000        0.274432         1    ;  uncertainty k = 0.293279
        14        27        26        31     9      180.000000        6.815474         2    ;  uncertainty k = 0.583433
        14        27        26        31     9        0.000000        1.216519         3    ;  uncertainty k = 0.301482
        14        27        26        31     9      180.000000        1.587260         4    ;  uncertainty k = 0.225569
        14        27        28        29     9        0.000000       -0.553771         1    ;  uncertainty k = 0.532172
        14        27        28        29     9      180.000000        2.957717         2    ;  uncertainty k = 0.188334
        14        27        28        29     9        0.000000        0.610311         3    ;  uncertainty k = 0.207688
        14        27        28        29     9      180.000000        0.132040         4    ;  uncertainty k = 0.146013
        15        11        13        37     9        0.000000        0.266953         1    ;  uncertainty k = 0.088785
        15        11        13        37     9      180.000000        6.970840         2    ;  uncertainty k = 0.531500
        15        11        13        37     9        0.000000        1.430792         3    ;  uncertainty k = 0.171631
        15        11        13        37     9      180.000000        1.630190         4    ;  uncertainty k = 0.258863
        15        26        27        28     9        0.000000        0.337419         1    ;  uncertainty k = 0.248673
        15        26        27        28     9      180.000000        6.892554         2    ;  uncertainty k = 0.391349
        15        26        27        28     9        0.000000        1.366105         3    ;  uncertainty k = 0.385909
        15        26        27        28     9      180.000000        1.607450         4    ;  uncertainty k = 0.243405
        15        26        31        30     9        0.000000       -0.735490         1    ;  uncertainty k = 0.741365
        15        26        31        30     9      180.000000        2.770698         2    ;  uncertainty k = 0.109696
        15        26        31        30     9        0.000000        0.598972         3    ;  uncertainty k = 0.254689
        15        26        31        30     9      180.000000        0.144514         4    ;  uncertainty k = 0.196521
        16        17        18        19     9        0.000000        0.036596         1    ;  uncertainty k = 0.371494
        16        17        18        19     9      180.000000       16.597051         2    ;  uncertainty k = 0.304805
        16        17        18        19     9        0.000000        0.966622         3    ;  uncertainty k = 0.517836
        16        17        18        19     9      180.000000        1.451098         4    ;  uncertainty k = 0.177715
        16        21        20        19     9        0.000000       -0.265670         1    ;  uncertainty k = 0.419232
        16        21        20        19     9      180.000000       10.460451         2    ;  uncertainty k = 0.389563
        16        21        20        19     9        0.000000       -0.366509         3    ;  uncertainty k = 0.514479
        16        21        20        19     9      180.000000        0.929899         4    ;  uncertainty k = 0.330295
        16        21        20        42     9        0.000000        0.238370         1    ;  uncertainty k = 0.382236
        16        21        20        42     9      180.000000        7.525225         2    ;  uncertainty k = 0.903253
        16        21        20        42     9        0.000000        1.267263         3    ;  uncertainty k = 0.290614
        16        21        20        42     9      180.000000        1.474858         4    ;  uncertainty k = 0.123421
        16        21        22        23     9        0.000000       -5.228555         1    ;  uncertainty k = 2.158654
        16        21        22        23     9      180.000000       -0.861345         2    ;  uncertainty k = 0.805163
        16        21        22        23     9        0.000000        1.201042         3    ;  uncertainty k = 0.425532
        16        21        22        23     9      180.000000       -0.042324         4    ;  uncertainty k = 0.375368
        16        21        22        24     9        0.000000       -5.228555         1    ;  uncertainty k = 2.158654
        16        21        22        24     9      180.000000       -0.861345         2    ;  uncertainty k = 0.805163
        16        21        22        24     9        0.000000        1.201042         3    ;  uncertainty k = 0.425532
        16        21        22        24     9      180.000000       -0.042324         4    ;  uncertainty k = 0.375368
        16        21        22        25     9        0.000000        0.262420         1    ;  uncertainty k = 1.833669
        16        21        22        25     9      180.000000       -1.026927         2    ;  uncertainty k = 0.798423
        16        21        22        25     9        0.000000        0.956203         3    ;  uncertainty k = 0.348086
        16        21        22        25     9      180.000000        0.178350         4    ;  uncertainty k = 0.195567
        17        16        12        36     9        0.000000        0.917542         1    ;  uncertainty k = 1.463603
        17        16        12        36     9      180.000000        4.182459         2    ;  uncertainty k = 0.765144
        17        16        12        36     9        0.000000       -0.106076         3    ;  uncertainty k = 0.498483
        17        16        12        36     9      180.000000       -0.220151         4    ;  uncertainty k = 0.253379
        17        16        21        20     9        0.000000       -0.438834         1    ;  uncertainty k = 0.840319
        17        16        21        20     9      180.000000        4.610450         2    ;  uncertainty k = 1.641699
        17        16        21        20     9        0.000000        0.358135         3    ;  uncertainty k = 0.323563
        17        16        21        20     9      180.000000        1.351096         4    ;  uncertainty k = 0.315698
        17        16        21        22     9        0.000000        0.917642         1    ;  uncertainty k = 0.634888
        17        16        21        22     9      180.000000        4.793053         2    ;  uncertainty k = 1.087368
        17        16        21        22     9        0.000000        1.108846         3    ;  uncertainty k = 0.290817
        17        16        21        22     9      180.000000        1.561541         4    ;  uncertainty k = 0.342192
        17        18        19        20     9        0.000000       -0.485016         1    ;  uncertainty k = 0.425215
        17        18        19        20     9      180.000000       15.189731         2    ;  uncertainty k = 0.461239
        17        18        19        20     9        0.000000        1.127628         3    ;  uncertainty k = 0.661679
        17        18        19        20     9      180.000000        1.285431         4    ;  uncertainty k = 0.097277
        17        18        19        41     9        0.000000        0.172532         1    ;  uncertainty k = 0.566096
        17        18        19        41     9      180.000000       15.445790         2    ;  uncertainty k = 0.425751
        17        18        19        41     9        0.000000        2.152702         3    ;  uncertainty k = 0.508048
        17        18        19        41     9      180.000000        1.381411         4    ;  uncertainty k = 0.359273
        18        17        16        21     9        0.000000       -0.562844         1    ;  uncertainty k = 0.540738
        18        17        16        21     9      180.000000        6.748516         2    ;  uncertainty k = 1.268444
        18        17        16        21     9        0.000000        0.077078         3    ;  uncertainty k = 0.370451
        18        17        16        21     9      180.000000        1.216829         4    ;  uncertainty k = 0.295894
        18        19        20        21     9        0.000000       -0.252470         1    ;  uncertainty k = 0.431541
        18        19        20        21     9      180.000000       13.556324         2    ;  uncertainty k = 0.574918
        18        19        20        21     9        0.000000       -1.106331         3    ;  uncertainty k = 1.113055
        18        19        20        21     9      180.000000        0.952273         4    ;  uncertainty k = 0.151718
        18        19        20        42     9        0.000000       -0.068096         1    ;  uncertainty k = 0.262319
        18        19        20        42     9      180.000000        9.165641         2    ;  uncertainty k = 0.726880
        18        19        20        42     9        0.000000        0.979809         3    ;  uncertainty k = 0.350348
        18        19        20        42     9      180.000000        1.652653         4    ;  uncertainty k = 0.185846
        19        18        17        40     9        0.000000        0.508068         1    ;  uncertainty k = 0.686768
        19        18        17        40     9      180.000000       16.706316         2    ;  uncertainty k = 0.583289
        19        18        17        40     9        0.000000        2.361241         3    ;  uncertainty k = 0.235965
        19        18        17        40     9      180.000000        1.517602         4    ;  uncertainty k = 0.508263
        19        20        21        22     9        0.000000        0.601785         1    ;  uncertainty k = 0.840722
        19        20        21        22     9      180.000000        9.254868         2    ;  uncertainty k = 0.664789
        19        20        21        22     9        0.000000        1.560649         3    ;  uncertainty k = 0.502422
        19        20        21        22     9      180.000000        1.838812         4    ;  uncertainty k = 0.146620
        20        21        22        23     9        0.000000       -0.492326         1    ;  uncertainty k = 1.108210
        20        21        22        23     9      180.000000        0.135604         2    ;  uncertainty k = 0.455039
        20        21        22        23     9        0.000000        0.177824         3    ;  uncertainty k = 0.237275
        20        21        22        23     9      180.000000        0.012962         4    ;  uncertainty k = 0.209193
        20        21        22        24     9        0.000000       -0.492326         1    ;  uncertainty k = 1.108210
        20        21        22        24     9      180.000000        0.135604         2    ;  uncertainty k = 0.455039
        20        21        22        24     9        0.000000        0.177824         3    ;  uncertainty k = 0.237275
        20        21        22        24     9      180.000000        0.012962         4    ;  uncertainty k = 0.209193
        20        21        22        25     9        0.000000        3.406873         1    ;  uncertainty k = 1.708513
        20        21        22        25     9      180.000000        0.171419         2    ;  uncertainty k = 0.576992
        20        21        22        25     9        0.000000       -0.078308         3    ;  uncertainty k = 0.399032
        20        21        22        25     9      180.000000        0.444416         4    ;  uncertainty k = 0.155672
        21        16        12        36     9        0.000000        9.262100         1    ;  uncertainty k = 0.773178
        21        16        12        36     9      180.000000        3.945831         2    ;  uncertainty k = 0.536445
        21        16        12        36     9        0.000000        0.752572         3    ;  uncertainty k = 0.273740
        21        16        12        36     9      180.000000       -0.119638         4    ;  uncertainty k = 0.176171
        21        16        17        40     9        0.000000        0.000816         1    ;  uncertainty k = 1.384589
        21        16        17        40     9      180.000000        4.685090         2    ;  uncertainty k = 1.110639
        21        16        17        40     9        0.000000        1.104676         3    ;  uncertainty k = 0.238511
        21        16        17        40     9      180.000000        1.089444         4    ;  uncertainty k = 0.205054
        21        20        19        41     9        0.000000       -0.148525         1    ;  uncertainty k = 0.589763
        21        20        19        41     9      180.000000        6.244193         2    ;  uncertainty k = 0.249576
        21        20        19        41     9        0.000000        1.014104         3    ;  uncertainty k = 0.237437
        21        20        19        41     9      180.000000        1.497615         4    ;  uncertainty k = 0.181166
        21        22        25        43     9        0.000000        2.345205         1    ;  uncertainty k = 0.643496
        21        22        25        43     9      180.000000       -2.433989         2    ;  uncertainty k = 0.375725
        21        22        25        43     9        0.000000        0.170343         3    ;  uncertainty k = 0.101207
        21        22        25        43     9      180.000000        0.001304         4    ;  uncertainty k = 0.149207
        21        22        25        44     9        0.000000        2.345205         1    ;  uncertainty k = 0.643496
        21        22        25        44     9      180.000000       -2.433989         2    ;  uncertainty k = 0.375725
        21        22        25        44     9        0.000000        0.170343         3    ;  uncertainty k = 0.101207
        21        22        25        44     9      180.000000        0.001304         4    ;  uncertainty k = 0.149207
        21        22        25        45     9        0.000000        2.345205         1    ;  uncertainty k = 0.643496
        21        22        25        45     9      180.000000       -2.433989         2    ;  uncertainty k = 0.375725
        21        22        25        45     9        0.000000        0.170343         3    ;  uncertainty k = 0.101207
        21        22        25        45     9      180.000000        0.001304         4    ;  uncertainty k = 0.149207
        22        21        20        42     9        0.000000       -0.424035         1    ;  uncertainty k = 0.616074
        22        21        20        42     9      180.000000        7.010378         2    ;  uncertainty k = 0.550571
        22        21        20        42     9        0.000000        0.781435         3    ;  uncertainty k = 0.169299
        22        21        20        42     9      180.000000        1.269235         4    ;  uncertainty k = 0.186787
        23        22        25        43     9        0.000000       -0.057641         1    ;  uncertainty k = 0.603702
        23        22        25        43     9      180.000000       -0.366450         2    ;  uncertainty k = 0.288159
        23        22        25        43     9        0.000000        0.801561         3    ;  uncertainty k = 0.057212
        23        22        25        43     9      180.000000        0.039211         4    ;  uncertainty k = 0.101280
        23        22        25        44     9        0.000000       -0.057641         1    ;  uncertainty k = 0.603702
        23        22        25        44     9      180.000000       -0.366450         2    ;  uncertainty k = 0.288159
        23        22        25        44     9        0.000000        0.801561         3    ;  uncertainty k = 0.057212
        23        22        25        44     9      180.000000        0.039211         4    ;  uncertainty k = 0.101280
        23        22        25        45     9        0.000000       -0.057641         1    ;  uncertainty k = 0.603702
        23        22        25        45     9      180.000000       -0.366450         2    ;  uncertainty k = 0.288159
        23        22        25        45     9        0.000000        0.801561         3    ;  uncertainty k = 0.057212
        23        22        25        45     9      180.000000        0.039211         4    ;  uncertainty k = 0.101280
        24        22        25        43     9        0.000000       -0.057641         1    ;  uncertainty k = 0.603702
        24        22        25        43     9      180.000000       -0.366450         2    ;  uncertainty k = 0.288159
        24        22        25        43     9        0.000000        0.801561         3    ;  uncertainty k = 0.057212
        24        22        25        43     9      180.000000        0.039211         4    ;  uncertainty k = 0.101280
        24        22        25        44     9        0.000000       -0.057641         1    ;  uncertainty k = 0.603702
        24        22        25        44     9      180.000000       -0.366450         2    ;  uncertainty k = 0.288159
        24        22        25        44     9        0.000000        0.801561         3    ;  uncertainty k = 0.057212
        24        22        25        44     9      180.000000        0.039211         4    ;  uncertainty k = 0.101280
        24        22        25        45     9        0.000000       -0.057641         1    ;  uncertainty k = 0.603702
        24        22        25        45     9      180.000000       -0.366450         2    ;  uncertainty k = 0.288159
        24        22        25        45     9        0.000000        0.801561         3    ;  uncertainty k = 0.057212
        24        22        25        45     9      180.000000        0.039211         4    ;  uncertainty k = 0.101280
        26        27        14        38     9        0.000000        0.197402         1    ;  uncertainty k = 0.342657
        26        27        14        38     9      180.000000        5.863449         2    ;  uncertainty k = 0.505926
        26        27        14        38     9        0.000000        1.340117         3    ;  uncertainty k = 0.243779
        26        27        14        38     9      180.000000        1.393441         4    ;  uncertainty k = 0.074574
        26        27        28        29     9        0.000000        0.284847         1    ;  uncertainty k = 2.282802
        26        27        28        29     9      180.000000        1.153139         2    ;  uncertainty k = 0.392300
        26        27        28        29     9        0.000000       -0.595398         3    ;  uncertainty k = 0.301769
        26        27        28        29     9      180.000000        0.376523         4    ;  uncertainty k = 0.224027
        26        31        30        29     9        0.000000       -0.614570         1    ;  uncertainty k = 1.512318
        26        31        30        29     9      180.000000       -1.092405         2    ;  uncertainty k = 1.074414
        26        31        30        29     9        0.000000        0.166458         3    ;  uncertainty k = 0.131935
        26        31        30        29     9      180.000000        0.324722         4    ;  uncertainty k = 0.145194
        26        31        30        48     9        0.000000       -1.185983         1    ;  uncertainty k = 0.904214
        26        31        30        48     9      180.000000       -0.334087         2    ;  uncertainty k = 0.364844
        26        31        30        48     9        0.000000        0.868889         3    ;  uncertainty k = 0.223553
        26        31        30        48     9      180.000000        0.061475         4    ;  uncertainty k = 0.101134
        26        31        30        49     9        0.000000       -1.185983         1    ;  uncertainty k = 0.904214
        26        31        30        49     9      180.000000       -0.334087         2    ;  uncertainty k = 0.364844
        26        31        30        49     9        0.000000        0.868889         3    ;  uncertainty k = 0.223553
        26        31        30        49     9      180.000000        0.061475         4    ;  uncertainty k = 0.101134
        27        14        13        37     9        0.000000        0.175349         1    ;  uncertainty k = 0.203545
        27        14        13        37     9      180.000000        8.910641         2    ;  uncertainty k = 0.399129
        27        14        13        37     9        0.000000        1.278143         3    ;  uncertainty k = 0.314576
        27        14        13        37     9      180.000000        1.747855         4    ;  uncertainty k = 0.158314
        27        26        15        39     9        0.000000        0.140410         1    ;  uncertainty k = 0.329208
        27        26        15        39     9      180.000000        5.945274         2    ;  uncertainty k = 0.558274
        27        26        15        39     9        0.000000        1.373043         3    ;  uncertainty k = 0.373772
        27        26        15        39     9      180.000000        1.533799         4    ;  uncertainty k = 0.143100
        27        26        31        30     9        0.000000        0.215599         1    ;  uncertainty k = 1.873136
        27        26        31        30     9      180.000000        0.976033         2    ;  uncertainty k = 0.499039
        27        26        31        30     9        0.000000       -0.671488         3    ;  uncertainty k = 0.355225
        27        26        31        30     9      180.000000        0.408058         4    ;  uncertainty k = 0.206839
        27        28        29        30     9        0.000000       -0.476128         1    ;  uncertainty k = 1.611190
        27        28        29        30     9      180.000000       -1.097984         2    ;  uncertainty k = 1.075011
        27        28        29        30     9        0.000000        0.128627         3    ;  uncertainty k = 0.157832
        27        28        29        30     9      180.000000        0.290200         4    ;  uncertainty k = 0.118476
        27        28        29        46     9        0.000000       -1.146492         1    ;  uncertainty k = 0.905651
        27        28        29        46     9      180.000000       -0.386532         2    ;  uncertainty k = 0.426376
        27        28        29        46     9        0.000000        0.876200         3    ;  uncertainty k = 0.219220
        27        28        29        46     9      180.000000        0.066730         4    ;  uncertainty k = 0.091735
        27        28        29        47     9        0.000000       -1.146492         1    ;  uncertainty k = 0.905651
        27        28        29        47     9      180.000000       -0.386532         2    ;  uncertainty k = 0.426376
        27        28        29        47     9        0.000000        0.876200         3    ;  uncertainty k = 0.219220
        27        28        29        47     9      180.000000        0.066730         4    ;  uncertainty k = 0.091735
        28        27        14        38     9        0.000000       -0.205360         1    ;  uncertainty k = 0.739386
        28        27        14        38     9      180.000000        8.369853         2    ;  uncertainty k = 0.226178
        28        27        14        38     9        0.000000        0.828735         3    ;  uncertainty k = 0.434959
        28        27        14        38     9      180.000000        1.126238         4    ;  uncertainty k = 0.225592
        28        27        26        31     9        0.000000       -0.987996         1    ;  uncertainty k = 3.176813
        28        27        26        31     9      180.000000        7.492766         2    ;  uncertainty k = 0.580686
        28        27        26        31     9        0.000000        1.569791         3    ;  uncertainty k = 0.282239
        28        27        26        31     9      180.000000        1.042516         4    ;  uncertainty k = 0.255008
        28        29        30        31     9        0.000000        4.718429         1    ;  uncertainty k = 3.093779
        28        29        30        31     9      180.000000      -11.532179         2    ;  uncertainty k = 1.230103
        28        29        30        31     9        0.000000        2.702289         3    ;  uncertainty k = 0.544756
        28        29        30        31     9      180.000000        0.252673         4    ;  uncertainty k = 0.616349
        28        29        30        48     9        0.000000        1.987077         1    ;  uncertainty k = 0.140792
        28        29        30        48     9      180.000000       -2.541162         2    ;  uncertainty k = 0.495250
        28        29        30        48     9        0.000000        0.849122         3    ;  uncertainty k = 0.232813
        28        29        30        48     9      180.000000        0.501817         4    ;  uncertainty k = 0.286291
        28        29        30        49     9        0.000000        1.987077         1    ;  uncertainty k = 0.140792
        28        29        30        49     9      180.000000       -2.541162         2    ;  uncertainty k = 0.495250
        28        29        30        49     9        0.000000        0.849122         3    ;  uncertainty k = 0.232813
        28        29        30        49     9      180.000000        0.501817         4    ;  uncertainty k = 0.286291
        31        26        15        39     9        0.000000       -0.333629         1    ;  uncertainty k = 0.791589
        31        26        15        39     9      180.000000        8.447995         2    ;  uncertainty k = 0.194850
        31        26        15        39     9        0.000000        0.835285         3    ;  uncertainty k = 0.441047
        31        26        15        39     9      180.000000        1.239914         4    ;  uncertainty k = 0.233364
        31        30        29        46     9        0.000000        1.998171         1    ;  uncertainty k = 0.134847
        31        30        29        46     9      180.000000       -2.551328         2    ;  uncertainty k = 0.517000
        31        30        29        46     9        0.000000        0.851285         3    ;  uncertainty k = 0.235191
        31        30        29        46     9      180.000000        0.504467         4    ;  uncertainty k = 0.288451
        31        30        29        47     9        0.000000        1.998171         1    ;  uncertainty k = 0.134847
        31        30        29        47     9      180.000000       -2.551328         2    ;  uncertainty k = 0.517000
        31        30        29        47     9        0.000000        0.851285         3    ;  uncertainty k = 0.235191
        31        30        29        47     9      180.000000        0.504467         4    ;  uncertainty k = 0.288451
        32         3         4        33     9        0.000000       -0.152652         1    ;  uncertainty k = 0.805688
        32         3         4        33     9      180.000000        5.398109         2    ;  uncertainty k = 0.723627
        32         3         4        33     9        0.000000        0.147471         3    ;  uncertainty k = 0.248173
        32         3         4        33     9      180.000000        0.216442         4    ;  uncertainty k = 0.153409
        37        13        14        38     9        0.000000       -0.017611         1    ;  uncertainty k = 0.308072
        37        13        14        38     9      180.000000        7.567151         2    ;  uncertainty k = 0.287487
        37        13        14        38     9        0.000000       -0.356629         3    ;  uncertainty k = 0.308207
        37        13        14        38     9      180.000000        0.166760         4    ;  uncertainty k = 0.111082
        41        19        20        42     9        0.000000       -0.307962         1    ;  uncertainty k = 0.440104
        41        19        20        42     9      180.000000        6.502709         2    ;  uncertainty k = 0.379417
        41        19        20        42     9        0.000000       -0.130867         3    ;  uncertainty k = 0.246878
        41        19        20        42     9      180.000000        0.283979         4    ;  uncertainty k = 0.141773
        46        29        30        48     9        0.000000       -1.759465         1    ;  uncertainty k = 1.124630
        46        29        30        48     9      180.000000        1.624681         2    ;  uncertainty k = 0.863808
        46        29        30        48     9        0.000000        0.254431         3    ;  uncertainty k = 0.233492
        46        29        30        48     9      180.000000       -0.673042         4    ;  uncertainty k = 0.160489
        46        29        30        49     9        0.000000       -1.759465         1    ;  uncertainty k = 1.124630
        46        29        30        49     9      180.000000        1.624681         2    ;  uncertainty k = 0.863808
        46        29        30        49     9        0.000000        0.254431         3    ;  uncertainty k = 0.233492
        46        29        30        49     9      180.000000       -0.673042         4    ;  uncertainty k = 0.160489
        47        29        30        48     9        0.000000       -1.759465         1    ;  uncertainty k = 1.124630
        47        29        30        48     9      180.000000        1.624681         2    ;  uncertainty k = 0.863808
        47        29        30        48     9        0.000000        0.254431         3    ;  uncertainty k = 0.233492
        47        29        30        48     9      180.000000       -0.673042         4    ;  uncertainty k = 0.160489
        47        29        30        49     9        0.000000       -1.759465         1    ;  uncertainty k = 1.124630
        47        29        30        49     9      180.000000        1.624681         2    ;  uncertainty k = 0.863808
        47        29        30        49     9        0.000000        0.254431         3    ;  uncertainty k = 0.233492
        47        29        30        49     9      180.000000       -0.673042         4    ;  uncertainty k = 0.160489

[ dihedrals ] ; impropers
;       ai        aj        ak        al funct           phase               k        pn
         3         2         4        32     4      180.000000       12.058349         2    ;  uncertainty k = 0.155868
         3         4        32         2     4      180.000000       12.058349         2    ;  uncertainty k = 0.155868
         3        32         2         4     4      180.000000       12.058349         2    ;  uncertainty k = 0.155868
         4         1         3        33     4      180.000000       11.948849         2    ;  uncertainty k = 0.101429
         4         3        33         1     4      180.000000       11.948849         2    ;  uncertainty k = 0.101429
         4        33         1         3     4      180.000000       11.948849         2    ;  uncertainty k = 0.101429
         5         2         6        10     4      180.000000       16.658891         2    ;  uncertainty k = 0.079701
         5         6        10         2     4      180.000000       16.658891         2    ;  uncertainty k = 0.079701
         5        10         2         6     4      180.000000       16.658891         2    ;  uncertainty k = 0.079701
         6         1         5         7     4      180.000000       18.453034         2    ;  uncertainty k = 0.054321
         6         5         7         1     4      180.000000       18.453034         2    ;  uncertainty k = 0.054321
         6         7         1         5     4      180.000000       18.453034         2    ;  uncertainty k = 0.054321
         7         6         8        34     4      180.000000        2.538910         2    ;  uncertainty k = 0.373104
         7         8        34         6     4      180.000000        2.538910         2    ;  uncertainty k = 0.373104
         7        34         6         8     4      180.000000        2.538910         2    ;  uncertainty k = 0.373104
         8         7         9        12     4      180.000000       20.680890         2    ;  uncertainty k = 0.061579
         8         9        12         7     4      180.000000       20.680890         2    ;  uncertainty k = 0.061579
         8        12         7         9     4      180.000000       20.680890         2    ;  uncertainty k = 0.061579
         9         8        10        35     4      180.000000        3.159701         2    ;  uncertainty k = 0.350178
         9        10        35         8     4      180.000000        3.159701         2    ;  uncertainty k = 0.350178
         9        35         8        10     4      180.000000        3.159701         2    ;  uncertainty k = 0.350178
        10         5         9        11     4      180.000000       17.709387         2    ;  uncertainty k = 0.107132
        10         9        11         5     4      180.000000       17.709387         2    ;  uncertainty k = 0.107132
        10        11         5         9     4      180.000000       17.709387         2    ;  uncertainty k = 0.107132
        11        10        13        15     4      180.000000       12.409726         2    ;  uncertainty k = 0.157519
        11        13        15        10     4      180.000000       12.409726         2    ;  uncertainty k = 0.157519
        11        15        10        13     4      180.000000       12.409726         2    ;  uncertainty k = 0.157519
        12         8        16        36     4      180.000000        1.379953         2    ;  uncertainty k = 1.192014
        12        16        36         8     4      180.000000        1.379953         2    ;  uncertainty k = 1.192014
        12        36         8        16     4      180.000000        1.379953         2    ;  uncertainty k = 1.192014
        13        11        14        37     4      180.000000        3.814273         2    ;  uncertainty k = 0.068436
        13        14        37        11     4      180.000000        3.814273         2    ;  uncertainty k = 0.068436
        13        37        11        14     4      180.000000        3.814273         2    ;  uncertainty k = 0.068436
        14        13        27        38     4      180.000000        2.240143         2    ;  uncertainty k = 0.255503
        14        27        38        13     4      180.000000        2.240143         2    ;  uncertainty k = 0.255503
        14        38        13        27     4      180.000000        2.240143         2    ;  uncertainty k = 0.255503
        15        11        26        39     4      180.000000        2.648308         2    ;  uncertainty k = 0.435204
        15        26        39        11     4      180.000000        2.648308         2    ;  uncertainty k = 0.435204
        15        39        11        26     4      180.000000        2.648308         2    ;  uncertainty k = 0.435204
        16        12        17        21     4      180.000000       22.010775         2    ;  uncertainty k = 0.077537
        16        17        21        12     4      180.000000       22.010775         2    ;  uncertainty k = 0.077537
        16        21        12        17     4      180.000000       22.010775         2    ;  uncertainty k = 0.077537
        17        16        18        40     4      180.000000       10.900437         2    ;  uncertainty k = 0.192114
        17        18        40        16     4      180.000000       10.900437         2    ;  uncertainty k = 0.192114
        17        40        16        18     4      180.000000       10.900437         2    ;  uncertainty k = 0.192114
        19        18        20        41     4      180.000000       11.385376         2    ;  uncertainty k = 0.107036
        19        20        41        18     4      180.000000       11.385376         2    ;  uncertainty k = 0.107036
        19        41        18        20     4      180.000000       11.385376         2    ;  uncertainty k = 0.107036
        20        19        21        42     4      180.000000        4.322239         2    ;  uncertainty k = 0.262311
        20        21        42        19     4      180.000000        4.322239         2    ;  uncertainty k = 0.262311
        20        42        19        21     4      180.000000        4.322239         2    ;  uncertainty k = 0.262311
        21        16        20        22     4      180.000000        5.945008         2    ;  uncertainty k = 0.459977
        21        20        22        16     4      180.000000        5.945008         2    ;  uncertainty k = 0.459977
        21        22        16        20     4      180.000000        5.945008         2    ;  uncertainty k = 0.459977
        26        15        27        31     4      180.000000       15.518969         2    ;  uncertainty k = 0.132253
        26        27        31        15     4      180.000000       15.518969         2    ;  uncertainty k = 0.132253
        26        31        15        27     4      180.000000       15.518969         2    ;  uncertainty k = 0.132253
        27        14        26        28     4      180.000000       15.723669         2    ;  uncertainty k = 0.106332
        27        26        28        14     4      180.000000       15.723669         2    ;  uncertainty k = 0.106332
        27        28        14        26     4      180.000000       15.723669         2    ;  uncertainty k = 0.106332

[ pairs ]
;       ai        aj funct
         1         2     1
         1         8     1
         1        10     1
         1        32     1
         1        34     1
         2         7     1
         2         9     1
         2        11     1
         2        33     1
         3         6     1
         3        10     1
         4         5     1
         4         7     1
         5         8     1
         5        13     1
         5        15     1
         5        32     1
         5        34     1
         5        35     1
         6         9     1
         6        11     1
         6        12     1
         6        33     1
         7        10     1
         7        16     1
         7        35     1
         7        36     1
         8        11     1
         8        17     1
         8        21     1
         9        13     1
         9        15     1
         9        16     1
         9        34     1
         9        36     1
        10        12     1
        10        14     1
        10        26     1
        10        37     1
        10        39     1
        11        27     1
        11        31     1
        11        35     1
        11        38     1
        12        18     1
        12        20     1
        12        22     1
        12        34     1
        12        35     1
        12        40     1
        13        26     1
        13        28     1
        13        39     1
        14        15     1
        14        29     1
        14        31     1
        15        28     1
        15        30     1
        15        37     1
        16        19     1
        16        23     1
        16        24     1
        16        25     1
        16        42     1
        17        20     1
        17        22     1
        17        36     1
        17        41     1
        18        21     1
        18        42     1
        19        22     1
        19        40     1
        20        23     1
        20        24     1
        20        25     1
        21        36     1
        21        40     1
        21        41     1
        21        43     1
        21        44     1
        21        45     1
        22        42     1
        23        43     1
        23        44     1
        23        45     1
        24        43     1
        24        44     1
        24        45     1
        26        29     1
        26        38     1
        26        48     1
        26        49     1
        27        30     1
        27        37     1
        27        39     1
        27        46     1
        27        47     1
        28        31     1
        28        38     1
        28        48     1
        28        49     1
        31        39     1
        31        46     1
        31        47     1
        32        33     1
        37        38     1
        41        42     1
        46        48     1
        46        49     1
        47        48     1
        47        49     1
