; ITP file created by ByteFF-joint-25, 2026-02-17 09:23:18.139253

[ atomtypes ]
;name           bonded.type        at.num        mass        charge   ptype           sigma         epsilon
 c0bf                                   6      0.0000       0.00000       A     3.31509e-01     4.13539e-01    ;  uncertainty sigma = 0.000009, epsilon = 0.000465
 c1bf                                   6      0.0000       0.00000       A     3.31538e-01     4.13732e-01    ;  uncertainty sigma = 0.000012, epsilon = 0.001772
 c2bf                                   6      0.0000       0.00000       A     3.31496e-01     4.13470e-01    ;  uncertainty sigma = 0.000006, epsilon = 0.000742
 c3bf                                   6      0.0000       0.00000       A     3.31488e-01     4.12665e-01    ;  uncertainty sigma = 0.000011, epsilon = 0.000854
 c4bf                                   6      0.0000       0.00000       A     3.31516e-01     4.13470e-01    ;  uncertainty sigma = 0.000011, epsilon = 0.000986
 c5bf                                   6      0.0000       0.00000       A     3.31519e-01     4.13020e-01    ;  uncertainty sigma = 0.000010, epsilon = 0.001115
 n6bf                                   7      0.0000       0.00000       A     3.38415e-01     3.93854e-01    ;  uncertainty sigma = 0.000010, epsilon = 0.001066
 c7bf                                   6      0.0000       0.00000       A     3.31531e-01     4.13178e-01    ;  uncertainty sigma = 0.000013, epsilon = 0.000482
 c8bf                                   6      0.0000       0.00000       A     3.31530e-01     4.13238e-01    ;  uncertainty sigma = 0.000010, epsilon = 0.000599
 n9bf                                   7      0.0000       0.00000       A     3.38414e-01     3.93827e-01    ;  uncertainty sigma = 0.000003, epsilon = 0.000862
 c10bf                                  6      0.0000       0.00000       A     3.31502e-01     4.13293e-01    ;  uncertainty sigma = 0.000013, epsilon = 0.000809
 n11bf                                  7      0.0000       0.00000       A     3.27956e-01     6.47518e-01    ;  uncertainty sigma = 0.000036, epsilon = 0.003822
 c12bf                                  6      0.0000       0.00000       A     3.31520e-01     4.13622e-01    ;  uncertainty sigma = 0.000006, epsilon = 0.000648
 c13bf                                  6      0.0000       0.00000       A     3.31520e-01     4.13282e-01    ;  uncertainty sigma = 0.000008, epsilon = 0.000740
 c14bf                                  6      0.0000       0.00000       A     3.31499e-01     4.13158e-01    ;  uncertainty sigma = 0.000009, epsilon = 0.001385
 c15bf                                  6      0.0000       0.00000       A     3.31547e-01     4.13738e-01    ;  uncertainty sigma = 0.000014, epsilon = 0.001249
 c16bf                                  6      0.0000       0.00000       A     3.31542e-01     4.13616e-01    ;  uncertainty sigma = 0.000014, epsilon = 0.001189
 n17bf                                  7      0.0000       0.00000       A     3.38425e-01     3.93402e-01    ;  uncertainty sigma = 0.000027, epsilon = 0.002236
 s18bf                                 16      0.0000       0.00000       A     3.53188e-01     1.18155e+00    ;  uncertainty sigma = 0.000019, epsilon = 0.000637
 n19bf                                  7      0.0000       0.00000       A     3.38437e-01     3.93421e-01    ;  uncertainty sigma = 0.000025, epsilon = 0.002299
 c20bf                                  6      0.0000       0.00000       A     3.31502e-01     4.13462e-01    ;  uncertainty sigma = 0.000018, epsilon = 0.002180
 c21bf                                  6      0.0000       0.00000       A     3.31501e-01     4.13078e-01    ;  uncertainty sigma = 0.000025, epsilon = 0.001598
 c22bf                                  6      0.0000       0.00000       A     3.31518e-01     4.13124e-01    ;  uncertainty sigma = 0.000015, epsilon = 0.000361
 c23bf                                  6      0.0000       0.00000       A     3.31513e-01     4.13350e-01    ;  uncertainty sigma = 0.000011, epsilon = 0.000728
 n24bf                                  7      0.0000       0.00000       A     3.38420e-01     3.93806e-01    ;  uncertainty sigma = 0.000013, epsilon = 0.000882
 c25bf                                  6      0.0000       0.00000       A     3.31533e-01     4.13419e-01    ;  uncertainty sigma = 0.000012, epsilon = 0.000931
 s26bf                                 16      0.0000       0.00000       A     4.05775e-01     2.56505e-01    ;  uncertainty sigma = 0.000009, epsilon = 0.002944
 c27bf                                  6      0.0000       0.00000       A     3.39790e-01     4.50653e-01    ;  uncertainty sigma = 0.000003, epsilon = 0.000848
 o28bf                                  8      0.0000       0.00000       A     3.04808e-01     6.12058e-01    ;  uncertainty sigma = 0.000011, epsilon = 0.001075
 o29bf                                  8      0.0000       0.00000       A     3.04808e-01     6.12058e-01    ;  uncertainty sigma = 0.000011, epsilon = 0.001075
 h30bf                                  1      0.0000       0.00000       A     2.62540e-01     6.71221e-02    ;  uncertainty sigma = 0.000022, epsilon = 0.000645
 h31bf                                  1      0.0000       0.00000       A     2.62566e-01     6.71158e-02    ;  uncertainty sigma = 0.000015, epsilon = 0.000400
 h32bf                                  1      0.0000       0.00000       A     2.53628e-01     6.69333e-02    ;  uncertainty sigma = 0.000020, epsilon = 0.000763
 h33bf                                  1      0.0000       0.00000       A     2.53628e-01     6.69333e-02    ;  uncertainty sigma = 0.000020, epsilon = 0.000763
 h34bf                                  1      0.0000       0.00000       A     1.10720e-01     4.14041e-02    ;  uncertainty sigma = 0.000106, epsilon = 0.001477
 h35bf                                  1      0.0000       0.00000       A     2.62564e-01     6.70693e-02    ;  uncertainty sigma = 0.000012, epsilon = 0.000580
 h36bf                                  1      0.0000       0.00000       A     2.62532e-01     6.69731e-02    ;  uncertainty sigma = 0.000013, epsilon = 0.000811
 h37bf                                  1      0.0000       0.00000       A     2.62532e-01     6.69797e-02    ;  uncertainty sigma = 0.000024, epsilon = 0.000673
 h38bf                                  1      0.0000       0.00000       A     2.62533e-01     6.70950e-02    ;  uncertainty sigma = 0.000019, epsilon = 0.000754
 h39bf                                  1      0.0000       0.00000       A     2.53633e-01     6.70304e-02    ;  uncertainty sigma = 0.000014, epsilon = 0.000494
 h40bf                                  1      0.0000       0.00000       A     2.53624e-01     6.69778e-02    ;  uncertainty sigma = 0.000049, epsilon = 0.000568
 h41bf                                  1      0.0000       0.00000       A     2.42167e-01     8.68276e-02    ;  uncertainty sigma = 0.000012, epsilon = 0.000620
 h42bf                                  1      0.0000       0.00000       A     2.42167e-01     8.68276e-02    ;  uncertainty sigma = 0.000012, epsilon = 0.000620
 h43bf                                  1      0.0000       0.00000       A     2.42167e-01     8.68276e-02    ;  uncertainty sigma = 0.000012, epsilon = 0.000620

[ moleculetype ]
;name             nrexcl
 MOL                   3

[ atoms ]
;       nr            type      resi   res      atom      cgnr      charge          mass ; qtot
         1            c0bf         1   UNL        c0         1    -0.22162       12.0110 ; qtot   -0.222
         2            c1bf         1   UNL        c1         2     0.17400       12.0110 ; qtot   -0.048
         3            c2bf         1   UNL        c2         3    -0.15995       12.0110 ; qtot   -0.208
         4            c3bf         1   UNL        c3         4    -0.03301       12.0110 ; qtot   -0.241
         5            c4bf         1   UNL        c4         5     0.32361       12.0110 ; qtot    0.083
         6            c5bf         1   UNL        c5         6     0.27545       12.0110 ; qtot    0.358
         7            n6bf         1   UNL        n6         7    -0.61815       14.0070 ; qtot   -0.260
         8            c7bf         1   UNL        c7         8     0.29560       12.0110 ; qtot    0.036
         9            c8bf         1   UNL        c8         9     0.29621       12.0110 ; qtot    0.332
        10            n9bf         1   UNL        n9        10    -0.62862       14.0070 ; qtot   -0.296
        11           c10bf         1   UNL       c10        11    -0.00889       12.0110 ; qtot   -0.305
        12           n11bf         1   UNL       n11        12    -0.64735       14.0070 ; qtot   -0.953
        13           c12bf         1   UNL       c12        13    -0.09165       12.0110 ; qtot   -1.044
        14           c13bf         1   UNL       c13        14    -0.08786       12.0110 ; qtot   -1.132
        15           c14bf         1   UNL       c14        15    -0.07221       12.0110 ; qtot   -1.204
        16           c15bf         1   UNL       c15        16    -0.07856       12.0110 ; qtot   -1.283
        17           c16bf         1   UNL       c16        17    -0.07913       12.0110 ; qtot   -1.362
        18           n17bf         1   UNL       n17        18    -0.26914       14.0070 ; qtot   -1.631
        19           s18bf         1   UNL       s18        19     0.51914       32.0670 ; qtot   -1.112
        20           n19bf         1   UNL       n19        20    -0.27040       14.0070 ; qtot   -1.383
        21           c20bf         1   UNL       c20        21     0.15628       12.0110 ; qtot   -1.226
        22           c21bf         1   UNL       c21        22    -0.26398       12.0110 ; qtot   -1.490
        23           c22bf         1   UNL       c22        23    -0.13704       12.0110 ; qtot   -1.627
        24           c23bf         1   UNL       c23        24     0.35581       12.0110 ; qtot   -1.271
        25           n24bf         1   UNL       n24        25    -0.60182       14.0070 ; qtot   -1.873
        26           c25bf         1   UNL       c25        26     0.33325       12.0110 ; qtot   -1.540
        27           s26bf         1   UNL       s26        27     1.01656       32.0670 ; qtot   -0.523
        28           c27bf         1   UNL       c27        28    -0.18352       12.0110 ; qtot   -0.707
        29           o28bf         1   UNL       o28        29    -0.58472       15.9990 ; qtot   -1.292
        30           o29bf         1   UNL       o29        30    -0.58472       15.9990 ; qtot   -1.876
        31           h30bf         1   UNL       h30        31     0.15776        1.0080 ; qtot   -1.719
        32           h31bf         1   UNL       h31        32     0.14719        1.0080 ; qtot   -1.571
        33           h32bf         1   UNL       h32        33     0.03380        1.0080 ; qtot   -1.538
        34           h33bf         1   UNL       h33        34     0.03331        1.0080 ; qtot   -1.504
        35           h34bf         1   UNL       h34        35     0.47844        1.0080 ; qtot   -1.026
        36           h35bf         1   UNL       h35        36     0.14596        1.0080 ; qtot   -0.880
        37           h36bf         1   UNL       h36        37     0.16019        1.0080 ; qtot   -0.720
        38           h37bf         1   UNL       h37        38     0.16646        1.0080 ; qtot   -0.553
        39           h38bf         1   UNL       h38        39     0.16807        1.0080 ; qtot   -0.385
        40           h39bf         1   UNL       h39        40     0.03424        1.0080 ; qtot   -0.351
        41           h40bf         1   UNL       h40        41     0.03967        1.0080 ; qtot   -0.311
        42           h41bf         1   UNL       h41        42     0.10378        1.0080 ; qtot   -0.208
        43           h42bf         1   UNL       h42        43     0.10378        1.0080 ; qtot   -0.104
        44           h43bf         1   UNL       h43        44     0.10378        1.0080 ; qtot    0.000

[ bonds ]
;       ai        aj funct               r               k
         1         2     1        0.138770   381943.478027    ;  uncertainty r = 0.000111, k = 9.337643
         1         5     1        0.141431   396079.468311    ;  uncertainty r = 0.000094, k = 15.205670
         1        31     1        0.108811   340366.765625    ;  uncertainty r = 0.000031, k = 1.855831
         2         3     1        0.142004   351951.215625    ;  uncertainty r = 0.000218, k = 13.007858
         2        12     1        0.141414   345942.921143    ;  uncertainty r = 0.000097, k = 12.910230
         3         4     1        0.138000   347495.985986    ;  uncertainty r = 0.000143, k = 17.234335
         3        32     1        0.108883   338510.268848    ;  uncertainty r = 0.000020, k = 3.739164
         4         6     1        0.143085   310245.234375    ;  uncertainty r = 0.000128, k = 17.466674
         4        11     1        0.148280   281164.238184    ;  uncertainty r = 0.000086, k = 18.720548
         5         6     1        0.142995   298655.600342    ;  uncertainty r = 0.000072, k = 15.498948
         5        10     1        0.136382   355171.598340    ;  uncertainty r = 0.000057, k = 8.738544
         6         7     1        0.135767   353109.910889    ;  uncertainty r = 0.000088, k = 12.675249
         7         8     1        0.131584   437137.956152    ;  uncertainty r = 0.000061, k = 11.801030
         8         9     1        0.141378   325245.374902    ;  uncertainty r = 0.000067, k = 16.241067
         8        33     1        0.109180   341408.015723    ;  uncertainty r = 0.000031, k = 1.111543
         9        10     1        0.131606   448634.967090    ;  uncertainty r = 0.000067, k = 6.059784
         9        34     1        0.109175   341608.201123    ;  uncertainty r = 0.000026, k = 2.358943
        11        13     1        0.144298   327268.629004    ;  uncertainty r = 0.000148, k = 27.046561
        11        15     1        0.137360   360885.475488    ;  uncertainty r = 0.000099, k = 5.943827
        12        21     1        0.139103   334487.356934    ;  uncertainty r = 0.000264, k = 9.014074
        12        35     1        0.101492   409720.242969    ;  uncertainty r = 0.000088, k = 5.983698
        13        14     1        0.136694   368376.684375    ;  uncertainty r = 0.000116, k = 2.112056
        13        36     1        0.108743   335083.010010    ;  uncertainty r = 0.000032, k = 2.242895
        14        17     1        0.142558   399136.183691    ;  uncertainty r = 0.000030, k = 5.166856
        14        37     1        0.108707   337068.469189    ;  uncertainty r = 0.000039, k = 2.843599
        15        16     1        0.142231   391826.339355    ;  uncertainty r = 0.000100, k = 7.353285
        15        38     1        0.108710   336782.249268    ;  uncertainty r = 0.000032, k = 3.736611
        16        17     1        0.144951   408743.780518    ;  uncertainty r = 0.000095, k = 10.019543
        16        20     1        0.134414   480039.993457    ;  uncertainty r = 0.000094, k = 5.189293
        17        18     1        0.134276   480583.729590    ;  uncertainty r = 0.000052, k = 3.144759
        18        19     1        0.164346   126969.499097    ;  uncertainty r = 0.000112, k = 10.797975
        19        20     1        0.164390   127554.235059    ;  uncertainty r = 0.000108, k = 10.205348
        21        22     1        0.141356   348414.581348    ;  uncertainty r = 0.000198, k = 15.946803
        21        26     1        0.140927   340447.922559    ;  uncertainty r = 0.000113, k = 16.488676
        22        23     1        0.138845   368349.257520    ;  uncertainty r = 0.000202, k = 14.185244
        22        27     1        0.180205   137177.869189    ;  uncertainty r = 0.000181, k = 18.369742
        23        24     1        0.139170   363105.058887    ;  uncertainty r = 0.000048, k = 3.861455
        23        39     1        0.108610   333138.742188    ;  uncertainty r = 0.000052, k = 1.956178
        24        25     1        0.133802   397972.227783    ;  uncertainty r = 0.000074, k = 5.323582
        24        40     1        0.108994   339519.240039    ;  uncertainty r = 0.000025, k = 1.411821
        25        26     1        0.132524   387119.441504    ;  uncertainty r = 0.000108, k = 11.004603
        26        41     1        0.108905   336131.001904    ;  uncertainty r = 0.000101, k = 3.724287
        27        28     1        0.181050   174448.769580    ;  uncertainty r = 0.000039, k = 9.209376
        27        29     1        0.147757   507438.196289    ;  uncertainty r = 0.000058, k = 6.198354
        27        30     1        0.147757   507438.196289    ;  uncertainty r = 0.000058, k = 6.198354
        28        42     1        0.109286   321567.954541    ;  uncertainty r = 0.000031, k = 1.364971
        28        43     1        0.109286   321567.954541    ;  uncertainty r = 0.000031, k = 1.364971
        28        44     1        0.109286   321567.954541    ;  uncertainty r = 0.000031, k = 1.364971

[ angles ]
;       ai        aj        ak funct           theta             cth
         1         2         3     1      119.362228      387.607800    ;  uncertainty theta = 0.003782, k = 0.067189
         1         2        12     1      122.010719      487.333915    ;  uncertainty theta = 0.006482, k = 0.189293
         1         5         6     1      119.517235      392.036797    ;  uncertainty theta = 0.005326, k = 0.191059
         1         5        10     1      122.312637      528.712396    ;  uncertainty theta = 0.003351, k = 0.210335
         2         1         5     1      118.206688      518.635644    ;  uncertainty theta = 0.002447, k = 0.073028
         2         1        31     1      121.438538      270.401885    ;  uncertainty theta = 0.001365, k = 0.142095
         2         3         4     1      122.335289      516.619394    ;  uncertainty theta = 0.004567, k = 0.260105
         2         3        32     1      119.369408      284.883278    ;  uncertainty theta = 0.005054, k = 0.124449
         2        12        21     1      115.247620      387.593978    ;  uncertainty theta = 0.002924, k = 0.212980
         2        12        35     1      115.334732      382.605049    ;  uncertainty theta = 0.007384, k = 0.160727
         3         2        12     1      120.277283      500.376100    ;  uncertainty theta = 0.004774, k = 0.343101
         3         4         6     1      121.234207      456.906322    ;  uncertainty theta = 0.004548, k = 0.137789
         3         4        11     1      120.856522      422.776837    ;  uncertainty theta = 0.003710, k = 0.161459
         4         3        32     1      118.704933      277.851890    ;  uncertainty theta = 0.005306, k = 0.050256
         4         6         5     1      120.727844      398.377566    ;  uncertainty theta = 0.005688, k = 0.083900
         4         6         7     1      118.059143      466.719084    ;  uncertainty theta = 0.004200, k = 0.232797
         4        11        13     1      119.397888      400.504264    ;  uncertainty theta = 0.004223, k = 0.072456
         4        11        15     1      120.251099      390.066034    ;  uncertainty theta = 0.003669, k = 0.100496
         5         1        31     1      120.837975      275.673543    ;  uncertainty theta = 0.003390, k = 0.103595
         5         6         7     1      119.722855      514.456752    ;  uncertainty theta = 0.004269, k = 0.061580
         5        10         9     1      114.458984      488.266148    ;  uncertainty theta = 0.001996, k = 0.147683
         6         4        11     1      119.001747      393.428825    ;  uncertainty theta = 0.004704, k = 0.219422
         6         5        10     1      119.243858      555.279545    ;  uncertainty theta = 0.007472, k = 0.086368
         6         7         8     1      116.502525      472.887605    ;  uncertainty theta = 0.004302, k = 0.130226
         7         8         9     1      121.240555      622.447314    ;  uncertainty theta = 0.002919, k = 0.205880
         7         8        33     1      116.813492      347.959523    ;  uncertainty theta = 0.001638, k = 0.087624
         8         9        10     1      120.931259      612.842998    ;  uncertainty theta = 0.002470, k = 0.239696
         8         9        34     1      121.868530      283.534439    ;  uncertainty theta = 0.002376, k = 0.096063
         9         8        33     1      121.994606      282.804174    ;  uncertainty theta = 0.002439, k = 0.090842
        10         9        34     1      116.754013      350.159832    ;  uncertainty theta = 0.001533, k = 0.075385
        11        13        14     1      123.658913      545.229032    ;  uncertainty theta = 0.002917, k = 0.102567
        11        13        36     1      118.372238      285.418408    ;  uncertainty theta = 0.003083, k = 0.093105
        11        15        16     1      117.670311      516.884692    ;  uncertainty theta = 0.008787, k = 0.158624
        11        15        38     1      121.930405      275.520448    ;  uncertainty theta = 0.004388, k = 0.161504
        12        21        22     1      122.762405      517.830842    ;  uncertainty theta = 0.007977, k = 0.368248
        12        21        26     1      118.512817      444.269954    ;  uncertainty theta = 0.006989, k = 0.276229
        13        11        15     1      122.984634      431.346548    ;  uncertainty theta = 0.004184, k = 0.129811
        13        14        17     1      117.214394      529.894956    ;  uncertainty theta = 0.003152, k = 0.240312
        13        14        37     1      121.896286      274.810069    ;  uncertainty theta = 0.003064, k = 0.048624
        14        13        36     1      118.986595      295.448203    ;  uncertainty theta = 0.003369, k = 0.048553
        14        17        16     1      116.793190      380.420860    ;  uncertainty theta = 0.005172, k = 0.256805
        14        17        18     1      127.298607      445.173520    ;  uncertainty theta = 0.003083, k = 0.070185
        15        16        17     1      117.948891      377.248034    ;  uncertainty theta = 0.006333, k = 0.157714
        15        16        20     1      127.074768      439.898256    ;  uncertainty theta = 0.001780, k = 0.089332
        16        15        38     1      121.337509      284.906868    ;  uncertainty theta = 0.003672, k = 0.161250
        16        17        18     1      113.881310      665.621691    ;  uncertainty theta = 0.006805, k = 0.197474
        16        20        19     1      105.837364      769.879686    ;  uncertainty theta = 0.006127, k = 0.114330
        17        14        37     1      121.728638      286.953284    ;  uncertainty theta = 0.003793, k = 0.152519
        17        16        20     1      113.788902      670.817663    ;  uncertainty theta = 0.006852, k = 0.173138
        17        18        19     1      105.976952      781.008886    ;  uncertainty theta = 0.006218, k = 0.131507
        18        19        20     1       99.197571     1477.996851    ;  uncertainty theta = 0.003826, k = 0.107685
        21        12        35     1      114.408607      380.718399    ;  uncertainty theta = 0.008156, k = 0.169224
        21        22        23     1      123.289940      400.819424    ;  uncertainty theta = 0.003703, k = 0.311812
        21        22        27     1      119.668861      323.012576    ;  uncertainty theta = 0.009862, k = 0.668304
        21        26        25     1      124.922020      667.515332    ;  uncertainty theta = 0.002966, k = 0.161817
        21        26        41     1      118.731201      264.771783    ;  uncertainty theta = 0.008633, k = 0.144655
        22        21        26     1      118.657326      362.619739    ;  uncertainty theta = 0.004612, k = 0.362833
        22        23        24     1      118.808189      483.994172    ;  uncertainty theta = 0.004991, k = 0.079007
        22        23        39     1      119.535904      260.121124    ;  uncertainty theta = 0.004889, k = 0.124126
        22        27        28     1      104.371536      610.740975    ;  uncertainty theta = 0.002610, k = 0.101867
        22        27        29     1      112.903687      607.682204    ;  uncertainty theta = 0.002869, k = 0.171145
        22        27        30     1      112.903687      607.682204    ;  uncertainty theta = 0.002869, k = 0.171145
        23        22        27     1      114.589767      352.518823    ;  uncertainty theta = 0.008187, k = 0.213542
        23        24        25     1      122.431076      677.632560    ;  uncertainty theta = 0.002046, k = 0.093657
        23        24        40     1      120.256371      277.546338    ;  uncertainty theta = 0.002265, k = 0.082404
        24        23        39     1      122.214798      277.736813    ;  uncertainty theta = 0.004016, k = 0.070188
        24        25        26     1      118.268311      445.304685    ;  uncertainty theta = 0.004478, k = 0.098123
        25        24        40     1      116.840332      340.667018    ;  uncertainty theta = 0.001197, k = 0.068775
        25        26        41     1      116.579346      347.314807    ;  uncertainty theta = 0.005152, k = 0.066004
        27        28        42     1      107.113976      366.636120    ;  uncertainty theta = 0.002061, k = 0.075109
        27        28        43     1      107.113976      366.636120    ;  uncertainty theta = 0.002061, k = 0.075109
        27        28        44     1      107.113976      366.636120    ;  uncertainty theta = 0.002061, k = 0.075109
        28        27        29     1      112.603317      748.419703    ;  uncertainty theta = 0.000730, k = 0.122172
        28        27        30     1      112.603317      748.419703    ;  uncertainty theta = 0.000730, k = 0.122172
        29        27        30     1      123.473061      838.268575    ;  uncertainty theta = 0.001927, k = 0.047858
        42        28        43     1      108.843689      296.191780    ;  uncertainty theta = 0.002069, k = 0.023129
        42        28        44     1      108.843689      296.191780    ;  uncertainty theta = 0.002069, k = 0.023129
        43        28        44     1      108.843689      296.191748    ;  uncertainty theta = 0.002069, k = 0.023129

[ dihedrals ] ; propers for gromacs 4.5 or higher, use funct 9
;       ai        aj        ak        al funct           phase               k        pn
         1         2         3         4     9        0.000000       -0.062505         1    ;  uncertainty k = 0.337261
         1         2         3         4     9      180.000000        6.273652         2    ;  uncertainty k = 0.976004
         1         2         3         4     9        0.000000        0.300249         3    ;  uncertainty k = 0.188358
         1         2         3         4     9      180.000000        1.347177         4    ;  uncertainty k = 0.321066
         1         2         3        32     9        0.000000        0.249483         1    ;  uncertainty k = 0.404908
         1         2         3        32     9      180.000000        5.922879         2    ;  uncertainty k = 0.882861
         1         2         3        32     9        0.000000        1.141823         3    ;  uncertainty k = 0.151874
         1         2         3        32     9      180.000000        1.438043         4    ;  uncertainty k = 0.272334
         1         2        12        21     9        0.000000        2.391291         1    ;  uncertainty k = 0.927257
         1         2        12        21     9      180.000000        5.627189         2    ;  uncertainty k = 0.345909
         1         2        12        21     9        0.000000        0.130796         3    ;  uncertainty k = 0.275597
         1         2        12        21     9      180.000000        0.108068         4    ;  uncertainty k = 0.070781
         1         2        12        35     9        0.000000        3.714209         1    ;  uncertainty k = 1.019184
         1         2        12        35     9      180.000000        4.537149         2    ;  uncertainty k = 0.136540
         1         2        12        35     9        0.000000        0.421529         3    ;  uncertainty k = 0.226094
         1         2        12        35     9      180.000000       -0.068004         4    ;  uncertainty k = 0.067047
         1         5         6         4     9        0.000000       -0.713080         1    ;  uncertainty k = 0.521879
         1         5         6         4     9      180.000000        4.611688         2    ;  uncertainty k = 1.535208
         1         5         6         4     9        0.000000        0.274756         3    ;  uncertainty k = 0.299130
         1         5         6         4     9      180.000000        1.240053         4    ;  uncertainty k = 0.359772
         1         5         6         7     9        0.000000        0.076450         1    ;  uncertainty k = 0.284767
         1         5         6         7     9      180.000000        6.080416         2    ;  uncertainty k = 1.149880
         1         5         6         7     9        0.000000        0.106983         3    ;  uncertainty k = 0.156574
         1         5         6         7     9      180.000000        1.373586         4    ;  uncertainty k = 0.405208
         1         5        10         9     9        0.000000        0.427932         1    ;  uncertainty k = 1.029214
         1         5        10         9     9      180.000000       12.638436         2    ;  uncertainty k = 0.318597
         1         5        10         9     9        0.000000        2.227131         3    ;  uncertainty k = 0.470956
         1         5        10         9     9      180.000000        1.437848         4    ;  uncertainty k = 0.260470
         2         1         5         6     9        0.000000        0.121232         1    ;  uncertainty k = 0.458444
         2         1         5         6     9      180.000000        7.195263         2    ;  uncertainty k = 0.794920
         2         1         5         6     9        0.000000        0.037659         3    ;  uncertainty k = 0.279135
         2         1         5         6     9      180.000000        1.290689         4    ;  uncertainty k = 0.271574
         2         1         5        10     9        0.000000        0.146699         1    ;  uncertainty k = 0.428361
         2         1         5        10     9      180.000000        9.787397         2    ;  uncertainty k = 0.378069
         2         1         5        10     9        0.000000        0.568644         3    ;  uncertainty k = 0.286793
         2         1         5        10     9      180.000000        1.391198         4    ;  uncertainty k = 0.231273
         2         3         4         6     9        0.000000        0.019577         1    ;  uncertainty k = 0.540541
         2         3         4         6     9      180.000000       12.468997         2    ;  uncertainty k = 0.421815
         2         3         4         6     9        0.000000        0.364670         3    ;  uncertainty k = 0.229680
         2         3         4         6     9      180.000000        1.282696         4    ;  uncertainty k = 0.324127
         2         3         4        11     9        0.000000        0.148358         1    ;  uncertainty k = 0.216591
         2         3         4        11     9      180.000000       10.505916         2    ;  uncertainty k = 0.635738
         2         3         4        11     9        0.000000        1.338930         3    ;  uncertainty k = 0.294959
         2         3         4        11     9      180.000000        1.705794         4    ;  uncertainty k = 0.309682
         2        12        21        22     9        0.000000        0.589930         1    ;  uncertainty k = 1.531188
         2        12        21        22     9      180.000000        8.272737         2    ;  uncertainty k = 0.309915
         2        12        21        22     9        0.000000       -0.349199         3    ;  uncertainty k = 0.585019
         2        12        21        22     9      180.000000        0.078446         4    ;  uncertainty k = 0.210861
         2        12        21        26     9        0.000000        4.219814         1    ;  uncertainty k = 1.204825
         2        12        21        26     9      180.000000        5.915024         2    ;  uncertainty k = 0.485743
         2        12        21        26     9        0.000000        0.506820         3    ;  uncertainty k = 0.114705
         2        12        21        26     9      180.000000        0.021030         4    ;  uncertainty k = 0.159761
         3         2         1         5     9        0.000000       -0.221710         1    ;  uncertainty k = 0.191086
         3         2         1         5     9      180.000000        9.798197         2    ;  uncertainty k = 0.334095
         3         2         1         5     9        0.000000        0.329470         3    ;  uncertainty k = 0.461908
         3         2         1         5     9      180.000000        1.353768         4    ;  uncertainty k = 0.303960
         3         2         1        31     9        0.000000        0.274319         1    ;  uncertainty k = 0.397236
         3         2         1        31     9      180.000000        7.009104         2    ;  uncertainty k = 0.649588
         3         2         1        31     9        0.000000        1.295657         3    ;  uncertainty k = 0.118445
         3         2         1        31     9      180.000000        1.628271         4    ;  uncertainty k = 0.154579
         3         2        12        21     9        0.000000        2.704330         1    ;  uncertainty k = 1.100884
         3         2        12        21     9      180.000000        5.654041         2    ;  uncertainty k = 0.307786
         3         2        12        21     9        0.000000        0.621214         3    ;  uncertainty k = 0.287960
         3         2        12        21     9      180.000000        0.073947         4    ;  uncertainty k = 0.167406
         3         2        12        35     9        0.000000        3.340433         1    ;  uncertainty k = 0.856254
         3         2        12        35     9      180.000000        4.536996         2    ;  uncertainty k = 0.547944
         3         2        12        35     9        0.000000        0.508740         3    ;  uncertainty k = 0.257941
         3         2        12        35     9      180.000000       -0.053044         4    ;  uncertainty k = 0.129026
         3         4         6         5     9        0.000000       -0.064268         1    ;  uncertainty k = 0.482878
         3         4         6         5     9      180.000000        5.815078         2    ;  uncertainty k = 0.996902
         3         4         6         5     9        0.000000        0.060037         3    ;  uncertainty k = 0.264412
         3         4         6         5     9      180.000000        1.005082         4    ;  uncertainty k = 0.332027
         3         4         6         7     9        0.000000        0.261320         1    ;  uncertainty k = 0.518995
         3         4         6         7     9      180.000000        6.885065         2    ;  uncertainty k = 0.805626
         3         4         6         7     9        0.000000        0.373938         3    ;  uncertainty k = 0.290824
         3         4         6         7     9      180.000000        1.164313         4    ;  uncertainty k = 0.349614
         3         4        11        13     9        0.000000       -0.010212         1    ;  uncertainty k = 0.415334
         3         4        11        13     9      180.000000        5.963736         2    ;  uncertainty k = 0.421959
         3         4        11        13     9        0.000000        0.214406         3    ;  uncertainty k = 0.179151
         3         4        11        13     9      180.000000        0.623262         4    ;  uncertainty k = 0.226251
         3         4        11        15     9        0.000000       -0.178490         1    ;  uncertainty k = 0.517028
         3         4        11        15     9      180.000000        5.183907         2    ;  uncertainty k = 0.409014
         3         4        11        15     9        0.000000        0.656257         3    ;  uncertainty k = 0.360486
         3         4        11        15     9      180.000000        0.377587         4    ;  uncertainty k = 0.166187
         4         3         2        12     9        0.000000        0.286610         1    ;  uncertainty k = 0.738718
         4         3         2        12     9      180.000000        7.663469         2    ;  uncertainty k = 0.500290
         4         3         2        12     9        0.000000        0.811590         3    ;  uncertainty k = 0.268207
         4         3         2        12     9      180.000000        1.632996         4    ;  uncertainty k = 0.114050
         4         6         5        10     9        0.000000       -0.297577         1    ;  uncertainty k = 0.701970
         4         6         5        10     9      180.000000        5.014359         2    ;  uncertainty k = 1.176011
         4         6         5        10     9        0.000000        0.093992         3    ;  uncertainty k = 0.371276
         4         6         5        10     9      180.000000        1.323525         4    ;  uncertainty k = 0.229333
         4         6         7         8     9        0.000000       -0.230726         1    ;  uncertainty k = 0.542096
         4         6         7         8     9      180.000000       12.457806         2    ;  uncertainty k = 0.567635
         4         6         7         8     9        0.000000        2.051214         3    ;  uncertainty k = 0.352155
         4         6         7         8     9      180.000000        1.316225         4    ;  uncertainty k = 0.190864
         4        11        13        14     9        0.000000        0.445038         1    ;  uncertainty k = 0.500438
         4        11        13        14     9      180.000000        6.880039         2    ;  uncertainty k = 0.753260
         4        11        13        14     9        0.000000        1.276999         3    ;  uncertainty k = 0.533893
         4        11        13        14     9      180.000000        1.696067         4    ;  uncertainty k = 0.235292
         4        11        13        36     9        0.000000       -0.185706         1    ;  uncertainty k = 0.200019
         4        11        13        36     9      180.000000        7.170460         2    ;  uncertainty k = 0.476406
         4        11        13        36     9        0.000000        0.890264         3    ;  uncertainty k = 0.207773
         4        11        13        36     9      180.000000        1.125642         4    ;  uncertainty k = 0.265066
         4        11        15        16     9        0.000000        0.385935         1    ;  uncertainty k = 0.753194
         4        11        15        16     9      180.000000       12.944146         2    ;  uncertainty k = 0.719191
         4        11        15        16     9        0.000000        1.625321         3    ;  uncertainty k = 0.105814
         4        11        15        16     9      180.000000        1.543480         4    ;  uncertainty k = 0.473877
         4        11        15        38     9        0.000000       -0.156962         1    ;  uncertainty k = 0.241975
         4        11        15        38     9      180.000000        8.241279         2    ;  uncertainty k = 0.271721
         4        11        15        38     9        0.000000        0.925001         3    ;  uncertainty k = 0.265824
         4        11        15        38     9      180.000000        1.295217         4    ;  uncertainty k = 0.091962
         5         1         2        12     9        0.000000       -0.189602         1    ;  uncertainty k = 0.394614
         5         1         2        12     9      180.000000       11.233635         2    ;  uncertainty k = 0.435509
         5         1         2        12     9        0.000000        0.975271         3    ;  uncertainty k = 0.174800
         5         1         2        12     9      180.000000        1.594279         4    ;  uncertainty k = 0.138016
         5         6         4        11     9        0.000000        0.075648         1    ;  uncertainty k = 0.728136
         5         6         4        11     9      180.000000        4.778062         2    ;  uncertainty k = 0.454494
         5         6         4        11     9        0.000000        1.039447         3    ;  uncertainty k = 0.212615
         5         6         4        11     9      180.000000        1.324916         4    ;  uncertainty k = 0.347838
         5         6         7         8     9        0.000000       -0.112022         1    ;  uncertainty k = 0.910117
         5         6         7         8     9      180.000000       11.596635         2    ;  uncertainty k = 0.629166
         5         6         7         8     9        0.000000        1.457657         3    ;  uncertainty k = 0.287216
         5         6         7         8     9      180.000000        1.330866         4    ;  uncertainty k = 0.318778
         5        10         9         8     9        0.000000        0.013311         1    ;  uncertainty k = 0.131653
         5        10         9         8     9      180.000000       17.231919         2    ;  uncertainty k = 0.196674
         5        10         9         8     9        0.000000        0.888029         3    ;  uncertainty k = 0.629562
         5        10         9         8     9      180.000000        1.519865         4    ;  uncertainty k = 0.234840
         5        10         9        34     9        0.000000        0.424412         1    ;  uncertainty k = 0.517709
         5        10         9        34     9      180.000000       19.045700         2    ;  uncertainty k = 0.443936
         5        10         9        34     9        0.000000        2.354563         3    ;  uncertainty k = 0.582721
         5        10         9        34     9      180.000000        1.407430         4    ;  uncertainty k = 0.336466
         6         4         3        32     9        0.000000        0.123738         1    ;  uncertainty k = 0.256829
         6         4         3        32     9      180.000000        9.582771         2    ;  uncertainty k = 0.350597
         6         4         3        32     9        0.000000        1.473211         3    ;  uncertainty k = 0.141253
         6         4         3        32     9      180.000000        1.670290         4    ;  uncertainty k = 0.172671
         6         4        11        13     9        0.000000       -0.049646         1    ;  uncertainty k = 0.626697
         6         4        11        13     9      180.000000        5.243507         2    ;  uncertainty k = 0.239038
         6         4        11        13     9        0.000000        0.608911         3    ;  uncertainty k = 0.374535
         6         4        11        13     9      180.000000        0.787996         4    ;  uncertainty k = 0.070731
         6         4        11        15     9        0.000000        0.405721         1    ;  uncertainty k = 0.330984
         6         4        11        15     9      180.000000        4.609297         2    ;  uncertainty k = 0.352626
         6         4        11        15     9        0.000000        0.064972         3    ;  uncertainty k = 0.552043
         6         4        11        15     9      180.000000        0.625485         4    ;  uncertainty k = 0.154120
         6         5         1        31     9        0.000000       -0.216754         1    ;  uncertainty k = 0.343873
         6         5         1        31     9      180.000000        5.853912         2    ;  uncertainty k = 0.879793
         6         5         1        31     9        0.000000        1.199031         3    ;  uncertainty k = 0.162614
         6         5         1        31     9      180.000000        1.246407         4    ;  uncertainty k = 0.338414
         6         5        10         9     9        0.000000       -0.063178         1    ;  uncertainty k = 1.326752
         6         5        10         9     9      180.000000       10.095142         2    ;  uncertainty k = 0.612694
         6         5        10         9     9        0.000000        1.278116         3    ;  uncertainty k = 0.488029
         6         5        10         9     9      180.000000        1.281711         4    ;  uncertainty k = 0.220795
         6         7         8         9     9        0.000000        0.020377         1    ;  uncertainty k = 0.368422
         6         7         8         9     9      180.000000       16.581266         2    ;  uncertainty k = 0.335688
         6         7         8         9     9        0.000000        0.829256         3    ;  uncertainty k = 0.750676
         6         7         8         9     9      180.000000        1.566270         4    ;  uncertainty k = 0.253962
         6         7         8        33     9        0.000000        0.275900         1    ;  uncertainty k = 0.531876
         6         7         8        33     9      180.000000       18.156242         2    ;  uncertainty k = 0.522836
         6         7         8        33     9        0.000000        2.344022         3    ;  uncertainty k = 0.655907
         6         7         8        33     9      180.000000        1.633482         4    ;  uncertainty k = 0.415921
         7         6         4        11     9        0.000000        0.367444         1    ;  uncertainty k = 1.170297
         7         6         4        11     9      180.000000        7.318584         2    ;  uncertainty k = 0.560592
         7         6         4        11     9        0.000000        0.854114         3    ;  uncertainty k = 0.533001
         7         6         4        11     9      180.000000        1.230753         4    ;  uncertainty k = 0.242522
         7         6         5        10     9        0.000000       -0.400492         1    ;  uncertainty k = 0.890675
         7         6         5        10     9      180.000000        7.087146         2    ;  uncertainty k = 0.720455
         7         6         5        10     9        0.000000        0.077638         3    ;  uncertainty k = 0.327161
         7         6         5        10     9      180.000000        1.330895         4    ;  uncertainty k = 0.356325
         7         8         9        10     9        0.000000       -0.202866         1    ;  uncertainty k = 0.782206
         7         8         9        10     9      180.000000       12.112991         2    ;  uncertainty k = 0.805807
         7         8         9        10     9        0.000000       -1.599825         3    ;  uncertainty k = 0.569696
         7         8         9        10     9      180.000000        0.918172         4    ;  uncertainty k = 0.463986
         7         8         9        34     9        0.000000        0.036888         1    ;  uncertainty k = 0.700692
         7         8         9        34     9      180.000000        6.513920         2    ;  uncertainty k = 1.135262
         7         8         9        34     9        0.000000        0.521731         3    ;  uncertainty k = 0.385188
         7         8         9        34     9      180.000000        1.117821         4    ;  uncertainty k = 0.330142
        10         5         1        31     9        0.000000        0.139927         1    ;  uncertainty k = 0.233388
        10         5         1        31     9      180.000000        8.199302         2    ;  uncertainty k = 0.492393
        10         5         1        31     9        0.000000        1.032825         3    ;  uncertainty k = 0.329116
        10         5         1        31     9      180.000000        1.219854         4    ;  uncertainty k = 0.291231
        10         9         8        33     9        0.000000       -0.033262         1    ;  uncertainty k = 0.634830
        10         9         8        33     9      180.000000        6.504272         2    ;  uncertainty k = 1.136878
        10         9         8        33     9        0.000000        0.521238         3    ;  uncertainty k = 0.433609
        10         9         8        33     9      180.000000        1.070757         4    ;  uncertainty k = 0.343719
        11         4         3        32     9        0.000000        0.141357         1    ;  uncertainty k = 0.350527
        11         4         3        32     9      180.000000        8.510978         2    ;  uncertainty k = 0.277831
        11         4         3        32     9        0.000000        0.992272         3    ;  uncertainty k = 0.183422
        11         4         3        32     9      180.000000        1.389182         4    ;  uncertainty k = 0.294422
        11        13        14        17     9        0.000000       -0.021108         1    ;  uncertainty k = 0.240017
        11        13        14        17     9      180.000000       17.227021         2    ;  uncertainty k = 0.333517
        11        13        14        17     9        0.000000        0.102970         3    ;  uncertainty k = 0.557570
        11        13        14        17     9      180.000000        0.791080         4    ;  uncertainty k = 0.336378
        11        13        14        37     9        0.000000       -0.018045         1    ;  uncertainty k = 0.100797
        11        13        14        37     9      180.000000        9.683570         2    ;  uncertainty k = 0.435546
        11        13        14        37     9        0.000000        1.427999         3    ;  uncertainty k = 0.315234
        11        13        14        37     9      180.000000        1.965684         4    ;  uncertainty k = 0.359084
        11        15        16        17     9        0.000000       -0.435194         1    ;  uncertainty k = 0.496897
        11        15        16        17     9      180.000000        9.894939         2    ;  uncertainty k = 0.276127
        11        15        16        17     9        0.000000       -0.984494         3    ;  uncertainty k = 0.344255
        11        15        16        17     9      180.000000        0.909800         4    ;  uncertainty k = 0.225029
        11        15        16        20     9        0.000000        0.013452         1    ;  uncertainty k = 0.590763
        11        15        16        20     9      180.000000        8.678967         2    ;  uncertainty k = 0.898502
        11        15        16        20     9        0.000000        0.655378         3    ;  uncertainty k = 0.109602
        11        15        16        20     9      180.000000        1.138658         4    ;  uncertainty k = 0.446814
        12         2         1        31     9        0.000000       -0.570257         1    ;  uncertainty k = 0.225437
        12         2         1        31     9      180.000000        8.036471         2    ;  uncertainty k = 0.539841
        12         2         1        31     9        0.000000        0.826404         3    ;  uncertainty k = 0.259178
        12         2         1        31     9      180.000000        1.188346         4    ;  uncertainty k = 0.226656
        12         2         3        32     9        0.000000       -0.444464         1    ;  uncertainty k = 0.331197
        12         2         3        32     9      180.000000        6.982226         2    ;  uncertainty k = 0.396117
        12         2         3        32     9        0.000000        0.801489         3    ;  uncertainty k = 0.230308
        12         2         3        32     9      180.000000        1.180032         4    ;  uncertainty k = 0.128391
        12        21        22        23     9        0.000000       -0.020826         1    ;  uncertainty k = 0.416439
        12        21        22        23     9      180.000000        7.821355         2    ;  uncertainty k = 0.442938
        12        21        22        23     9        0.000000        1.029526         3    ;  uncertainty k = 0.210996
        12        21        22        23     9      180.000000        1.524187         4    ;  uncertainty k = 0.257372
        12        21        22        27     9        0.000000       -0.506012         1    ;  uncertainty k = 0.475729
        12        21        22        27     9      180.000000        7.636456         2    ;  uncertainty k = 0.879000
        12        21        22        27     9        0.000000        1.159105         3    ;  uncertainty k = 0.332201
        12        21        22        27     9      180.000000        1.400876         4    ;  uncertainty k = 0.254665
        12        21        26        25     9        0.000000        0.284522         1    ;  uncertainty k = 0.937479
        12        21        26        25     9      180.000000        8.701421         2    ;  uncertainty k = 0.854400
        12        21        26        25     9        0.000000        0.836725         3    ;  uncertainty k = 0.185927
        12        21        26        25     9      180.000000        1.496109         4    ;  uncertainty k = 0.299674
        12        21        26        41     9        0.000000        0.007094         1    ;  uncertainty k = 0.499752
        12        21        26        41     9      180.000000        5.972506         2    ;  uncertainty k = 0.983101
        12        21        26        41     9        0.000000        0.942184         3    ;  uncertainty k = 0.273147
        12        21        26        41     9      180.000000        1.158934         4    ;  uncertainty k = 0.246635
        13        11        15        16     9        0.000000        0.106954         1    ;  uncertainty k = 0.517477
        13        11        15        16     9      180.000000       14.971156         2    ;  uncertainty k = 0.246544
        13        11        15        16     9        0.000000        0.296947         3    ;  uncertainty k = 0.320064
        13        11        15        16     9      180.000000        0.935975         4    ;  uncertainty k = 0.292396
        13        11        15        38     9        0.000000        0.327869         1    ;  uncertainty k = 0.178227
        13        11        15        38     9      180.000000        8.925287         2    ;  uncertainty k = 0.558060
        13        11        15        38     9        0.000000        1.538921         3    ;  uncertainty k = 0.119331
        13        11        15        38     9      180.000000        1.719994         4    ;  uncertainty k = 0.269442
        13        14        17        16     9        0.000000       -0.440523         1    ;  uncertainty k = 0.520289
        13        14        17        16     9      180.000000       10.180434         2    ;  uncertainty k = 0.228451
        13        14        17        16     9        0.000000       -1.373349         3    ;  uncertainty k = 0.159229
        13        14        17        16     9      180.000000        0.857902         4    ;  uncertainty k = 0.255731
        13        14        17        18     9        0.000000        0.290168         1    ;  uncertainty k = 0.680119
        13        14        17        18     9      180.000000        8.363556         2    ;  uncertainty k = 0.688380
        13        14        17        18     9        0.000000        0.594810         3    ;  uncertainty k = 0.272170
        13        14        17        18     9      180.000000        1.022589         4    ;  uncertainty k = 0.453715
        14        13        11        15     9        0.000000        0.004128         1    ;  uncertainty k = 0.630868
        14        13        11        15     9      180.000000        7.043312         2    ;  uncertainty k = 0.629898
        14        13        11        15     9        0.000000        0.237860         3    ;  uncertainty k = 0.539777
        14        13        11        15     9      180.000000        1.165282         4    ;  uncertainty k = 0.224985
        14        17        16        15     9        0.000000       -0.475878         1    ;  uncertainty k = 0.683315
        14        17        16        15     9      180.000000        5.721464         2    ;  uncertainty k = 0.899031
        14        17        16        15     9        0.000000       -0.052879         3    ;  uncertainty k = 0.254984
        14        17        16        15     9      180.000000        0.909792         4    ;  uncertainty k = 0.280287
        14        17        16        20     9        0.000000        0.264939         1    ;  uncertainty k = 0.373717
        14        17        16        20     9      180.000000        6.887613         2    ;  uncertainty k = 0.785570
        14        17        16        20     9        0.000000       -0.223004         3    ;  uncertainty k = 0.646220
        14        17        16        20     9      180.000000        1.238913         4    ;  uncertainty k = 0.283318
        14        17        18        19     9        0.000000        1.029188         1    ;  uncertainty k = 0.721955
        14        17        18        19     9      180.000000       18.150600         2    ;  uncertainty k = 0.718720
        14        17        18        19     9        0.000000        1.311821         3    ;  uncertainty k = 0.613416
        14        17        18        19     9      180.000000        1.499640         4    ;  uncertainty k = 0.169048
        15        11        13        36     9        0.000000        0.259464         1    ;  uncertainty k = 0.463408
        15        11        13        36     9      180.000000        5.457027         2    ;  uncertainty k = 0.567658
        15        11        13        36     9        0.000000        1.256451         3    ;  uncertainty k = 0.084419
        15        11        13        36     9      180.000000        1.474681         4    ;  uncertainty k = 0.277475
        15        16        17        18     9        0.000000        0.201566         1    ;  uncertainty k = 0.541901
        15        16        17        18     9      180.000000        6.807048         2    ;  uncertainty k = 0.719035
        15        16        17        18     9        0.000000       -0.206950         3    ;  uncertainty k = 0.719048
        15        16        17        18     9      180.000000        1.232102         4    ;  uncertainty k = 0.240245
        15        16        20        19     9        0.000000        1.006952         1    ;  uncertainty k = 0.955439
        15        16        20        19     9      180.000000       18.133333         2    ;  uncertainty k = 0.794848
        15        16        20        19     9        0.000000        1.532437         3    ;  uncertainty k = 0.600547
        15        16        20        19     9      180.000000        1.362886         4    ;  uncertainty k = 0.137414
        16        17        14        37     9        0.000000       -0.672373         1    ;  uncertainty k = 0.823517
        16        17        14        37     9      180.000000        5.475879         2    ;  uncertainty k = 0.554829
        16        17        14        37     9        0.000000        0.827666         3    ;  uncertainty k = 0.096240
        16        17        14        37     9      180.000000        0.827784         4    ;  uncertainty k = 0.202904
        16        17        18        19     9        0.000000        0.244841         1    ;  uncertainty k = 0.837063
        16        17        18        19     9      180.000000       22.869212         2    ;  uncertainty k = 0.612717
        16        17        18        19     9        0.000000       -6.775439         3    ;  uncertainty k = 1.010130
        16        17        18        19     9      180.000000        1.627887         4    ;  uncertainty k = 0.560305
        16        20        19        18     9        0.000000       -0.861450         1    ;  uncertainty k = 0.658334
        16        20        19        18     9      180.000000       23.578228         2    ;  uncertainty k = 0.581352
        16        20        19        18     9        0.000000       -7.399666         3    ;  uncertainty k = 2.191899
        16        20        19        18     9      180.000000        1.713067         4    ;  uncertainty k = 0.546072
        17        14        13        36     9        0.000000       -0.000947         1    ;  uncertainty k = 0.041483
        17        14        13        36     9      180.000000       12.340811         2    ;  uncertainty k = 0.380008
        17        14        13        36     9        0.000000        1.644658         3    ;  uncertainty k = 0.296503
        17        14        13        36     9      180.000000        1.673294         4    ;  uncertainty k = 0.317839
        17        16        15        38     9        0.000000       -0.485329         1    ;  uncertainty k = 0.831428
        17        16        15        38     9      180.000000        5.508061         2    ;  uncertainty k = 0.702776
        17        16        15        38     9        0.000000        0.939667         3    ;  uncertainty k = 0.189630
        17        16        15        38     9      180.000000        0.925131         4    ;  uncertainty k = 0.168871
        17        16        20        19     9        0.000000        0.200654         1    ;  uncertainty k = 0.875891
        17        16        20        19     9      180.000000       22.803254         2    ;  uncertainty k = 0.644272
        17        16        20        19     9        0.000000       -6.568816         3    ;  uncertainty k = 0.931572
        17        16        20        19     9      180.000000        1.617676         4    ;  uncertainty k = 0.599531
        17        18        19        20     9        0.000000       -0.825285         1    ;  uncertainty k = 0.660106
        17        18        19        20     9      180.000000       23.632715         2    ;  uncertainty k = 0.650341
        17        18        19        20     9        0.000000       -7.332557         3    ;  uncertainty k = 2.080068
        17        18        19        20     9      180.000000        1.676697         4    ;  uncertainty k = 0.601534
        18        17        14        37     9        0.000000        0.366418         1    ;  uncertainty k = 0.902641
        18        17        14        37     9      180.000000        5.239107         2    ;  uncertainty k = 0.482396
        18        17        14        37     9        0.000000        0.864205         3    ;  uncertainty k = 0.357488
        18        17        14        37     9      180.000000        0.801275         4    ;  uncertainty k = 0.174668
        18        17        16        20     9        0.000000       -0.080887         1    ;  uncertainty k = 0.322623
        18        17        16        20     9      180.000000       10.373147         2    ;  uncertainty k = 0.826181
        18        17        16        20     9        0.000000       -2.728615         3    ;  uncertainty k = 0.804376
        18        17        16        20     9      180.000000        1.513691         4    ;  uncertainty k = 0.751524
        20        16        15        38     9        0.000000        0.270609         1    ;  uncertainty k = 0.937453
        20        16        15        38     9      180.000000        5.357784         2    ;  uncertainty k = 0.546048
        20        16        15        38     9        0.000000        0.955428         3    ;  uncertainty k = 0.330080
        20        16        15        38     9      180.000000        0.934454         4    ;  uncertainty k = 0.151273
        21        22        23        24     9        0.000000       -0.265671         1    ;  uncertainty k = 0.419232
        21        22        23        24     9      180.000000       10.460453         2    ;  uncertainty k = 0.389564
        21        22        23        24     9        0.000000       -0.366508         3    ;  uncertainty k = 0.514479
        21        22        23        24     9      180.000000        0.929899         4    ;  uncertainty k = 0.330295
        21        22        23        39     9        0.000000        0.238370         1    ;  uncertainty k = 0.382236
        21        22        23        39     9      180.000000        7.525224         2    ;  uncertainty k = 0.903253
        21        22        23        39     9        0.000000        1.267264         3    ;  uncertainty k = 0.290613
        21        22        23        39     9      180.000000        1.474858         4    ;  uncertainty k = 0.123420
        21        22        27        28     9        0.000000        0.262415         1    ;  uncertainty k = 1.833675
        21        22        27        28     9      180.000000       -1.026927         2    ;  uncertainty k = 0.798425
        21        22        27        28     9        0.000000        0.956202         3    ;  uncertainty k = 0.348087
        21        22        27        28     9      180.000000        0.178350         4    ;  uncertainty k = 0.195567
        21        22        27        29     9        0.000000       -5.228559         1    ;  uncertainty k = 2.158656
        21        22        27        29     9      180.000000       -0.861345         2    ;  uncertainty k = 0.805163
        21        22        27        29     9        0.000000        1.201043         3    ;  uncertainty k = 0.425533
        21        22        27        29     9      180.000000       -0.042324         4    ;  uncertainty k = 0.375368
        21        22        27        30     9        0.000000       -5.228559         1    ;  uncertainty k = 2.158656
        21        22        27        30     9      180.000000       -0.861345         2    ;  uncertainty k = 0.805163
        21        22        27        30     9        0.000000        1.201043         3    ;  uncertainty k = 0.425533
        21        22        27        30     9      180.000000       -0.042324         4    ;  uncertainty k = 0.375368
        21        26        25        24     9        0.000000        0.036596         1    ;  uncertainty k = 0.371494
        21        26        25        24     9      180.000000       16.597048         2    ;  uncertainty k = 0.304806
        21        26        25        24     9        0.000000        0.966621         3    ;  uncertainty k = 0.517837
        21        26        25        24     9      180.000000        1.451099         4    ;  uncertainty k = 0.177715
        22        21        12        35     9        0.000000        9.262104         1    ;  uncertainty k = 0.773175
        22        21        12        35     9      180.000000        3.945831         2    ;  uncertainty k = 0.536445
        22        21        12        35     9        0.000000        0.752571         3    ;  uncertainty k = 0.273739
        22        21        12        35     9      180.000000       -0.119638         4    ;  uncertainty k = 0.176171
        22        21        26        25     9        0.000000       -0.562844         1    ;  uncertainty k = 0.540742
        22        21        26        25     9      180.000000        6.748518         2    ;  uncertainty k = 1.268442
        22        21        26        25     9        0.000000        0.077078         3    ;  uncertainty k = 0.370452
        22        21        26        25     9      180.000000        1.216829         4    ;  uncertainty k = 0.295894
        22        21        26        41     9        0.000000        0.000819         1    ;  uncertainty k = 1.384591
        22        21        26        41     9      180.000000        4.685089         2    ;  uncertainty k = 1.110639
        22        21        26        41     9        0.000000        1.104677         3    ;  uncertainty k = 0.238510
        22        21        26        41     9      180.000000        1.089444         4    ;  uncertainty k = 0.205053
        22        23        24        25     9        0.000000       -0.252468         1    ;  uncertainty k = 0.431541
        22        23        24        25     9      180.000000       13.556324         2    ;  uncertainty k = 0.574919
        22        23        24        25     9        0.000000       -1.106330         3    ;  uncertainty k = 1.113053
        22        23        24        25     9      180.000000        0.952273         4    ;  uncertainty k = 0.151718
        22        23        24        40     9        0.000000       -0.148525         1    ;  uncertainty k = 0.589764
        22        23        24        40     9      180.000000        6.244193         2    ;  uncertainty k = 0.249576
        22        23        24        40     9        0.000000        1.014103         3    ;  uncertainty k = 0.237437
        22        23        24        40     9      180.000000        1.497615         4    ;  uncertainty k = 0.181166
        22        27        28        42     9        0.000000        2.345206         1    ;  uncertainty k = 0.643494
        22        27        28        42     9      180.000000       -2.433989         2    ;  uncertainty k = 0.375725
        22        27        28        42     9        0.000000        0.170343         3    ;  uncertainty k = 0.101207
        22        27        28        42     9      180.000000        0.001305         4    ;  uncertainty k = 0.149207
        22        27        28        43     9        0.000000        2.345206         1    ;  uncertainty k = 0.643494
        22        27        28        43     9      180.000000       -2.433989         2    ;  uncertainty k = 0.375725
        22        27        28        43     9        0.000000        0.170343         3    ;  uncertainty k = 0.101207
        22        27        28        43     9      180.000000        0.001305         4    ;  uncertainty k = 0.149207
        22        27        28        44     9        0.000000        2.345206         1    ;  uncertainty k = 0.643494
        22        27        28        44     9      180.000000       -2.433989         2    ;  uncertainty k = 0.375725
        22        27        28        44     9        0.000000        0.170343         3    ;  uncertainty k = 0.101207
        22        27        28        44     9      180.000000        0.001305         4    ;  uncertainty k = 0.149207
        23        22        21        26     9        0.000000       -0.438835         1    ;  uncertainty k = 0.840317
        23        22        21        26     9      180.000000        4.610451         2    ;  uncertainty k = 1.641699
        23        22        21        26     9        0.000000        0.358135         3    ;  uncertainty k = 0.323565
        23        22        21        26     9      180.000000        1.351096         4    ;  uncertainty k = 0.315699
        23        22        27        28     9        0.000000        3.406870         1    ;  uncertainty k = 1.708508
        23        22        27        28     9      180.000000        0.171421         2    ;  uncertainty k = 0.576990
        23        22        27        28     9        0.000000       -0.078308         3    ;  uncertainty k = 0.399032
        23        22        27        28     9      180.000000        0.444416         4    ;  uncertainty k = 0.155672
        23        22        27        29     9        0.000000       -0.492326         1    ;  uncertainty k = 1.108209
        23        22        27        29     9      180.000000        0.135604         2    ;  uncertainty k = 0.455039
        23        22        27        29     9        0.000000        0.177825         3    ;  uncertainty k = 0.237275
        23        22        27        29     9      180.000000        0.012963         4    ;  uncertainty k = 0.209193
        23        22        27        30     9        0.000000       -0.492326         1    ;  uncertainty k = 1.108209
        23        22        27        30     9      180.000000        0.135604         2    ;  uncertainty k = 0.455039
        23        22        27        30     9        0.000000        0.177825         3    ;  uncertainty k = 0.237275
        23        22        27        30     9      180.000000        0.012963         4    ;  uncertainty k = 0.209193
        23        24        25        26     9        0.000000       -0.485018         1    ;  uncertainty k = 0.425215
        23        24        25        26     9      180.000000       15.189731         2    ;  uncertainty k = 0.461239
        23        24        25        26     9        0.000000        1.127628         3    ;  uncertainty k = 0.661678
        23        24        25        26     9      180.000000        1.285430         4    ;  uncertainty k = 0.097276
        24        23        22        27     9        0.000000        0.601784         1    ;  uncertainty k = 0.840722
        24        23        22        27     9      180.000000        9.254871         2    ;  uncertainty k = 0.664789
        24        23        22        27     9        0.000000        1.560649         3    ;  uncertainty k = 0.502422
        24        23        22        27     9      180.000000        1.838812         4    ;  uncertainty k = 0.146619
        24        25        26        41     9        0.000000        0.508068         1    ;  uncertainty k = 0.686766
        24        25        26        41     9      180.000000       16.706316         2    ;  uncertainty k = 0.583290
        24        25        26        41     9        0.000000        2.361242         3    ;  uncertainty k = 0.235965
        24        25        26        41     9      180.000000        1.517602         4    ;  uncertainty k = 0.508262
        25        24        23        39     9        0.000000       -0.068094         1    ;  uncertainty k = 0.262320
        25        24        23        39     9      180.000000        9.165643         2    ;  uncertainty k = 0.726880
        25        24        23        39     9        0.000000        0.979809         3    ;  uncertainty k = 0.350347
        25        24        23        39     9      180.000000        1.652654         4    ;  uncertainty k = 0.185847
        26        21        12        35     9        0.000000        0.917544         1    ;  uncertainty k = 1.463602
        26        21        12        35     9      180.000000        4.182459         2    ;  uncertainty k = 0.765145
        26        21        12        35     9        0.000000       -0.106077         3    ;  uncertainty k = 0.498484
        26        21        12        35     9      180.000000       -0.220151         4    ;  uncertainty k = 0.253379
        26        21        22        27     9        0.000000        0.917642         1    ;  uncertainty k = 0.634889
        26        21        22        27     9      180.000000        4.793051         2    ;  uncertainty k = 1.087370
        26        21        22        27     9        0.000000        1.108847         3    ;  uncertainty k = 0.290816
        26        21        22        27     9      180.000000        1.561541         4    ;  uncertainty k = 0.342191
        26        25        24        40     9        0.000000        0.172530         1    ;  uncertainty k = 0.566096
        26        25        24        40     9      180.000000       15.445793         2    ;  uncertainty k = 0.425752
        26        25        24        40     9        0.000000        2.152702         3    ;  uncertainty k = 0.508048
        26        25        24        40     9      180.000000        1.381410         4    ;  uncertainty k = 0.359273
        27        22        23        39     9        0.000000       -0.424034         1    ;  uncertainty k = 0.616071
        27        22        23        39     9      180.000000        7.010377         2    ;  uncertainty k = 0.550570
        27        22        23        39     9        0.000000        0.781435         3    ;  uncertainty k = 0.169299
        27        22        23        39     9      180.000000        1.269235         4    ;  uncertainty k = 0.186787
        29        27        28        42     9        0.000000       -0.057642         1    ;  uncertainty k = 0.603701
        29        27        28        42     9      180.000000       -0.366450         2    ;  uncertainty k = 0.288161
        29        27        28        42     9        0.000000        0.801561         3    ;  uncertainty k = 0.057212
        29        27        28        42     9      180.000000        0.039211         4    ;  uncertainty k = 0.101281
        29        27        28        43     9        0.000000       -0.057642         1    ;  uncertainty k = 0.603701
        29        27        28        43     9      180.000000       -0.366450         2    ;  uncertainty k = 0.288161
        29        27        28        43     9        0.000000        0.801561         3    ;  uncertainty k = 0.057212
        29        27        28        43     9      180.000000        0.039211         4    ;  uncertainty k = 0.101281
        29        27        28        44     9        0.000000       -0.057642         1    ;  uncertainty k = 0.603701
        29        27        28        44     9      180.000000       -0.366450         2    ;  uncertainty k = 0.288161
        29        27        28        44     9        0.000000        0.801561         3    ;  uncertainty k = 0.057212
        29        27        28        44     9      180.000000        0.039211         4    ;  uncertainty k = 0.101281
        30        27        28        42     9        0.000000       -0.057642         1    ;  uncertainty k = 0.603701
        30        27        28        42     9      180.000000       -0.366450         2    ;  uncertainty k = 0.288161
        30        27        28        42     9        0.000000        0.801561         3    ;  uncertainty k = 0.057212
        30        27        28        42     9      180.000000        0.039211         4    ;  uncertainty k = 0.101281
        30        27        28        43     9        0.000000       -0.057642         1    ;  uncertainty k = 0.603701
        30        27        28        43     9      180.000000       -0.366450         2    ;  uncertainty k = 0.288161
        30        27        28        43     9        0.000000        0.801561         3    ;  uncertainty k = 0.057212
        30        27        28        43     9      180.000000        0.039211         4    ;  uncertainty k = 0.101281
        30        27        28        44     9        0.000000       -0.057642         1    ;  uncertainty k = 0.603701
        30        27        28        44     9      180.000000       -0.366450         2    ;  uncertainty k = 0.288161
        30        27        28        44     9        0.000000        0.801561         3    ;  uncertainty k = 0.057212
        30        27        28        44     9      180.000000        0.039211         4    ;  uncertainty k = 0.101281
        33         8         9        34     9        0.000000       -0.152652         1    ;  uncertainty k = 0.805688
        33         8         9        34     9      180.000000        5.398108         2    ;  uncertainty k = 0.723627
        33         8         9        34     9        0.000000        0.147470         3    ;  uncertainty k = 0.248173
        33         8         9        34     9      180.000000        0.216442         4    ;  uncertainty k = 0.153410
        36        13        14        37     9        0.000000       -0.216279         1    ;  uncertainty k = 0.186502
        36        13        14        37     9      180.000000        8.920349         2    ;  uncertainty k = 0.398391
        36        13        14        37     9        0.000000       -0.108441         3    ;  uncertainty k = 0.223605
        36        13        14        37     9      180.000000        0.390582         4    ;  uncertainty k = 0.260576
        39        23        24        40     9        0.000000       -0.307961         1    ;  uncertainty k = 0.440103
        39        23        24        40     9      180.000000        6.502710         2    ;  uncertainty k = 0.379417
        39        23        24        40     9        0.000000       -0.130868         3    ;  uncertainty k = 0.246878
        39        23        24        40     9      180.000000        0.283979         4    ;  uncertainty k = 0.141773

[ dihedrals ] ; impropers
;       ai        aj        ak        al funct           phase               k        pn
         1         2         5        31     4      180.000000        2.538910         2    ;  uncertainty k = 0.373104
         1         5        31         2     4      180.000000        2.538910         2    ;  uncertainty k = 0.373104
         1        31         2         5     4      180.000000        2.538910         2    ;  uncertainty k = 0.373104
         2         1         3        12     4      180.000000       20.686961         2    ;  uncertainty k = 0.060627
         2         3        12         1     4      180.000000       20.686961         2    ;  uncertainty k = 0.060627
         2        12         1         3     4      180.000000       20.686961         2    ;  uncertainty k = 0.060627
         3         2         4        32     4      180.000000        3.072336         2    ;  uncertainty k = 0.374208
         3         4        32         2     4      180.000000        3.072336         2    ;  uncertainty k = 0.374208
         3        32         2         4     4      180.000000        3.072336         2    ;  uncertainty k = 0.374208
         4         3         6        11     4      180.000000       17.677136         2    ;  uncertainty k = 0.117149
         4         6        11         3     4      180.000000       17.677136         2    ;  uncertainty k = 0.117149
         4        11         3         6     4      180.000000       17.677136         2    ;  uncertainty k = 0.117149
         5         1         6        10     4      180.000000       18.442492         2    ;  uncertainty k = 0.055238
         5         6        10         1     4      180.000000       18.442492         2    ;  uncertainty k = 0.055238
         5        10         1         6     4      180.000000       18.442492         2    ;  uncertainty k = 0.055238
         6         4         5         7     4      180.000000       16.619254         2    ;  uncertainty k = 0.086962
         6         5         7         4     4      180.000000       16.619254         2    ;  uncertainty k = 0.086962
         6         7         4         5     4      180.000000       16.619254         2    ;  uncertainty k = 0.086962
         8         7         9        33     4      180.000000       12.058352         2    ;  uncertainty k = 0.155869
         8         9        33         7     4      180.000000       12.058352         2    ;  uncertainty k = 0.155869
         8        33         7         9     4      180.000000       12.058352         2    ;  uncertainty k = 0.155869
         9         8        10        34     4      180.000000       11.948847         2    ;  uncertainty k = 0.101429
         9        10        34         8     4      180.000000       11.948847         2    ;  uncertainty k = 0.101429
         9        34         8        10     4      180.000000       11.948847         2    ;  uncertainty k = 0.101429
        11         4        13        15     4      180.000000       14.290133         2    ;  uncertainty k = 0.154849
        11        13        15         4     4      180.000000       14.290133         2    ;  uncertainty k = 0.154849
        11        15         4        13     4      180.000000       14.290133         2    ;  uncertainty k = 0.154849
        12         2        21        35     4      180.000000        1.379952         2    ;  uncertainty k = 1.192014
        12        21        35         2     4      180.000000        1.379952         2    ;  uncertainty k = 1.192014
        12        35         2        21     4      180.000000        1.379952         2    ;  uncertainty k = 1.192014
        13        11        14        36     4      180.000000        4.829488         2    ;  uncertainty k = 0.059044
        13        14        36        11     4      180.000000        4.829488         2    ;  uncertainty k = 0.059044
        13        36        11        14     4      180.000000        4.829488         2    ;  uncertainty k = 0.059044
        14        13        17        37     4      180.000000        4.465461         2    ;  uncertainty k = 0.191709
        14        17        37        13     4      180.000000        4.465461         2    ;  uncertainty k = 0.191709
        14        37        13        17     4      180.000000        4.465461         2    ;  uncertainty k = 0.191709
        15        11        16        38     4      180.000000        4.359871         2    ;  uncertainty k = 0.216681
        15        16        38        11     4      180.000000        4.359871         2    ;  uncertainty k = 0.216681
        15        38        11        16     4      180.000000        4.359871         2    ;  uncertainty k = 0.216681
        16        15        17        20     4      180.000000        3.444022         2    ;  uncertainty k = 0.892149
        16        17        20        15     4      180.000000        3.444022         2    ;  uncertainty k = 0.892149
        16        20        15        17     4      180.000000        3.444022         2    ;  uncertainty k = 0.892149
        17        14        16        18     4      180.000000        2.993332         2    ;  uncertainty k = 0.920829
        17        16        18        14     4      180.000000        2.993332         2    ;  uncertainty k = 0.920829
        17        18        14        16     4      180.000000        2.993332         2    ;  uncertainty k = 0.920829
        21        12        22        26     4      180.000000       22.010771         2    ;  uncertainty k = 0.077536
        21        22        26        12     4      180.000000       22.010771         2    ;  uncertainty k = 0.077536
        21        26        12        22     4      180.000000       22.010771         2    ;  uncertainty k = 0.077536
        22        21        23        27     4      180.000000        5.945006         2    ;  uncertainty k = 0.459977
        22        23        27        21     4      180.000000        5.945006         2    ;  uncertainty k = 0.459977
        22        27        21        23     4      180.000000        5.945006         2    ;  uncertainty k = 0.459977
        23        22        24        39     4      180.000000        4.322236         2    ;  uncertainty k = 0.262314
        23        24        39        22     4      180.000000        4.322236         2    ;  uncertainty k = 0.262314
        23        39        22        24     4      180.000000        4.322236         2    ;  uncertainty k = 0.262314
        24        23        25        40     4      180.000000       11.385377         2    ;  uncertainty k = 0.107036
        24        25        40        23     4      180.000000       11.385377         2    ;  uncertainty k = 0.107036
        24        40        23        25     4      180.000000       11.385377         2    ;  uncertainty k = 0.107036
        26        21        25        41     4      180.000000       10.900439         2    ;  uncertainty k = 0.192114
        26        25        41        21     4      180.000000       10.900439         2    ;  uncertainty k = 0.192114
        26        41        21        25     4      180.000000       10.900439         2    ;  uncertainty k = 0.192114

[ pairs ]
;       ai        aj funct
         1         4     1
         1         7     1
         1         9     1
         1        21     1
         1        32     1
         1        35     1
         2         6     1
         2        10     1
         2        11     1
         2        22     1
         2        26     1
         3         5     1
         3         7     1
         3        13     1
         3        15     1
         3        21     1
         3        31     1
         3        35     1
         4         8     1
         4        10     1
         4        12     1
         4        14     1
         4        16     1
         4        36     1
         4        38     1
         5         8     1
         5        11     1
         5        12     1
         5        34     1
         6         9     1
         6        13     1
         6        15     1
         6        31     1
         6        32     1
         6        33     1
         7        10     1
         7        11     1
         7        34     1
        10        31     1
        10        33     1
        11        17     1
        11        20     1
        11        32     1
        11        37     1
        12        23     1
        12        25     1
        12        27     1
        12        31     1
        12        32     1
        12        41     1
        13        16     1
        13        18     1
        13        38     1
        14        15     1
        14        19     1
        14        20     1
        15        18     1
        15        19     1
        15        36     1
        16        37     1
        17        36     1
        17        38     1
        18        37     1
        20        38     1
        21        24     1
        21        28     1
        21        29     1
        21        30     1
        21        39     1
        22        25     1
        22        35     1
        22        40     1
        22        41     1
        22        42     1
        22        43     1
        22        44     1
        23        26     1
        23        28     1
        23        29     1
        23        30     1
        24        27     1
        24        41     1
        25        39     1
        26        27     1
        26        35     1
        26        40     1
        27        39     1
        29        42     1
        29        43     1
        29        44     1
        30        42     1
        30        43     1
        30        44     1
        33        34     1
        36        37     1
        39        40     1
