; ITP file created by ByteFF-joint-25, 2026-02-17 09:20:42.444563

[ atomtypes ]
;name           bonded.type        at.num        mass        charge   ptype           sigma         epsilon
 c0bf                                   6      0.0000       0.00000       A     3.31488e-01     4.12665e-01    ;  uncertainty sigma = 0.000011, epsilon = 0.000854
 c1bf                                   6      0.0000       0.00000       A     3.31509e-01     4.13539e-01    ;  uncertainty sigma = 0.000009, epsilon = 0.000465
 c2bf                                   6      0.0000       0.00000       A     3.31538e-01     4.13732e-01    ;  uncertainty sigma = 0.000012, epsilon = 0.001772
 c3bf                                   6      0.0000       0.00000       A     3.31496e-01     4.13470e-01    ;  uncertainty sigma = 0.000006, epsilon = 0.000742
 c4bf                                   6      0.0000       0.00000       A     3.31516e-01     4.13470e-01    ;  uncertainty sigma = 0.000011, epsilon = 0.000986
 c5bf                                   6      0.0000       0.00000       A     3.31519e-01     4.13020e-01    ;  uncertainty sigma = 0.000010, epsilon = 0.001115
 n6bf                                   7      0.0000       0.00000       A     3.38415e-01     3.93854e-01    ;  uncertainty sigma = 0.000010, epsilon = 0.001066
 c7bf                                   6      0.0000       0.00000       A     3.31531e-01     4.13178e-01    ;  uncertainty sigma = 0.000013, epsilon = 0.000482
 c8bf                                   6      0.0000       0.00000       A     3.31530e-01     4.13238e-01    ;  uncertainty sigma = 0.000010, epsilon = 0.000599
 n9bf                                   7      0.0000       0.00000       A     3.38414e-01     3.93827e-01    ;  uncertainty sigma = 0.000003, epsilon = 0.000862
 c10bf                                  6      0.0000       0.00000       A     3.31502e-01     4.13462e-01    ;  uncertainty sigma = 0.000018, epsilon = 0.002180
 c11bf                                  6      0.0000       0.00000       A     3.31532e-01     4.13419e-01    ;  uncertainty sigma = 0.000012, epsilon = 0.000930
 n12bf                                  7      0.0000       0.00000       A     3.38420e-01     3.93806e-01    ;  uncertainty sigma = 0.000013, epsilon = 0.000882
 c13bf                                  6      0.0000       0.00000       A     3.31513e-01     4.13350e-01    ;  uncertainty sigma = 0.000011, epsilon = 0.000728
 c14bf                                  6      0.0000       0.00000       A     3.31518e-01     4.13124e-01    ;  uncertainty sigma = 0.000015, epsilon = 0.000361
 c15bf                                  6      0.0000       0.00000       A     3.31501e-01     4.13078e-01    ;  uncertainty sigma = 0.000025, epsilon = 0.001598
 s16bf                                 16      0.0000       0.00000       A     4.05775e-01     2.56505e-01    ;  uncertainty sigma = 0.000009, epsilon = 0.002944
 o17bf                                  8      0.0000       0.00000       A     3.04808e-01     6.12058e-01    ;  uncertainty sigma = 0.000011, epsilon = 0.001075
 c18bf                                  6      0.0000       0.00000       A     3.39790e-01     4.50653e-01    ;  uncertainty sigma = 0.000003, epsilon = 0.000848
 o19bf                                  8      0.0000       0.00000       A     3.04808e-01     6.12058e-01    ;  uncertainty sigma = 0.000011, epsilon = 0.001075
 n20bf                                  7      0.0000       0.00000       A     3.27956e-01     6.47518e-01    ;  uncertainty sigma = 0.000036, epsilon = 0.003822
 c21bf                                  6      0.0000       0.00000       A     3.31497e-01     4.13015e-01    ;  uncertainty sigma = 0.000013, epsilon = 0.000869
 c22bf                                  6      0.0000       0.00000       A     3.31515e-01     4.13401e-01    ;  uncertainty sigma = 0.000004, epsilon = 0.000453
 c23bf                                  6      0.0000       0.00000       A     3.31532e-01     4.13241e-01    ;  uncertainty sigma = 0.000004, epsilon = 0.000703
 c24bf                                  6      0.0000       0.00000       A     3.31532e-01     4.13379e-01    ;  uncertainty sigma = 0.000005, epsilon = 0.000815
 c25bf                                  6      0.0000       0.00000       A     3.31538e-01     4.12727e-01    ;  uncertainty sigma = 0.000007, epsilon = 0.000839
 c26bf                                  6      0.0000       0.00000       A     3.31512e-01     4.12771e-01    ;  uncertainty sigma = 0.000005, epsilon = 0.000721
 s27bf                                 16      0.0000       0.00000       A     3.53270e-01     1.18215e+00    ;  uncertainty sigma = 0.000023, epsilon = 0.001875
 c28bf                                  6      0.0000       0.00000       A     3.31516e-01     4.12859e-01    ;  uncertainty sigma = 0.000011, epsilon = 0.001149
 n29bf                                  7      0.0000       0.00000       A     3.38417e-01     3.93585e-01    ;  uncertainty sigma = 0.000009, epsilon = 0.000853
 h30bf                                  1      0.0000       0.00000       A     2.62540e-01     6.71221e-02    ;  uncertainty sigma = 0.000022, epsilon = 0.000645
 h31bf                                  1      0.0000       0.00000       A     2.62566e-01     6.71158e-02    ;  uncertainty sigma = 0.000015, epsilon = 0.000400
 h32bf                                  1      0.0000       0.00000       A     2.53628e-01     6.69333e-02    ;  uncertainty sigma = 0.000020, epsilon = 0.000763
 h33bf                                  1      0.0000       0.00000       A     2.53628e-01     6.69333e-02    ;  uncertainty sigma = 0.000020, epsilon = 0.000763
 h34bf                                  1      0.0000       0.00000       A     2.53624e-01     6.69776e-02    ;  uncertainty sigma = 0.000049, epsilon = 0.000568
 h35bf                                  1      0.0000       0.00000       A     2.53633e-01     6.70304e-02    ;  uncertainty sigma = 0.000014, epsilon = 0.000494
 h36bf                                  1      0.0000       0.00000       A     2.62533e-01     6.70950e-02    ;  uncertainty sigma = 0.000019, epsilon = 0.000754
 h37bf                                  1      0.0000       0.00000       A     2.42167e-01     8.68276e-02    ;  uncertainty sigma = 0.000012, epsilon = 0.000620
 h38bf                                  1      0.0000       0.00000       A     2.42167e-01     8.68276e-02    ;  uncertainty sigma = 0.000012, epsilon = 0.000620
 h39bf                                  1      0.0000       0.00000       A     2.42167e-01     8.68276e-02    ;  uncertainty sigma = 0.000012, epsilon = 0.000620
 h40bf                                  1      0.0000       0.00000       A     1.10720e-01     4.14039e-02    ;  uncertainty sigma = 0.000106, epsilon = 0.001477
 h41bf                                  1      0.0000       0.00000       A     2.62566e-01     6.70683e-02    ;  uncertainty sigma = 0.000012, epsilon = 0.000548
 h42bf                                  1      0.0000       0.00000       A     2.62577e-01     6.69769e-02    ;  uncertainty sigma = 0.000017, epsilon = 0.000548
 h43bf                                  1      0.0000       0.00000       A     2.62555e-01     6.72341e-02    ;  uncertainty sigma = 0.000020, epsilon = 0.000515
 h44bf                                  1      0.0000       0.00000       A     2.44790e-01     6.74412e-02    ;  uncertainty sigma = 0.000028, epsilon = 0.001025

[ moleculetype ]
;name             nrexcl
 MOL                   3

[ atoms ]
;       nr            type      resi   res      atom      cgnr      charge          mass ; qtot
         1            c0bf         1   UNL        c0         1    -0.02937       12.0110 ; qtot   -0.029
         2            c1bf         1   UNL        c1         2    -0.22162       12.0110 ; qtot   -0.251
         3            c2bf         1   UNL        c2         3     0.17400       12.0110 ; qtot   -0.077
         4            c3bf         1   UNL        c3         4    -0.15995       12.0110 ; qtot   -0.237
         5            c4bf         1   UNL        c4         5     0.32361       12.0110 ; qtot    0.087
         6            c5bf         1   UNL        c5         6     0.27545       12.0110 ; qtot    0.362
         7            n6bf         1   UNL        n6         7    -0.61815       14.0070 ; qtot   -0.256
         8            c7bf         1   UNL        c7         8     0.29560       12.0110 ; qtot    0.040
         9            c8bf         1   UNL        c8         9     0.29621       12.0110 ; qtot    0.336
        10            n9bf         1   UNL        n9        10    -0.62862       14.0070 ; qtot   -0.293
        11           c10bf         1   UNL       c10        11     0.15628       12.0110 ; qtot   -0.137
        12           c11bf         1   UNL       c11        12     0.33325       12.0110 ; qtot    0.197
        13           n12bf         1   UNL       n12        13    -0.60182       14.0070 ; qtot   -0.405
        14           c13bf         1   UNL       c13        14     0.35581       12.0110 ; qtot   -0.049
        15           c14bf         1   UNL       c14        15    -0.13704       12.0110 ; qtot   -0.186
        16           c15bf         1   UNL       c15        16    -0.26398       12.0110 ; qtot   -0.450
        17           s16bf         1   UNL       s16        17     1.01656       32.0670 ; qtot    0.566
        18           o17bf         1   UNL       o17        18    -0.58472       15.9990 ; qtot   -0.019
        19           c18bf         1   UNL       c18        19    -0.18352       12.0110 ; qtot   -0.202
        20           o19bf         1   UNL       o19        20    -0.58472       15.9990 ; qtot   -0.787
        21           n20bf         1   UNL       n20        21    -0.64735       14.0070 ; qtot   -1.434
        22           c21bf         1   UNL       c21        22    -0.02928       12.0110 ; qtot   -1.463
        23           c22bf         1   UNL       c22        23    -0.09746       12.0110 ; qtot   -1.561
        24           c23bf         1   UNL       c23        24    -0.09312       12.0110 ; qtot   -1.654
        25           c24bf         1   UNL       c24        25    -0.05556       12.0110 ; qtot   -1.710
        26           c25bf         1   UNL       c25        26     0.08102       12.0110 ; qtot   -1.628
        27           c26bf         1   UNL       c26        27    -0.03986       12.0110 ; qtot   -1.668
        28           s27bf         1   UNL       s27        28    -0.12953       32.0670 ; qtot   -1.798
        29           c28bf         1   UNL       c28        29     0.40448       12.0110 ; qtot   -1.393
        30           n29bf         1   UNL       n29        30    -0.51797       14.0070 ; qtot   -1.911
        31           h30bf         1   UNL       h30        31     0.15776        1.0080 ; qtot   -1.754
        32           h31bf         1   UNL       h31        32     0.14719        1.0080 ; qtot   -1.606
        33           h32bf         1   UNL       h32        33     0.03380        1.0080 ; qtot   -1.573
        34           h33bf         1   UNL       h33        34     0.03331        1.0080 ; qtot   -1.539
        35           h34bf         1   UNL       h34        35     0.03967        1.0080 ; qtot   -1.500
        36           h35bf         1   UNL       h35        36     0.03424        1.0080 ; qtot   -1.465
        37           h36bf         1   UNL       h36        37     0.16807        1.0080 ; qtot   -1.297
        38           h37bf         1   UNL       h37        38     0.10378        1.0080 ; qtot   -1.194
        39           h38bf         1   UNL       h38        39     0.10378        1.0080 ; qtot   -1.090
        40           h39bf         1   UNL       h39        40     0.10378        1.0080 ; qtot   -0.986
        41           h40bf         1   UNL       h40        41     0.47844        1.0080 ; qtot   -0.508
        42           h41bf         1   UNL       h41        42     0.14314        1.0080 ; qtot   -0.364
        43           h42bf         1   UNL       h42        43     0.14577        1.0080 ; qtot   -0.219
        44           h43bf         1   UNL       h43        44     0.15805        1.0080 ; qtot   -0.061
        45           h44bf         1   UNL       h44        45     0.06059        1.0080 ; qtot   -0.000

[ bonds ]
;       ai        aj funct               r               k
         1         4     1        0.138000   347495.960449    ;  uncertainty r = 0.000143, k = 17.234322
         1         6     1        0.143085   310245.234375    ;  uncertainty r = 0.000128, k = 17.466674
         1        22     1        0.148207   283414.849170    ;  uncertainty r = 0.000083, k = 17.160978
         2         3     1        0.138770   381943.478027    ;  uncertainty r = 0.000111, k = 9.337663
         2         5     1        0.141431   396079.468311    ;  uncertainty r = 0.000094, k = 15.205653
         2        31     1        0.108811   340366.765625    ;  uncertainty r = 0.000031, k = 1.855842
         3         4     1        0.142004   351951.266699    ;  uncertainty r = 0.000218, k = 13.007833
         3        21     1        0.141414   345942.921143    ;  uncertainty r = 0.000097, k = 12.910218
         4        32     1        0.108883   338510.268848    ;  uncertainty r = 0.000020, k = 3.739131
         5         6     1        0.142995   298655.600342    ;  uncertainty r = 0.000072, k = 15.498948
         5        10     1        0.136382   355171.598340    ;  uncertainty r = 0.000057, k = 8.738544
         6         7     1        0.135767   353109.910889    ;  uncertainty r = 0.000088, k = 12.675249
         7         8     1        0.131584   437137.956152    ;  uncertainty r = 0.000061, k = 11.801030
         8         9     1        0.141378   325245.374902    ;  uncertainty r = 0.000067, k = 16.241067
         8        33     1        0.109180   341408.015723    ;  uncertainty r = 0.000031, k = 1.111543
         9        10     1        0.131606   448634.967090    ;  uncertainty r = 0.000067, k = 6.059784
         9        34     1        0.109175   341608.175586    ;  uncertainty r = 0.000026, k = 2.358932
        11        12     1        0.140927   340447.922559    ;  uncertainty r = 0.000113, k = 16.488659
        11        16     1        0.141356   348414.555811    ;  uncertainty r = 0.000198, k = 15.946771
        11        21     1        0.139103   334487.331396    ;  uncertainty r = 0.000264, k = 9.014021
        12        13     1        0.132524   387119.441504    ;  uncertainty r = 0.000108, k = 11.004600
        12        35     1        0.108905   336131.027441    ;  uncertainty r = 0.000101, k = 3.724286
        13        14     1        0.133802   397972.227783    ;  uncertainty r = 0.000074, k = 5.323588
        14        15     1        0.139170   363105.058887    ;  uncertainty r = 0.000048, k = 3.861486
        14        36     1        0.108994   339519.240039    ;  uncertainty r = 0.000025, k = 1.411832
        15        16     1        0.138845   368349.231982    ;  uncertainty r = 0.000202, k = 14.185272
        15        37     1        0.108610   333138.767725    ;  uncertainty r = 0.000052, k = 1.956190
        16        17     1        0.180205   137177.907495    ;  uncertainty r = 0.000181, k = 18.369714
        17        18     1        0.147757   507438.247363    ;  uncertainty r = 0.000058, k = 6.198370
        17        19     1        0.181050   174448.795117    ;  uncertainty r = 0.000039, k = 9.209402
        17        20     1        0.147757   507438.247363    ;  uncertainty r = 0.000058, k = 6.198370
        19        38     1        0.109286   321567.980078    ;  uncertainty r = 0.000031, k = 1.365003
        19        39     1        0.109286   321567.929004    ;  uncertainty r = 0.000031, k = 1.365003
        19        40     1        0.109286   321567.929004    ;  uncertainty r = 0.000031, k = 1.365003
        21        41     1        0.101492   409720.242969    ;  uncertainty r = 0.000088, k = 5.983702
        22        23     1        0.141351   337041.833984    ;  uncertainty r = 0.000134, k = 2.164678
        22        25     1        0.139285   354888.749316    ;  uncertainty r = 0.000051, k = 5.808496
        23        24     1        0.138906   367373.050439    ;  uncertainty r = 0.000067, k = 1.618380
        23        42     1        0.108723   334293.223828    ;  uncertainty r = 0.000024, k = 1.754759
        24        27     1        0.139693   362650.983545    ;  uncertainty r = 0.000060, k = 1.818725
        24        43     1        0.108784   334880.756104    ;  uncertainty r = 0.000020, k = 2.415613
        25        26     1        0.140050   371137.756641    ;  uncertainty r = 0.000055, k = 12.523119
        25        44     1        0.108750   335514.944678    ;  uncertainty r = 0.000021, k = 1.214787
        26        27     1        0.141535   348002.846533    ;  uncertainty r = 0.000050, k = 3.743200
        26        30     1        0.139508   321934.539746    ;  uncertainty r = 0.000111, k = 15.087908
        27        28     1        0.175282   203846.477002    ;  uncertainty r = 0.000060, k = 6.618513
        28        29     1        0.176589   158575.515283    ;  uncertainty r = 0.000098, k = 14.230266
        29        30     1        0.129475   444420.731152    ;  uncertainty r = 0.000064, k = 6.364959
        29        45     1        0.108727   343157.512012    ;  uncertainty r = 0.000027, k = 4.311489

[ angles ]
;       ai        aj        ak funct           theta             cth
         1         4         3     1      122.335289      516.619394    ;  uncertainty theta = 0.004567, k = 0.260105
         1         4        32     1      118.704933      277.851890    ;  uncertainty theta = 0.005306, k = 0.050256
         1         6         5     1      120.727844      398.377566    ;  uncertainty theta = 0.005688, k = 0.083900
         1         6         7     1      118.059143      466.719084    ;  uncertainty theta = 0.004200, k = 0.232797
         1        22        23     1      119.994186      399.595047    ;  uncertainty theta = 0.002498, k = 0.070339
         1        22        25     1      120.370499      390.186442    ;  uncertainty theta = 0.001955, k = 0.121349
         2         3         4     1      119.362228      387.607800    ;  uncertainty theta = 0.003782, k = 0.067189
         2         3        21     1      122.010719      487.333852    ;  uncertainty theta = 0.006482, k = 0.189294
         2         5         6     1      119.517235      392.036829    ;  uncertainty theta = 0.005326, k = 0.191059
         2         5        10     1      122.312637      528.712396    ;  uncertainty theta = 0.003351, k = 0.210335
         3         2         5     1      118.206688      518.635644    ;  uncertainty theta = 0.002447, k = 0.073028
         3         2        31     1      121.438538      270.401885    ;  uncertainty theta = 0.001365, k = 0.142095
         3         4        32     1      119.369408      284.883278    ;  uncertainty theta = 0.005054, k = 0.124449
         3        21        11     1      115.247620      387.594074    ;  uncertainty theta = 0.002924, k = 0.212980
         3        21        41     1      115.334732      382.605017    ;  uncertainty theta = 0.007384, k = 0.160727
         4         1         6     1      121.234207      456.906322    ;  uncertainty theta = 0.004548, k = 0.137790
         4         1        22     1      120.967834      425.547837    ;  uncertainty theta = 0.003733, k = 0.132534
         4         3        21     1      120.277283      500.376100    ;  uncertainty theta = 0.004774, k = 0.343101
         5         2        31     1      120.837975      275.673543    ;  uncertainty theta = 0.003390, k = 0.103596
         5         6         7     1      119.722855      514.456752    ;  uncertainty theta = 0.004269, k = 0.061580
         5        10         9     1      114.458984      488.266148    ;  uncertainty theta = 0.001996, k = 0.147683
         6         1        22     1      119.073586      397.190090    ;  uncertainty theta = 0.004542, k = 0.238846
         6         5        10     1      119.243858      555.279545    ;  uncertainty theta = 0.007472, k = 0.086368
         6         7         8     1      116.502525      472.887605    ;  uncertainty theta = 0.004302, k = 0.130226
         7         8         9     1      121.240555      622.447314    ;  uncertainty theta = 0.002919, k = 0.205880
         7         8        33     1      116.813492      347.959523    ;  uncertainty theta = 0.001638, k = 0.087624
         8         9        10     1      120.931259      612.842998    ;  uncertainty theta = 0.002470, k = 0.239696
         8         9        34     1      121.868530      283.534439    ;  uncertainty theta = 0.002376, k = 0.096063
         9         8        33     1      121.994606      282.804174    ;  uncertainty theta = 0.002439, k = 0.090842
        10         9        34     1      116.754013      350.159800    ;  uncertainty theta = 0.001533, k = 0.075385
        11        12        13     1      124.922012      667.515332    ;  uncertainty theta = 0.002966, k = 0.161817
        11        12        35     1      118.731201      264.771814    ;  uncertainty theta = 0.008633, k = 0.144654
        11        16        15     1      123.289940      400.819424    ;  uncertainty theta = 0.003703, k = 0.311812
        11        16        17     1      119.668861      323.012576    ;  uncertainty theta = 0.009862, k = 0.668303
        11        21        41     1      114.408607      380.718431    ;  uncertainty theta = 0.008156, k = 0.169224
        12        11        16     1      118.657326      362.619707    ;  uncertainty theta = 0.004612, k = 0.362833
        12        11        21     1      118.512817      444.269954    ;  uncertainty theta = 0.006989, k = 0.276229
        12        13        14     1      118.268311      445.304717    ;  uncertainty theta = 0.004478, k = 0.098123
        13        12        35     1      116.579346      347.314743    ;  uncertainty theta = 0.005152, k = 0.066004
        13        14        15     1      122.431076      677.632432    ;  uncertainty theta = 0.002046, k = 0.093657
        13        14        36     1      116.840332      340.667018    ;  uncertainty theta = 0.001197, k = 0.068775
        14        15        16     1      118.808189      483.994172    ;  uncertainty theta = 0.004991, k = 0.079008
        14        15        37     1      122.214806      277.736813    ;  uncertainty theta = 0.004016, k = 0.070187
        15        14        36     1      120.256363      277.546338    ;  uncertainty theta = 0.002265, k = 0.082403
        15        16        17     1      114.589767      352.518823    ;  uncertainty theta = 0.008187, k = 0.213542
        16        11        21     1      122.762405      517.830778    ;  uncertainty theta = 0.007977, k = 0.368248
        16        15        37     1      119.535904      260.121156    ;  uncertainty theta = 0.004889, k = 0.124125
        16        17        18     1      112.903687      607.682076    ;  uncertainty theta = 0.002869, k = 0.171145
        16        17        19     1      104.371536      610.740975    ;  uncertainty theta = 0.002610, k = 0.101867
        16        17        20     1      112.903687      607.682076    ;  uncertainty theta = 0.002869, k = 0.171145
        17        19        38     1      107.113976      366.636120    ;  uncertainty theta = 0.002061, k = 0.075109
        17        19        39     1      107.113976      366.636120    ;  uncertainty theta = 0.002061, k = 0.075109
        17        19        40     1      107.113976      366.636120    ;  uncertainty theta = 0.002061, k = 0.075109
        18        17        19     1      112.603317      748.419576    ;  uncertainty theta = 0.000730, k = 0.122171
        18        17        20     1      123.473061      838.268703    ;  uncertainty theta = 0.001927, k = 0.047858
        19        17        20     1      112.603317      748.419576    ;  uncertainty theta = 0.000730, k = 0.122171
        22        23        24     1      122.529930      530.964578    ;  uncertainty theta = 0.003673, k = 0.110289
        22        23        42     1      119.133423      282.922762    ;  uncertainty theta = 0.003644, k = 0.079838
        22        25        26     1      118.803085      527.998889    ;  uncertainty theta = 0.004460, k = 0.057827
        22        25        44     1      121.105080      275.733012    ;  uncertainty theta = 0.004405, k = 0.094629
        23        22        25     1      121.610535      426.775310    ;  uncertainty theta = 0.004909, k = 0.159966
        23        24        27     1      117.879227      511.740497    ;  uncertainty theta = 0.003667, k = 0.114810
        23        24        43     1      120.707321      279.305430    ;  uncertainty theta = 0.002248, k = 0.043026
        24        23        42     1      119.438942      295.245439    ;  uncertainty theta = 0.001600, k = 0.130067
        24        27        26     1      118.238708      369.685155    ;  uncertainty theta = 0.006112, k = 0.099023
        24        27        28     1      128.762619      381.039815    ;  uncertainty theta = 0.003483, k = 0.196441
        25        26        27     1      118.143044      390.343431    ;  uncertainty theta = 0.003018, k = 0.214923
        25        26        30     1      126.019997      452.101483    ;  uncertainty theta = 0.002918, k = 0.208250
        26        25        44     1      120.389114      281.320532    ;  uncertainty theta = 0.003318, k = 0.103329
        26        27        28     1      109.261452      520.790178    ;  uncertainty theta = 0.002297, k = 0.164468
        26        30        29     1      110.162315      642.098119    ;  uncertainty theta = 0.003331, k = 0.227077
        27        24        43     1      122.474632      294.545371    ;  uncertainty theta = 0.002301, k = 0.089411
        27        26        30     1      115.586304      706.076942    ;  uncertainty theta = 0.002652, k = 0.110713
        27        28        29     1       88.894211     1186.337269    ;  uncertainty theta = 0.002989, k = 0.094884
        28        29        30     1      116.762794      733.492688    ;  uncertainty theta = 0.000942, k = 0.132358
        28        29        45     1      117.513840      242.520788    ;  uncertainty theta = 0.006180, k = 0.166492
        30        29        45     1      121.739868      271.715865    ;  uncertainty theta = 0.007769, k = 0.155557
        38        19        39     1      108.843689      296.191780    ;  uncertainty theta = 0.002069, k = 0.023129
        38        19        40     1      108.843689      296.191780    ;  uncertainty theta = 0.002069, k = 0.023129
        39        19        40     1      108.843689      296.191780    ;  uncertainty theta = 0.002069, k = 0.023129

[ dihedrals ] ; propers for gromacs 4.5 or higher, use funct 9
;       ai        aj        ak        al funct           phase               k        pn
         1         4         3         2     9        0.000000       -0.062505         1    ;  uncertainty k = 0.337259
         1         4         3         2     9      180.000000        6.273654         2    ;  uncertainty k = 0.976005
         1         4         3         2     9        0.000000        0.300249         3    ;  uncertainty k = 0.188358
         1         4         3         2     9      180.000000        1.347178         4    ;  uncertainty k = 0.321066
         1         4         3        21     9        0.000000        0.286609         1    ;  uncertainty k = 0.738718
         1         4         3        21     9      180.000000        7.663470         2    ;  uncertainty k = 0.500288
         1         4         3        21     9        0.000000        0.811590         3    ;  uncertainty k = 0.268206
         1         4         3        21     9      180.000000        1.632995         4    ;  uncertainty k = 0.114050
         1         6         5         2     9        0.000000       -0.713080         1    ;  uncertainty k = 0.521881
         1         6         5         2     9      180.000000        4.611688         2    ;  uncertainty k = 1.535208
         1         6         5         2     9        0.000000        0.274757         3    ;  uncertainty k = 0.299129
         1         6         5         2     9      180.000000        1.240052         4    ;  uncertainty k = 0.359773
         1         6         5        10     9        0.000000       -0.297577         1    ;  uncertainty k = 0.701970
         1         6         5        10     9      180.000000        5.014359         2    ;  uncertainty k = 1.176011
         1         6         5        10     9        0.000000        0.093992         3    ;  uncertainty k = 0.371276
         1         6         5        10     9      180.000000        1.323525         4    ;  uncertainty k = 0.229333
         1         6         7         8     9        0.000000       -0.230726         1    ;  uncertainty k = 0.542096
         1         6         7         8     9      180.000000       12.457806         2    ;  uncertainty k = 0.567635
         1         6         7         8     9        0.000000        2.051214         3    ;  uncertainty k = 0.352155
         1         6         7         8     9      180.000000        1.316225         4    ;  uncertainty k = 0.190864
         1        22        23        24     9        0.000000        0.077912         1    ;  uncertainty k = 0.395905
         1        22        23        24     9      180.000000        7.954187         2    ;  uncertainty k = 0.647572
         1        22        23        24     9        0.000000        1.221981         3    ;  uncertainty k = 0.320862
         1        22        23        24     9      180.000000        1.894744         4    ;  uncertainty k = 0.147255
         1        22        23        42     9        0.000000       -0.190676         1    ;  uncertainty k = 0.041757
         1        22        23        42     9      180.000000        7.362181         2    ;  uncertainty k = 0.464212
         1        22        23        42     9        0.000000        0.806302         3    ;  uncertainty k = 0.230329
         1        22        23        42     9      180.000000        1.152715         4    ;  uncertainty k = 0.232351
         1        22        25        26     9        0.000000        0.169180         1    ;  uncertainty k = 0.466402
         1        22        25        26     9      180.000000       10.664495         2    ;  uncertainty k = 0.507317
         1        22        25        26     9        0.000000        1.528959         3    ;  uncertainty k = 0.162130
         1        22        25        26     9      180.000000        1.800437         4    ;  uncertainty k = 0.165826
         1        22        25        44     9        0.000000       -0.150516         1    ;  uncertainty k = 0.169219
         1        22        25        44     9      180.000000        7.673035         2    ;  uncertainty k = 0.182864
         1        22        25        44     9        0.000000        0.858569         3    ;  uncertainty k = 0.267367
         1        22        25        44     9      180.000000        1.277722         4    ;  uncertainty k = 0.134398
         2         3         4        32     9        0.000000        0.249484         1    ;  uncertainty k = 0.404908
         2         3         4        32     9      180.000000        5.922881         2    ;  uncertainty k = 0.882861
         2         3         4        32     9        0.000000        1.141823         3    ;  uncertainty k = 0.151874
         2         3         4        32     9      180.000000        1.438043         4    ;  uncertainty k = 0.272334
         2         3        21        11     9        0.000000        2.391293         1    ;  uncertainty k = 0.927259
         2         3        21        11     9      180.000000        5.627188         2    ;  uncertainty k = 0.345908
         2         3        21        11     9        0.000000        0.130796         3    ;  uncertainty k = 0.275597
         2         3        21        11     9      180.000000        0.108068         4    ;  uncertainty k = 0.070781
         2         3        21        41     9        0.000000        3.714209         1    ;  uncertainty k = 1.019183
         2         3        21        41     9      180.000000        4.537150         2    ;  uncertainty k = 0.136541
         2         3        21        41     9        0.000000        0.421529         3    ;  uncertainty k = 0.226094
         2         3        21        41     9      180.000000       -0.068004         4    ;  uncertainty k = 0.067047
         2         5         6         7     9        0.000000        0.076452         1    ;  uncertainty k = 0.284766
         2         5         6         7     9      180.000000        6.080417         2    ;  uncertainty k = 1.149879
         2         5         6         7     9        0.000000        0.106983         3    ;  uncertainty k = 0.156575
         2         5         6         7     9      180.000000        1.373585         4    ;  uncertainty k = 0.405208
         2         5        10         9     9        0.000000        0.427932         1    ;  uncertainty k = 1.029214
         2         5        10         9     9      180.000000       12.638435         2    ;  uncertainty k = 0.318598
         2         5        10         9     9        0.000000        2.227130         3    ;  uncertainty k = 0.470956
         2         5        10         9     9      180.000000        1.437848         4    ;  uncertainty k = 0.260470
         3         2         5         6     9        0.000000        0.121230         1    ;  uncertainty k = 0.458444
         3         2         5         6     9      180.000000        7.195259         2    ;  uncertainty k = 0.794921
         3         2         5         6     9        0.000000        0.037659         3    ;  uncertainty k = 0.279135
         3         2         5         6     9      180.000000        1.290689         4    ;  uncertainty k = 0.271573
         3         2         5        10     9        0.000000        0.146697         1    ;  uncertainty k = 0.428361
         3         2         5        10     9      180.000000        9.787394         2    ;  uncertainty k = 0.378069
         3         2         5        10     9        0.000000        0.568644         3    ;  uncertainty k = 0.286793
         3         2         5        10     9      180.000000        1.391199         4    ;  uncertainty k = 0.231273
         3         4         1         6     9        0.000000        0.019576         1    ;  uncertainty k = 0.540542
         3         4         1         6     9      180.000000       12.468998         2    ;  uncertainty k = 0.421815
         3         4         1         6     9        0.000000        0.364670         3    ;  uncertainty k = 0.229679
         3         4         1         6     9      180.000000        1.282695         4    ;  uncertainty k = 0.324127
         3         4         1        22     9        0.000000        0.160429         1    ;  uncertainty k = 0.212317
         3         4         1        22     9      180.000000       10.393854         2    ;  uncertainty k = 0.642664
         3         4         1        22     9        0.000000        1.340450         3    ;  uncertainty k = 0.285226
         3         4         1        22     9      180.000000        1.711114         4    ;  uncertainty k = 0.297891
         3        21        11        12     9        0.000000        4.219815         1    ;  uncertainty k = 1.204823
         3        21        11        12     9      180.000000        5.915025         2    ;  uncertainty k = 0.485742
         3        21        11        12     9        0.000000        0.506819         3    ;  uncertainty k = 0.114705
         3        21        11        12     9      180.000000        0.021031         4    ;  uncertainty k = 0.159761
         3        21        11        16     9        0.000000        0.589932         1    ;  uncertainty k = 1.531190
         3        21        11        16     9      180.000000        8.272736         2    ;  uncertainty k = 0.309916
         3        21        11        16     9        0.000000       -0.349199         3    ;  uncertainty k = 0.585019
         3        21        11        16     9      180.000000        0.078445         4    ;  uncertainty k = 0.210861
         4         1         6         5     9        0.000000       -0.064268         1    ;  uncertainty k = 0.482879
         4         1         6         5     9      180.000000        5.815078         2    ;  uncertainty k = 0.996901
         4         1         6         5     9        0.000000        0.060037         3    ;  uncertainty k = 0.264413
         4         1         6         5     9      180.000000        1.005081         4    ;  uncertainty k = 0.332027
         4         1         6         7     9        0.000000        0.261321         1    ;  uncertainty k = 0.518994
         4         1         6         7     9      180.000000        6.885066         2    ;  uncertainty k = 0.805626
         4         1         6         7     9        0.000000        0.373938         3    ;  uncertainty k = 0.290823
         4         1         6         7     9      180.000000        1.164312         4    ;  uncertainty k = 0.349613
         4         1        22        23     9        0.000000       -0.292796         1    ;  uncertainty k = 0.431324
         4         1        22        23     9      180.000000        5.547223         2    ;  uncertainty k = 0.225120
         4         1        22        23     9        0.000000        0.373937         3    ;  uncertainty k = 0.184172
         4         1        22        23     9      180.000000        0.544026         4    ;  uncertainty k = 0.127519
         4         1        22        25     9        0.000000       -0.456904         1    ;  uncertainty k = 0.511213
         4         1        22        25     9      180.000000        5.214591         2    ;  uncertainty k = 0.228497
         4         1        22        25     9        0.000000        0.455715         3    ;  uncertainty k = 0.176273
         4         1        22        25     9      180.000000        0.470637         4    ;  uncertainty k = 0.100199
         4         3         2         5     9        0.000000       -0.221709         1    ;  uncertainty k = 0.191088
         4         3         2         5     9      180.000000        9.798200         2    ;  uncertainty k = 0.334095
         4         3         2         5     9        0.000000        0.329469         3    ;  uncertainty k = 0.461908
         4         3         2         5     9      180.000000        1.353768         4    ;  uncertainty k = 0.303960
         4         3         2        31     9        0.000000        0.274319         1    ;  uncertainty k = 0.397236
         4         3         2        31     9      180.000000        7.009104         2    ;  uncertainty k = 0.649589
         4         3         2        31     9        0.000000        1.295656         3    ;  uncertainty k = 0.118446
         4         3         2        31     9      180.000000        1.628271         4    ;  uncertainty k = 0.154579
         4         3        21        11     9        0.000000        2.704328         1    ;  uncertainty k = 1.100882
         4         3        21        11     9      180.000000        5.654041         2    ;  uncertainty k = 0.307787
         4         3        21        11     9        0.000000        0.621214         3    ;  uncertainty k = 0.287959
         4         3        21        11     9      180.000000        0.073946         4    ;  uncertainty k = 0.167406
         4         3        21        41     9        0.000000        3.340432         1    ;  uncertainty k = 0.856252
         4         3        21        41     9      180.000000        4.536998         2    ;  uncertainty k = 0.547945
         4         3        21        41     9        0.000000        0.508739         3    ;  uncertainty k = 0.257942
         4         3        21        41     9      180.000000       -0.053044         4    ;  uncertainty k = 0.129026
         5         2         3        21     9        0.000000       -0.189601         1    ;  uncertainty k = 0.394616
         5         2         3        21     9      180.000000       11.233637         2    ;  uncertainty k = 0.435508
         5         2         3        21     9        0.000000        0.975271         3    ;  uncertainty k = 0.174800
         5         2         3        21     9      180.000000        1.594279         4    ;  uncertainty k = 0.138017
         5         6         1        22     9        0.000000        0.084803         1    ;  uncertainty k = 0.782204
         5         6         1        22     9      180.000000        4.897350         2    ;  uncertainty k = 0.438294
         5         6         1        22     9        0.000000        1.022646         3    ;  uncertainty k = 0.225710
         5         6         1        22     9      180.000000        1.293757         4    ;  uncertainty k = 0.361416
         5         6         7         8     9        0.000000       -0.112022         1    ;  uncertainty k = 0.910117
         5         6         7         8     9      180.000000       11.596635         2    ;  uncertainty k = 0.629166
         5         6         7         8     9        0.000000        1.457657         3    ;  uncertainty k = 0.287216
         5         6         7         8     9      180.000000        1.330866         4    ;  uncertainty k = 0.318778
         5        10         9         8     9        0.000000        0.013311         1    ;  uncertainty k = 0.131653
         5        10         9         8     9      180.000000       17.231919         2    ;  uncertainty k = 0.196674
         5        10         9         8     9        0.000000        0.888029         3    ;  uncertainty k = 0.629562
         5        10         9         8     9      180.000000        1.519865         4    ;  uncertainty k = 0.234840
         5        10         9        34     9        0.000000        0.424411         1    ;  uncertainty k = 0.517708
         5        10         9        34     9      180.000000       19.045700         2    ;  uncertainty k = 0.443936
         5        10         9        34     9        0.000000        2.354564         3    ;  uncertainty k = 0.582721
         5        10         9        34     9      180.000000        1.407429         4    ;  uncertainty k = 0.336465
         6         1         4        32     9        0.000000        0.123738         1    ;  uncertainty k = 0.256830
         6         1         4        32     9      180.000000        9.582772         2    ;  uncertainty k = 0.350597
         6         1         4        32     9        0.000000        1.473211         3    ;  uncertainty k = 0.141254
         6         1         4        32     9      180.000000        1.670290         4    ;  uncertainty k = 0.172671
         6         1        22        23     9        0.000000        0.348736         1    ;  uncertainty k = 0.755189
         6         1        22        23     9      180.000000        5.014228         2    ;  uncertainty k = 0.246353
         6         1        22        23     9        0.000000        0.357696         3    ;  uncertainty k = 0.296038
         6         1        22        23     9      180.000000        0.743217         4    ;  uncertainty k = 0.056023
         6         1        22        25     9        0.000000        0.069588         1    ;  uncertainty k = 0.588092
         6         1        22        25     9      180.000000        4.702004         2    ;  uncertainty k = 0.297803
         6         1        22        25     9        0.000000        0.252850         3    ;  uncertainty k = 0.367739
         6         1        22        25     9      180.000000        0.641298         4    ;  uncertainty k = 0.098910
         6         5         2        31     9        0.000000       -0.216754         1    ;  uncertainty k = 0.343873
         6         5         2        31     9      180.000000        5.853914         2    ;  uncertainty k = 0.879792
         6         5         2        31     9        0.000000        1.199030         3    ;  uncertainty k = 0.162614
         6         5         2        31     9      180.000000        1.246406         4    ;  uncertainty k = 0.338414
         6         5        10         9     9        0.000000       -0.063178         1    ;  uncertainty k = 1.326752
         6         5        10         9     9      180.000000       10.095142         2    ;  uncertainty k = 0.612694
         6         5        10         9     9        0.000000        1.278116         3    ;  uncertainty k = 0.488029
         6         5        10         9     9      180.000000        1.281711         4    ;  uncertainty k = 0.220795
         6         7         8         9     9        0.000000        0.020377         1    ;  uncertainty k = 0.368422
         6         7         8         9     9      180.000000       16.581266         2    ;  uncertainty k = 0.335688
         6         7         8         9     9        0.000000        0.829256         3    ;  uncertainty k = 0.750676
         6         7         8         9     9      180.000000        1.566270         4    ;  uncertainty k = 0.253962
         6         7         8        33     9        0.000000        0.275900         1    ;  uncertainty k = 0.531876
         6         7         8        33     9      180.000000       18.156242         2    ;  uncertainty k = 0.522836
         6         7         8        33     9        0.000000        2.344022         3    ;  uncertainty k = 0.655907
         6         7         8        33     9      180.000000        1.633482         4    ;  uncertainty k = 0.415921
         7         6         1        22     9        0.000000        0.281471         1    ;  uncertainty k = 1.286319
         7         6         1        22     9      180.000000        7.281800         2    ;  uncertainty k = 0.648100
         7         6         1        22     9        0.000000        0.807174         3    ;  uncertainty k = 0.521541
         7         6         1        22     9      180.000000        1.205641         4    ;  uncertainty k = 0.266621
         7         6         5        10     9        0.000000       -0.400492         1    ;  uncertainty k = 0.890675
         7         6         5        10     9      180.000000        7.087146         2    ;  uncertainty k = 0.720455
         7         6         5        10     9        0.000000        0.077638         3    ;  uncertainty k = 0.327161
         7         6         5        10     9      180.000000        1.330895         4    ;  uncertainty k = 0.356325
         7         8         9        10     9        0.000000       -0.202866         1    ;  uncertainty k = 0.782206
         7         8         9        10     9      180.000000       12.112991         2    ;  uncertainty k = 0.805807
         7         8         9        10     9        0.000000       -1.599825         3    ;  uncertainty k = 0.569696
         7         8         9        10     9      180.000000        0.918172         4    ;  uncertainty k = 0.463986
         7         8         9        34     9        0.000000        0.036887         1    ;  uncertainty k = 0.700692
         7         8         9        34     9      180.000000        6.513920         2    ;  uncertainty k = 1.135261
         7         8         9        34     9        0.000000        0.521732         3    ;  uncertainty k = 0.385188
         7         8         9        34     9      180.000000        1.117821         4    ;  uncertainty k = 0.330142
        10         5         2        31     9        0.000000        0.139927         1    ;  uncertainty k = 0.233387
        10         5         2        31     9      180.000000        8.199298         2    ;  uncertainty k = 0.492394
        10         5         2        31     9        0.000000        1.032825         3    ;  uncertainty k = 0.329116
        10         5         2        31     9      180.000000        1.219854         4    ;  uncertainty k = 0.291231
        10         9         8        33     9        0.000000       -0.033262         1    ;  uncertainty k = 0.634830
        10         9         8        33     9      180.000000        6.504272         2    ;  uncertainty k = 1.136878
        10         9         8        33     9        0.000000        0.521238         3    ;  uncertainty k = 0.433609
        10         9         8        33     9      180.000000        1.070757         4    ;  uncertainty k = 0.343719
        11        12        13        14     9        0.000000        0.036596         1    ;  uncertainty k = 0.371493
        11        12        13        14     9      180.000000       16.597051         2    ;  uncertainty k = 0.304805
        11        12        13        14     9        0.000000        0.966621         3    ;  uncertainty k = 0.517836
        11        12        13        14     9      180.000000        1.451097         4    ;  uncertainty k = 0.177716
        11        16        15        14     9        0.000000       -0.265669         1    ;  uncertainty k = 0.419231
        11        16        15        14     9      180.000000       10.460450         2    ;  uncertainty k = 0.389564
        11        16        15        14     9        0.000000       -0.366508         3    ;  uncertainty k = 0.514478
        11        16        15        14     9      180.000000        0.929899         4    ;  uncertainty k = 0.330294
        11        16        15        37     9        0.000000        0.238370         1    ;  uncertainty k = 0.382236
        11        16        15        37     9      180.000000        7.525222         2    ;  uncertainty k = 0.903253
        11        16        15        37     9        0.000000        1.267264         3    ;  uncertainty k = 0.290613
        11        16        15        37     9      180.000000        1.474858         4    ;  uncertainty k = 0.123420
        11        16        17        18     9        0.000000       -5.228555         1    ;  uncertainty k = 2.158652
        11        16        17        18     9      180.000000       -0.861344         2    ;  uncertainty k = 0.805165
        11        16        17        18     9        0.000000        1.201043         3    ;  uncertainty k = 0.425532
        11        16        17        18     9      180.000000       -0.042324         4    ;  uncertainty k = 0.375368
        11        16        17        19     9        0.000000        0.262416         1    ;  uncertainty k = 1.833675
        11        16        17        19     9      180.000000       -1.026928         2    ;  uncertainty k = 0.798426
        11        16        17        19     9        0.000000        0.956201         3    ;  uncertainty k = 0.348087
        11        16        17        19     9      180.000000        0.178350         4    ;  uncertainty k = 0.195567
        11        16        17        20     9        0.000000       -5.228555         1    ;  uncertainty k = 2.158652
        11        16        17        20     9      180.000000       -0.861344         2    ;  uncertainty k = 0.805165
        11        16        17        20     9        0.000000        1.201043         3    ;  uncertainty k = 0.425532
        11        16        17        20     9      180.000000       -0.042324         4    ;  uncertainty k = 0.375368
        12        11        16        15     9        0.000000       -0.438833         1    ;  uncertainty k = 0.840318
        12        11        16        15     9      180.000000        4.610451         2    ;  uncertainty k = 1.641700
        12        11        16        15     9        0.000000        0.358135         3    ;  uncertainty k = 0.323564
        12        11        16        15     9      180.000000        1.351096         4    ;  uncertainty k = 0.315698
        12        11        16        17     9        0.000000        0.917642         1    ;  uncertainty k = 0.634889
        12        11        16        17     9      180.000000        4.793051         2    ;  uncertainty k = 1.087370
        12        11        16        17     9        0.000000        1.108847         3    ;  uncertainty k = 0.290816
        12        11        16        17     9      180.000000        1.561541         4    ;  uncertainty k = 0.342190
        12        11        21        41     9        0.000000        0.917543         1    ;  uncertainty k = 1.463600
        12        11        21        41     9      180.000000        4.182458         2    ;  uncertainty k = 0.765144
        12        11        21        41     9        0.000000       -0.106077         3    ;  uncertainty k = 0.498483
        12        11        21        41     9      180.000000       -0.220151         4    ;  uncertainty k = 0.253379
        12        13        14        15     9        0.000000       -0.485017         1    ;  uncertainty k = 0.425214
        12        13        14        15     9      180.000000       15.189730         2    ;  uncertainty k = 0.461239
        12        13        14        15     9        0.000000        1.127628         3    ;  uncertainty k = 0.661679
        12        13        14        15     9      180.000000        1.285431         4    ;  uncertainty k = 0.097276
        12        13        14        36     9        0.000000        0.172532         1    ;  uncertainty k = 0.566097
        12        13        14        36     9      180.000000       15.445793         2    ;  uncertainty k = 0.425751
        12        13        14        36     9        0.000000        2.152702         3    ;  uncertainty k = 0.508048
        12        13        14        36     9      180.000000        1.381411         4    ;  uncertainty k = 0.359272
        13        12        11        16     9        0.000000       -0.562844         1    ;  uncertainty k = 0.540740
        13        12        11        16     9      180.000000        6.748516         2    ;  uncertainty k = 1.268445
        13        12        11        16     9        0.000000        0.077078         3    ;  uncertainty k = 0.370452
        13        12        11        16     9      180.000000        1.216829         4    ;  uncertainty k = 0.295894
        13        12        11        21     9        0.000000        0.284522         1    ;  uncertainty k = 0.937479
        13        12        11        21     9      180.000000        8.701417         2    ;  uncertainty k = 0.854400
        13        12        11        21     9        0.000000        0.836725         3    ;  uncertainty k = 0.185926
        13        12        11        21     9      180.000000        1.496109         4    ;  uncertainty k = 0.299674
        13        14        15        16     9        0.000000       -0.252469         1    ;  uncertainty k = 0.431542
        13        14        15        16     9      180.000000       13.556324         2    ;  uncertainty k = 0.574918
        13        14        15        16     9        0.000000       -1.106331         3    ;  uncertainty k = 1.113056
        13        14        15        16     9      180.000000        0.952272         4    ;  uncertainty k = 0.151718
        13        14        15        37     9        0.000000       -0.068095         1    ;  uncertainty k = 0.262320
        13        14        15        37     9      180.000000        9.165642         2    ;  uncertainty k = 0.726879
        13        14        15        37     9        0.000000        0.979809         3    ;  uncertainty k = 0.350347
        13        14        15        37     9      180.000000        1.652654         4    ;  uncertainty k = 0.185847
        14        13        12        35     9        0.000000        0.508067         1    ;  uncertainty k = 0.686763
        14        13        12        35     9      180.000000       16.706316         2    ;  uncertainty k = 0.583290
        14        13        12        35     9        0.000000        2.361242         3    ;  uncertainty k = 0.235966
        14        13        12        35     9      180.000000        1.517602         4    ;  uncertainty k = 0.508263
        14        15        16        17     9        0.000000        0.601783         1    ;  uncertainty k = 0.840720
        14        15        16        17     9      180.000000        9.254870         2    ;  uncertainty k = 0.664788
        14        15        16        17     9        0.000000        1.560649         3    ;  uncertainty k = 0.502423
        14        15        16        17     9      180.000000        1.838812         4    ;  uncertainty k = 0.146620
        15        16        11        21     9        0.000000       -0.020826         1    ;  uncertainty k = 0.416439
        15        16        11        21     9      180.000000        7.821353         2    ;  uncertainty k = 0.442939
        15        16        11        21     9        0.000000        1.029527         3    ;  uncertainty k = 0.210996
        15        16        11        21     9      180.000000        1.524187         4    ;  uncertainty k = 0.257372
        15        16        17        18     9        0.000000       -0.492327         1    ;  uncertainty k = 1.108209
        15        16        17        18     9      180.000000        0.135604         2    ;  uncertainty k = 0.455039
        15        16        17        18     9        0.000000        0.177825         3    ;  uncertainty k = 0.237275
        15        16        17        18     9      180.000000        0.012963         4    ;  uncertainty k = 0.209193
        15        16        17        19     9        0.000000        3.406870         1    ;  uncertainty k = 1.708510
        15        16        17        19     9      180.000000        0.171419         2    ;  uncertainty k = 0.576991
        15        16        17        19     9        0.000000       -0.078308         3    ;  uncertainty k = 0.399031
        15        16        17        19     9      180.000000        0.444415         4    ;  uncertainty k = 0.155672
        15        16        17        20     9        0.000000       -0.492327         1    ;  uncertainty k = 1.108209
        15        16        17        20     9      180.000000        0.135604         2    ;  uncertainty k = 0.455039
        15        16        17        20     9        0.000000        0.177825         3    ;  uncertainty k = 0.237275
        15        16        17        20     9      180.000000        0.012963         4    ;  uncertainty k = 0.209193
        16        11        12        35     9        0.000000        0.000818         1    ;  uncertainty k = 1.384589
        16        11        12        35     9      180.000000        4.685089         2    ;  uncertainty k = 1.110640
        16        11        12        35     9        0.000000        1.104677         3    ;  uncertainty k = 0.238511
        16        11        12        35     9      180.000000        1.089444         4    ;  uncertainty k = 0.205054
        16        11        21        41     9        0.000000        9.262102         1    ;  uncertainty k = 0.773178
        16        11        21        41     9      180.000000        3.945831         2    ;  uncertainty k = 0.536445
        16        11        21        41     9        0.000000        0.752571         3    ;  uncertainty k = 0.273740
        16        11        21        41     9      180.000000       -0.119638         4    ;  uncertainty k = 0.176171
        16        15        14        36     9        0.000000       -0.148524         1    ;  uncertainty k = 0.589763
        16        15        14        36     9      180.000000        6.244193         2    ;  uncertainty k = 0.249576
        16        15        14        36     9        0.000000        1.014104         3    ;  uncertainty k = 0.237436
        16        15        14        36     9      180.000000        1.497615         4    ;  uncertainty k = 0.181166
        16        17        19        38     9        0.000000        2.345206         1    ;  uncertainty k = 0.643494
        16        17        19        38     9      180.000000       -2.433989         2    ;  uncertainty k = 0.375726
        16        17        19        38     9        0.000000        0.170344         3    ;  uncertainty k = 0.101207
        16        17        19        38     9      180.000000        0.001304         4    ;  uncertainty k = 0.149206
        16        17        19        39     9        0.000000        2.345206         1    ;  uncertainty k = 0.643494
        16        17        19        39     9      180.000000       -2.433989         2    ;  uncertainty k = 0.375726
        16        17        19        39     9        0.000000        0.170344         3    ;  uncertainty k = 0.101207
        16        17        19        39     9      180.000000        0.001304         4    ;  uncertainty k = 0.149206
        16        17        19        40     9        0.000000        2.345206         1    ;  uncertainty k = 0.643494
        16        17        19        40     9      180.000000       -2.433989         2    ;  uncertainty k = 0.375726
        16        17        19        40     9        0.000000        0.170344         3    ;  uncertainty k = 0.101207
        16        17        19        40     9      180.000000        0.001304         4    ;  uncertainty k = 0.149206
        17        16        11        21     9        0.000000       -0.506012         1    ;  uncertainty k = 0.475731
        17        16        11        21     9      180.000000        7.636457         2    ;  uncertainty k = 0.878999
        17        16        11        21     9        0.000000        1.159106         3    ;  uncertainty k = 0.332202
        17        16        11        21     9      180.000000        1.400877         4    ;  uncertainty k = 0.254665
        17        16        15        37     9        0.000000       -0.424035         1    ;  uncertainty k = 0.616072
        17        16        15        37     9      180.000000        7.010377         2    ;  uncertainty k = 0.550570
        17        16        15        37     9        0.000000        0.781435         3    ;  uncertainty k = 0.169299
        17        16        15        37     9      180.000000        1.269235         4    ;  uncertainty k = 0.186788
        18        17        19        38     9        0.000000       -0.057642         1    ;  uncertainty k = 0.603700
        18        17        19        38     9      180.000000       -0.366450         2    ;  uncertainty k = 0.288160
        18        17        19        38     9        0.000000        0.801561         3    ;  uncertainty k = 0.057212
        18        17        19        38     9      180.000000        0.039211         4    ;  uncertainty k = 0.101280
        18        17        19        39     9        0.000000       -0.057642         1    ;  uncertainty k = 0.603700
        18        17        19        39     9      180.000000       -0.366450         2    ;  uncertainty k = 0.288160
        18        17        19        39     9        0.000000        0.801561         3    ;  uncertainty k = 0.057212
        18        17        19        39     9      180.000000        0.039211         4    ;  uncertainty k = 0.101280
        18        17        19        40     9        0.000000       -0.057642         1    ;  uncertainty k = 0.603700
        18        17        19        40     9      180.000000       -0.366450         2    ;  uncertainty k = 0.288160
        18        17        19        40     9        0.000000        0.801561         3    ;  uncertainty k = 0.057212
        18        17        19        40     9      180.000000        0.039211         4    ;  uncertainty k = 0.101280
        20        17        19        38     9        0.000000       -0.057642         1    ;  uncertainty k = 0.603700
        20        17        19        38     9      180.000000       -0.366450         2    ;  uncertainty k = 0.288160
        20        17        19        38     9        0.000000        0.801561         3    ;  uncertainty k = 0.057212
        20        17        19        38     9      180.000000        0.039211         4    ;  uncertainty k = 0.101280
        20        17        19        39     9        0.000000       -0.057642         1    ;  uncertainty k = 0.603700
        20        17        19        39     9      180.000000       -0.366450         2    ;  uncertainty k = 0.288160
        20        17        19        39     9        0.000000        0.801561         3    ;  uncertainty k = 0.057212
        20        17        19        39     9      180.000000        0.039211         4    ;  uncertainty k = 0.101280
        20        17        19        40     9        0.000000       -0.057642         1    ;  uncertainty k = 0.603700
        20        17        19        40     9      180.000000       -0.366450         2    ;  uncertainty k = 0.288160
        20        17        19        40     9        0.000000        0.801561         3    ;  uncertainty k = 0.057212
        20        17        19        40     9      180.000000        0.039211         4    ;  uncertainty k = 0.101280
        21         3         2        31     9        0.000000       -0.570257         1    ;  uncertainty k = 0.225436
        21         3         2        31     9      180.000000        8.036467         2    ;  uncertainty k = 0.539840
        21         3         2        31     9        0.000000        0.826405         3    ;  uncertainty k = 0.259177
        21         3         2        31     9      180.000000        1.188347         4    ;  uncertainty k = 0.226655
        21         3         4        32     9        0.000000       -0.444466         1    ;  uncertainty k = 0.331197
        21         3         4        32     9      180.000000        6.982224         2    ;  uncertainty k = 0.396118
        21         3         4        32     9        0.000000        0.801489         3    ;  uncertainty k = 0.230309
        21         3         4        32     9      180.000000        1.180032         4    ;  uncertainty k = 0.128392
        21        11        12        35     9        0.000000        0.007094         1    ;  uncertainty k = 0.499751
        21        11        12        35     9      180.000000        5.972508         2    ;  uncertainty k = 0.983100
        21        11        12        35     9        0.000000        0.942185         3    ;  uncertainty k = 0.273147
        21        11        12        35     9      180.000000        1.158933         4    ;  uncertainty k = 0.246634
        22         1         4        32     9        0.000000        0.143306         1    ;  uncertainty k = 0.293985
        22         1         4        32     9      180.000000        8.467009         2    ;  uncertainty k = 0.274364
        22         1         4        32     9        0.000000        0.994498         3    ;  uncertainty k = 0.170669
        22         1         4        32     9      180.000000        1.392221         4    ;  uncertainty k = 0.303895
        22        23        24        27     9        0.000000       -0.093491         1    ;  uncertainty k = 0.167010
        22        23        24        27     9      180.000000       15.533901         2    ;  uncertainty k = 0.429915
        22        23        24        27     9        0.000000       -0.459364         3    ;  uncertainty k = 0.685781
        22        23        24        27     9      180.000000        0.762064         4    ;  uncertainty k = 0.463481
        22        23        24        43     9        0.000000        0.053876         1    ;  uncertainty k = 0.203139
        22        23        24        43     9      180.000000        8.435044         2    ;  uncertainty k = 0.456735
        22        23        24        43     9        0.000000        1.385959         3    ;  uncertainty k = 0.193311
        22        23        24        43     9      180.000000        1.909687         4    ;  uncertainty k = 0.255160
        22        25        26        27     9        0.000000        0.015291         1    ;  uncertainty k = 0.492943
        22        25        26        27     9      180.000000       11.784983         2    ;  uncertainty k = 0.273297
        22        25        26        27     9        0.000000       -0.829090         3    ;  uncertainty k = 0.388532
        22        25        26        27     9      180.000000        0.831949         4    ;  uncertainty k = 0.230457
        22        25        26        30     9        0.000000        0.077990         1    ;  uncertainty k = 0.356516
        22        25        26        30     9      180.000000       11.303780         2    ;  uncertainty k = 0.156318
        22        25        26        30     9        0.000000        0.795048         3    ;  uncertainty k = 0.168851
        22        25        26        30     9      180.000000        1.313787         4    ;  uncertainty k = 0.169042
        23        22        25        26     9        0.000000       -0.066860         1    ;  uncertainty k = 0.207386
        23        22        25        26     9      180.000000       13.166271         2    ;  uncertainty k = 0.586094
        23        22        25        26     9        0.000000        0.072380         3    ;  uncertainty k = 0.352095
        23        22        25        26     9      180.000000        0.922842         4    ;  uncertainty k = 0.472880
        23        22        25        44     9        0.000000        0.322585         1    ;  uncertainty k = 0.214849
        23        22        25        44     9      180.000000        7.668033         2    ;  uncertainty k = 0.509905
        23        22        25        44     9        0.000000        1.467106         3    ;  uncertainty k = 0.136628
        23        22        25        44     9      180.000000        1.717068         4    ;  uncertainty k = 0.236987
        23        24        27        26     9        0.000000       -0.006141         1    ;  uncertainty k = 0.326438
        23        24        27        26     9      180.000000       12.721017         2    ;  uncertainty k = 0.564291
        23        24        27        26     9        0.000000       -1.276421         3    ;  uncertainty k = 0.241827
        23        24        27        26     9      180.000000        0.806569         4    ;  uncertainty k = 0.341657
        23        24        27        28     9        0.000000        0.420806         1    ;  uncertainty k = 0.412404
        23        24        27        28     9      180.000000        8.346948         2    ;  uncertainty k = 0.497044
        23        24        27        28     9        0.000000        1.277011         3    ;  uncertainty k = 0.164184
        23        24        27        28     9      180.000000        1.429035         4    ;  uncertainty k = 0.422513
        24        23        22        25     9        0.000000       -0.053647         1    ;  uncertainty k = 0.107891
        24        23        22        25     9      180.000000       10.182185         2    ;  uncertainty k = 0.281884
        24        23        22        25     9        0.000000       -0.350012         3    ;  uncertainty k = 0.388085
        24        23        22        25     9      180.000000        1.010550         4    ;  uncertainty k = 0.223463
        24        27        26        25     9        0.000000       -0.188408         1    ;  uncertainty k = 0.748287
        24        27        26        25     9      180.000000        8.786052         2    ;  uncertainty k = 0.770969
        24        27        26        25     9        0.000000       -0.039451         3    ;  uncertainty k = 0.261476
        24        27        26        25     9      180.000000        1.005940         4    ;  uncertainty k = 0.247978
        24        27        26        30     9        0.000000        0.031815         1    ;  uncertainty k = 0.768479
        24        27        26        30     9      180.000000       10.014954         2    ;  uncertainty k = 0.470159
        24        27        26        30     9        0.000000       -0.034547         3    ;  uncertainty k = 0.492598
        24        27        26        30     9      180.000000        1.450147         4    ;  uncertainty k = 0.425516
        24        27        28        29     9        0.000000       -0.702333         1    ;  uncertainty k = 1.792922
        24        27        28        29     9      180.000000        6.122118         2    ;  uncertainty k = 0.545297
        24        27        28        29     9        0.000000        0.214315         3    ;  uncertainty k = 0.299048
        24        27        28        29     9      180.000000        0.461132         4    ;  uncertainty k = 0.311876
        25        22        23        42     9        0.000000        0.251981         1    ;  uncertainty k = 0.122484
        25        22        23        42     9      180.000000        6.408882         2    ;  uncertainty k = 0.575504
        25        22        23        42     9        0.000000        1.412287         3    ;  uncertainty k = 0.140942
        25        22        23        42     9      180.000000        1.628131         4    ;  uncertainty k = 0.268014
        25        26        27        28     9        0.000000        0.102593         1    ;  uncertainty k = 0.627966
        25        26        27        28     9      180.000000        7.515672         2    ;  uncertainty k = 0.346633
        25        26        27        28     9        0.000000        0.280089         3    ;  uncertainty k = 0.425724
        25        26        27        28     9      180.000000        1.127962         4    ;  uncertainty k = 0.219411
        25        26        30        29     9        0.000000        0.263102         1    ;  uncertainty k = 1.019120
        25        26        30        29     9      180.000000        8.363785         2    ;  uncertainty k = 0.523583
        25        26        30        29     9        0.000000        0.843588         3    ;  uncertainty k = 0.638119
        25        26        30        29     9      180.000000        0.737734         4    ;  uncertainty k = 0.354978
        26        27        24        43     9        0.000000        0.099709         1    ;  uncertainty k = 0.452222
        26        27        24        43     9      180.000000        6.865431         2    ;  uncertainty k = 0.792901
        26        27        24        43     9        0.000000        1.320514         3    ;  uncertainty k = 0.175114
        26        27        24        43     9      180.000000        1.303493         4    ;  uncertainty k = 0.293084
        26        27        28        29     9        0.000000       -0.490720         1    ;  uncertainty k = 0.641792
        26        27        28        29     9      180.000000       13.240892         2    ;  uncertainty k = 1.149072
        26        27        28        29     9        0.000000       -6.443765         3    ;  uncertainty k = 1.577988
        26        27        28        29     9      180.000000        0.652329         4    ;  uncertainty k = 0.754411
        26        30        29        28     9        0.000000       -0.254001         1    ;  uncertainty k = 0.578522
        26        30        29        28     9      180.000000       23.487663         2    ;  uncertainty k = 0.448663
        26        30        29        28     9        0.000000       -1.841025         3    ;  uncertainty k = 1.196180
        26        30        29        28     9      180.000000        1.904798         4    ;  uncertainty k = 0.215149
        26        30        29        45     9        0.000000       -0.261566         1    ;  uncertainty k = 1.841270
        26        30        29        45     9      180.000000       24.064630         2    ;  uncertainty k = 0.384198
        26        30        29        45     9        0.000000        1.641910         3    ;  uncertainty k = 0.455789
        26        30        29        45     9      180.000000        1.000876         4    ;  uncertainty k = 0.455415
        27        24        23        42     9        0.000000        0.066587         1    ;  uncertainty k = 0.147605
        27        24        23        42     9      180.000000       10.656674         2    ;  uncertainty k = 0.220125
        27        24        23        42     9        0.000000        1.247685         3    ;  uncertainty k = 0.448054
        27        24        23        42     9      180.000000        1.681779         4    ;  uncertainty k = 0.143237
        27        26        25        44     9        0.000000       -0.201483         1    ;  uncertainty k = 0.381932
        27        26        25        44     9      180.000000        6.458988         2    ;  uncertainty k = 0.701512
        27        26        25        44     9        0.000000        1.195935         3    ;  uncertainty k = 0.299118
        27        26        25        44     9      180.000000        1.342905         4    ;  uncertainty k = 0.126493
        27        26        30        29     9        0.000000       -0.200021         1    ;  uncertainty k = 0.956781
        27        26        30        29     9      180.000000       13.058465         2    ;  uncertainty k = 0.777349
        27        26        30        29     9        0.000000       -2.893639         3    ;  uncertainty k = 0.849971
        27        26        30        29     9      180.000000        1.654085         4    ;  uncertainty k = 0.378162
        27        28        29        30     9        0.000000       -0.343243         1    ;  uncertainty k = 0.579145
        27        28        29        30     9      180.000000       17.384728         2    ;  uncertainty k = 0.726338
        27        28        29        30     9        0.000000       -8.969603         3    ;  uncertainty k = 1.828648
        27        28        29        30     9      180.000000        1.356583         4    ;  uncertainty k = 0.818797
        27        28        29        45     9        0.000000        1.081105         1    ;  uncertainty k = 1.056451
        27        28        29        45     9      180.000000        8.586189         2    ;  uncertainty k = 0.483180
        27        28        29        45     9        0.000000        0.445837         3    ;  uncertainty k = 0.525386
        27        28        29        45     9      180.000000        0.219315         4    ;  uncertainty k = 0.363053
        28        27        24        43     9        0.000000        0.209259         1    ;  uncertainty k = 0.514490
        28        27        24        43     9      180.000000        4.950652         2    ;  uncertainty k = 0.786551
        28        27        24        43     9        0.000000        0.896399         3    ;  uncertainty k = 0.210696
        28        27        24        43     9      180.000000        0.632498         4    ;  uncertainty k = 0.195082
        28        27        26        30     9        0.000000        0.346670         1    ;  uncertainty k = 0.625408
        28        27        26        30     9      180.000000       13.366501         2    ;  uncertainty k = 0.905058
        28        27        26        30     9        0.000000       -1.455894         3    ;  uncertainty k = 0.555270
        28        27        26        30     9      180.000000        1.301943         4    ;  uncertainty k = 0.589935
        30        26        25        44     9        0.000000       -0.247649         1    ;  uncertainty k = 0.854340
        30        26        25        44     9      180.000000        6.972119         2    ;  uncertainty k = 0.738458
        30        26        25        44     9        0.000000        1.157161         3    ;  uncertainty k = 0.401158
        30        26        25        44     9      180.000000        1.197931         4    ;  uncertainty k = 0.245517
        33         8         9        34     9        0.000000       -0.152652         1    ;  uncertainty k = 0.805688
        33         8         9        34     9      180.000000        5.398109         2    ;  uncertainty k = 0.723628
        33         8         9        34     9        0.000000        0.147471         3    ;  uncertainty k = 0.248173
        33         8         9        34     9      180.000000        0.216442         4    ;  uncertainty k = 0.153410
        36        14        15        37     9        0.000000       -0.307960         1    ;  uncertainty k = 0.440102
        36        14        15        37     9      180.000000        6.502710         2    ;  uncertainty k = 0.379418
        36        14        15        37     9        0.000000       -0.130867         3    ;  uncertainty k = 0.246878
        36        14        15        37     9      180.000000        0.283979         4    ;  uncertainty k = 0.141774
        42        23        24        43     9        0.000000       -0.103685         1    ;  uncertainty k = 0.168541
        42        23        24        43     9      180.000000        7.805996         2    ;  uncertainty k = 0.407394
        42        23        24        43     9        0.000000       -0.360815         3    ;  uncertainty k = 0.227082
        42        23        24        43     9      180.000000        0.171200         4    ;  uncertainty k = 0.138378

[ dihedrals ] ; impropers
;       ai        aj        ak        al funct           phase               k        pn
         1         4         6        22     4      180.000000       17.835986         2    ;  uncertainty k = 0.107399
         1         6        22         4     4      180.000000       17.835986         2    ;  uncertainty k = 0.107399
         1        22         4         6     4      180.000000       17.835986         2    ;  uncertainty k = 0.107399
         2         3         5        31     4      180.000000        2.538906         2    ;  uncertainty k = 0.373106
         2         5        31         3     4      180.000000        2.538906         2    ;  uncertainty k = 0.373106
         2        31         3         5     4      180.000000        2.538906         2    ;  uncertainty k = 0.373106
         3         2         4        21     4      180.000000       20.686970         2    ;  uncertainty k = 0.060627
         3         4        21         2     4      180.000000       20.686970         2    ;  uncertainty k = 0.060627
         3        21         2         4     4      180.000000       20.686970         2    ;  uncertainty k = 0.060627
         4         1         3        32     4      180.000000        3.072332         2    ;  uncertainty k = 0.374207
         4         3        32         1     4      180.000000        3.072332         2    ;  uncertainty k = 0.374207
         4        32         1         3     4      180.000000        3.072332         2    ;  uncertainty k = 0.374207
         5         2         6        10     4      180.000000       18.442493         2    ;  uncertainty k = 0.055238
         5         6        10         2     4      180.000000       18.442493         2    ;  uncertainty k = 0.055238
         5        10         2         6     4      180.000000       18.442493         2    ;  uncertainty k = 0.055238
         6         1         5         7     4      180.000000       16.619254         2    ;  uncertainty k = 0.086962
         6         5         7         1     4      180.000000       16.619254         2    ;  uncertainty k = 0.086962
         6         7         1         5     4      180.000000       16.619254         2    ;  uncertainty k = 0.086962
         8         7         9        33     4      180.000000       12.058352         2    ;  uncertainty k = 0.155869
         8         9        33         7     4      180.000000       12.058352         2    ;  uncertainty k = 0.155869
         8        33         7         9     4      180.000000       12.058352         2    ;  uncertainty k = 0.155869
         9         8        10        34     4      180.000000       11.948848         2    ;  uncertainty k = 0.101429
         9        10        34         8     4      180.000000       11.948848         2    ;  uncertainty k = 0.101429
         9        34         8        10     4      180.000000       11.948848         2    ;  uncertainty k = 0.101429
        11        12        16        21     4      180.000000       22.010768         2    ;  uncertainty k = 0.077536
        11        16        21        12     4      180.000000       22.010768         2    ;  uncertainty k = 0.077536
        11        21        12        16     4      180.000000       22.010768         2    ;  uncertainty k = 0.077536
        12        11        13        35     4      180.000000       10.900441         2    ;  uncertainty k = 0.192114
        12        13        35        11     4      180.000000       10.900441         2    ;  uncertainty k = 0.192114
        12        35        11        13     4      180.000000       10.900441         2    ;  uncertainty k = 0.192114
        14        13        15        36     4      180.000000       11.385377         2    ;  uncertainty k = 0.107036
        14        15        36        13     4      180.000000       11.385377         2    ;  uncertainty k = 0.107036
        14        36        13        15     4      180.000000       11.385377         2    ;  uncertainty k = 0.107036
        15        14        16        37     4      180.000000        4.322240         2    ;  uncertainty k = 0.262313
        15        16        37        14     4      180.000000        4.322240         2    ;  uncertainty k = 0.262313
        15        37        14        16     4      180.000000        4.322240         2    ;  uncertainty k = 0.262313
        16        11        15        17     4      180.000000        5.945003         2    ;  uncertainty k = 0.459977
        16        15        17        11     4      180.000000        5.945003         2    ;  uncertainty k = 0.459977
        16        17        11        15     4      180.000000        5.945003         2    ;  uncertainty k = 0.459977
        21         3        11        41     4      180.000000        1.379952         2    ;  uncertainty k = 1.192014
        21        11        41         3     4      180.000000        1.379952         2    ;  uncertainty k = 1.192014
        21        41         3        11     4      180.000000        1.379952         2    ;  uncertainty k = 1.192014
        22         1        23        25     4      180.000000       13.168757         2    ;  uncertainty k = 0.133284
        22        23        25         1     4      180.000000       13.168757         2    ;  uncertainty k = 0.133284
        22        25         1        23     4      180.000000       13.168757         2    ;  uncertainty k = 0.133284
        23        22        24        42     4      180.000000        3.893717         2    ;  uncertainty k = 0.200344
        23        24        42        22     4      180.000000        3.893717         2    ;  uncertainty k = 0.200344
        23        42        22        24     4      180.000000        3.893717         2    ;  uncertainty k = 0.200344
        24        23        27        43     4      180.000000        3.999442         2    ;  uncertainty k = 0.085134
        24        27        43        23     4      180.000000        3.999442         2    ;  uncertainty k = 0.085134
        24        43        23        27     4      180.000000        3.999442         2    ;  uncertainty k = 0.085134
        25        22        26        44     4      180.000000        3.723551         2    ;  uncertainty k = 0.363824
        25        26        44        22     4      180.000000        3.723551         2    ;  uncertainty k = 0.363824
        25        44        22        26     4      180.000000        3.723551         2    ;  uncertainty k = 0.363824
        26        25        27        30     4      180.000000        4.369013         2    ;  uncertainty k = 0.413601
        26        27        30        25     4      180.000000        4.369013         2    ;  uncertainty k = 0.413601
        26        30        25        27     4      180.000000        4.369013         2    ;  uncertainty k = 0.413601
        27        24        26        28     4      180.000000        0.360230         2    ;  uncertainty k = 0.805499
        27        26        28        24     4      180.000000        0.360230         2    ;  uncertainty k = 0.805499
        27        28        24        26     4      180.000000        0.360230         2    ;  uncertainty k = 0.805499
        29        28        30        45     4      180.000000        4.715945         2    ;  uncertainty k = 0.394729
        29        30        45        28     4      180.000000        4.715945         2    ;  uncertainty k = 0.394729
        29        45        28        30     4      180.000000        4.715945         2    ;  uncertainty k = 0.394729

[ pairs ]
;       ai        aj funct
         1         2     1
         1         8     1
         1        10     1
         1        21     1
         1        24     1
         1        26     1
         1        42     1
         1        44     1
         2         7     1
         2         9     1
         2        11     1
         2        32     1
         2        41     1
         3         6     1
         3        10     1
         3        12     1
         3        16     1
         3        22     1
         4         5     1
         4         7     1
         4        11     1
         4        23     1
         4        25     1
         4        31     1
         4        41     1
         5         8     1
         5        21     1
         5        22     1
         5        34     1
         6         9     1
         6        23     1
         6        25     1
         6        31     1
         6        32     1
         6        33     1
         7        10     1
         7        22     1
         7        34     1
        10        31     1
        10        33     1
        11        14     1
        11        18     1
        11        19     1
        11        20     1
        11        37     1
        12        15     1
        12        17     1
        12        36     1
        12        41     1
        13        16     1
        13        21     1
        13        37     1
        14        17     1
        14        35     1
        15        18     1
        15        19     1
        15        20     1
        15        21     1
        16        35     1
        16        36     1
        16        38     1
        16        39     1
        16        40     1
        16        41     1
        17        21     1
        17        37     1
        18        38     1
        18        39     1
        18        40     1
        20        38     1
        20        39     1
        20        40     1
        21        31     1
        21        32     1
        21        35     1
        22        27     1
        22        30     1
        22        32     1
        22        43     1
        23        26     1
        23        28     1
        23        44     1
        24        25     1
        24        29     1
        24        30     1
        25        28     1
        25        29     1
        25        42     1
        26        43     1
        26        45     1
        27        42     1
        27        44     1
        27        45     1
        28        43     1
        30        44     1
        33        34     1
        36        37     1
        42        43     1
