; ITP file created by ByteFF-joint-25, 2026-02-17 09:30:41.839359

[ atomtypes ]
;name           bonded.type        at.num        mass        charge   ptype           sigma         epsilon
 c0bf                                   6      0.0000       0.00000       A     3.31509e-01     4.13539e-01    ;  uncertainty sigma = 0.000009, epsilon = 0.000465
 c1bf                                   6      0.0000       0.00000       A     3.31538e-01     4.13732e-01    ;  uncertainty sigma = 0.000012, epsilon = 0.001772
 c2bf                                   6      0.0000       0.00000       A     3.31496e-01     4.13470e-01    ;  uncertainty sigma = 0.000006, epsilon = 0.000742
 c3bf                                   6      0.0000       0.00000       A     3.31486e-01     4.12638e-01    ;  uncertainty sigma = 0.000012, epsilon = 0.000886
 c4bf                                   6      0.0000       0.00000       A     3.31516e-01     4.13470e-01    ;  uncertainty sigma = 0.000011, epsilon = 0.000986
 c5bf                                   6      0.0000       0.00000       A     3.31519e-01     4.13020e-01    ;  uncertainty sigma = 0.000010, epsilon = 0.001115
 n6bf                                   7      0.0000       0.00000       A     3.38415e-01     3.93854e-01    ;  uncertainty sigma = 0.000010, epsilon = 0.001066
 c7bf                                   6      0.0000       0.00000       A     3.31531e-01     4.13178e-01    ;  uncertainty sigma = 0.000013, epsilon = 0.000482
 c8bf                                   6      0.0000       0.00000       A     3.31530e-01     4.13238e-01    ;  uncertainty sigma = 0.000010, epsilon = 0.000599
 n9bf                                   7      0.0000       0.00000       A     3.38414e-01     3.93827e-01    ;  uncertainty sigma = 0.000003, epsilon = 0.000862
 c10bf                                  6      0.0000       0.00000       A     3.31495e-01     4.13137e-01    ;  uncertainty sigma = 0.000016, epsilon = 0.000902
 n11bf                                  7      0.0000       0.00000       A     3.27956e-01     6.47518e-01    ;  uncertainty sigma = 0.000036, epsilon = 0.003822
 c12bf                                  6      0.0000       0.00000       A     3.31516e-01     4.13402e-01    ;  uncertainty sigma = 0.000004, epsilon = 0.000427
 c13bf                                  6      0.0000       0.00000       A     3.31537e-01     4.13460e-01    ;  uncertainty sigma = 0.000002, epsilon = 0.000613
 c14bf                                  6      0.0000       0.00000       A     3.31520e-01     4.13178e-01    ;  uncertainty sigma = 0.000011, epsilon = 0.000494
 c15bf                                  6      0.0000       0.00000       A     3.31518e-01     4.13332e-01    ;  uncertainty sigma = 0.000016, epsilon = 0.000946
 c16bf                                  6      0.0000       0.00000       A     3.31524e-01     4.12632e-01    ;  uncertainty sigma = 0.000005, epsilon = 0.001104
 s17bf                                 16      0.0000       0.00000       A     3.53237e-01     1.18187e+00    ;  uncertainty sigma = 0.000014, epsilon = 0.001561
 c18bf                                  6      0.0000       0.00000       A     3.31502e-01     4.13100e-01    ;  uncertainty sigma = 0.000016, epsilon = 0.000680
 c19bf                                  6      0.0000       0.00000       A     3.31507e-01     4.13290e-01    ;  uncertainty sigma = 0.000005, epsilon = 0.000486
 c20bf                                  6      0.0000       0.00000       A     3.39787e-01     4.50950e-01    ;  uncertainty sigma = 0.000004, epsilon = 0.000306
 c21bf                                  6      0.0000       0.00000       A     3.31502e-01     4.13462e-01    ;  uncertainty sigma = 0.000018, epsilon = 0.002180
 c22bf                                  6      0.0000       0.00000       A     3.31501e-01     4.13078e-01    ;  uncertainty sigma = 0.000025, epsilon = 0.001598
 c23bf                                  6      0.0000       0.00000       A     3.31518e-01     4.13124e-01    ;  uncertainty sigma = 0.000015, epsilon = 0.000361
 c24bf                                  6      0.0000       0.00000       A     3.31513e-01     4.13350e-01    ;  uncertainty sigma = 0.000011, epsilon = 0.000728
 n25bf                                  7      0.0000       0.00000       A     3.38420e-01     3.93806e-01    ;  uncertainty sigma = 0.000013, epsilon = 0.000882
 c26bf                                  6      0.0000       0.00000       A     3.31533e-01     4.13419e-01    ;  uncertainty sigma = 0.000012, epsilon = 0.000931
 s27bf                                 16      0.0000       0.00000       A     4.05775e-01     2.56505e-01    ;  uncertainty sigma = 0.000009, epsilon = 0.002944
 c28bf                                  6      0.0000       0.00000       A     3.39790e-01     4.50653e-01    ;  uncertainty sigma = 0.000003, epsilon = 0.000848
 o29bf                                  8      0.0000       0.00000       A     3.04808e-01     6.12058e-01    ;  uncertainty sigma = 0.000011, epsilon = 0.001075
 o30bf                                  8      0.0000       0.00000       A     3.04808e-01     6.12058e-01    ;  uncertainty sigma = 0.000011, epsilon = 0.001075
 h31bf                                  1      0.0000       0.00000       A     2.62540e-01     6.71221e-02    ;  uncertainty sigma = 0.000022, epsilon = 0.000645
 h32bf                                  1      0.0000       0.00000       A     2.62566e-01     6.71158e-02    ;  uncertainty sigma = 0.000015, epsilon = 0.000400
 h33bf                                  1      0.0000       0.00000       A     2.53628e-01     6.69333e-02    ;  uncertainty sigma = 0.000020, epsilon = 0.000763
 h34bf                                  1      0.0000       0.00000       A     2.53628e-01     6.69333e-02    ;  uncertainty sigma = 0.000020, epsilon = 0.000763
 h35bf                                  1      0.0000       0.00000       A     1.10720e-01     4.14040e-02    ;  uncertainty sigma = 0.000106, epsilon = 0.001477
 h36bf                                  1      0.0000       0.00000       A     2.62566e-01     6.70683e-02    ;  uncertainty sigma = 0.000012, epsilon = 0.000548
 h37bf                                  1      0.0000       0.00000       A     2.62573e-01     6.69811e-02    ;  uncertainty sigma = 0.000016, epsilon = 0.000512
 h38bf                                  1      0.0000       0.00000       A     2.62557e-01     6.71683e-02    ;  uncertainty sigma = 0.000019, epsilon = 0.000354
 h39bf                                  1      0.0000       0.00000       A     2.53684e-01     6.71447e-02    ;  uncertainty sigma = 0.000024, epsilon = 0.000401
 h40bf                                  1      0.0000       0.00000       A     2.60023e-01     8.67735e-02    ;  uncertainty sigma = 0.000009, epsilon = 0.000394
 h41bf                                  1      0.0000       0.00000       A     2.60023e-01     8.67735e-02    ;  uncertainty sigma = 0.000009, epsilon = 0.000394
 h42bf                                  1      0.0000       0.00000       A     2.60023e-01     8.67735e-02    ;  uncertainty sigma = 0.000009, epsilon = 0.000394
 h43bf                                  1      0.0000       0.00000       A     2.62533e-01     6.70950e-02    ;  uncertainty sigma = 0.000019, epsilon = 0.000754
 h44bf                                  1      0.0000       0.00000       A     2.53633e-01     6.70304e-02    ;  uncertainty sigma = 0.000014, epsilon = 0.000494
 h45bf                                  1      0.0000       0.00000       A     2.53624e-01     6.69778e-02    ;  uncertainty sigma = 0.000049, epsilon = 0.000568
 h46bf                                  1      0.0000       0.00000       A     2.42167e-01     8.68276e-02    ;  uncertainty sigma = 0.000012, epsilon = 0.000620
 h47bf                                  1      0.0000       0.00000       A     2.42167e-01     8.68276e-02    ;  uncertainty sigma = 0.000012, epsilon = 0.000620
 h48bf                                  1      0.0000       0.00000       A     2.42167e-01     8.68274e-02    ;  uncertainty sigma = 0.000012, epsilon = 0.000620

[ moleculetype ]
;name             nrexcl
 MOL                   3

[ atoms ]
;       nr            type      resi   res      atom      cgnr      charge          mass ; qtot
         1            c0bf         1   UNL        c0         1    -0.22162       12.0110 ; qtot   -0.222
         2            c1bf         1   UNL        c1         2     0.17400       12.0110 ; qtot   -0.048
         3            c2bf         1   UNL        c2         3    -0.16147       12.0110 ; qtot   -0.209
         4            c3bf         1   UNL        c3         4    -0.02739       12.0110 ; qtot   -0.236
         5            c4bf         1   UNL        c4         5     0.32361       12.0110 ; qtot    0.087
         6            c5bf         1   UNL        c5         6     0.27449       12.0110 ; qtot    0.362
         7            n6bf         1   UNL        n6         7    -0.61815       14.0070 ; qtot   -0.257
         8            c7bf         1   UNL        c7         8     0.29560       12.0110 ; qtot    0.039
         9            c8bf         1   UNL        c8         9     0.29621       12.0110 ; qtot    0.335
        10            n9bf         1   UNL        n9        10    -0.62862       14.0070 ; qtot   -0.293
        11           c10bf         1   UNL       c10        11    -0.04028       12.0110 ; qtot   -0.334
        12           n11bf         1   UNL       n11        12    -0.64735       14.0070 ; qtot   -0.981
        13           c12bf         1   UNL       c12        13    -0.10021       12.0110 ; qtot   -1.081
        14           c13bf         1   UNL       c13        14    -0.10422       12.0110 ; qtot   -1.185
        15           c14bf         1   UNL       c14        15    -0.06973       12.0110 ; qtot   -1.255
        16           c15bf         1   UNL       c15        16    -0.07402       12.0110 ; qtot   -1.329
        17           c16bf         1   UNL       c16        17    -0.01865       12.0110 ; qtot   -1.348
        18           s17bf         1   UNL       s17        18    -0.10285       32.0670 ; qtot   -1.451
        19           c18bf         1   UNL       c18        19    -0.09186       12.0110 ; qtot   -1.543
        20           c19bf         1   UNL       c19        20    -0.06622       12.0110 ; qtot   -1.609
        21           c20bf         1   UNL       c20        21    -0.03302       12.0110 ; qtot   -1.642
        22           c21bf         1   UNL       c21        22     0.15628       12.0110 ; qtot   -1.485
        23           c22bf         1   UNL       c22        23    -0.26398       12.0110 ; qtot   -1.749
        24           c23bf         1   UNL       c23        24    -0.13704       12.0110 ; qtot   -1.886
        25           c24bf         1   UNL       c24        25     0.35581       12.0110 ; qtot   -1.531
        26           n25bf         1   UNL       n25        26    -0.60182       14.0070 ; qtot   -2.133
        27           c26bf         1   UNL       c26        27     0.33325       12.0110 ; qtot   -1.799
        28           s27bf         1   UNL       s27        28     1.01656       32.0670 ; qtot   -0.783
        29           c28bf         1   UNL       c28        29    -0.18352       12.0110 ; qtot   -0.966
        30           o29bf         1   UNL       o29        30    -0.58472       15.9990 ; qtot   -1.551
        31           o30bf         1   UNL       o30        31    -0.58472       15.9990 ; qtot   -2.136
        32           h31bf         1   UNL       h31        32     0.15776        1.0080 ; qtot   -1.978
        33           h32bf         1   UNL       h32        33     0.14719        1.0080 ; qtot   -1.831
        34           h33bf         1   UNL       h33        34     0.03380        1.0080 ; qtot   -1.797
        35           h34bf         1   UNL       h34        35     0.03331        1.0080 ; qtot   -1.764
        36           h35bf         1   UNL       h35        36     0.47844        1.0080 ; qtot   -1.285
        37           h36bf         1   UNL       h36        37     0.14033        1.0080 ; qtot   -1.145
        38           h37bf         1   UNL       h37        38     0.14284        1.0080 ; qtot   -1.002
        39           h38bf         1   UNL       h38        39     0.14360        1.0080 ; qtot   -0.858
        40           h39bf         1   UNL       h39        40     0.16539        1.0080 ; qtot   -0.693
        41           h40bf         1   UNL       h40        41     0.04655        1.0080 ; qtot   -0.646
        42           h41bf         1   UNL       h41        42     0.04655        1.0080 ; qtot   -0.600
        43           h42bf         1   UNL       h42        43     0.04655        1.0080 ; qtot   -0.553
        44           h43bf         1   UNL       h43        44     0.16807        1.0080 ; qtot   -0.385
        45           h44bf         1   UNL       h44        45     0.03424        1.0080 ; qtot   -0.351
        46           h45bf         1   UNL       h45        46     0.03967        1.0080 ; qtot   -0.311
        47           h46bf         1   UNL       h46        47     0.10378        1.0080 ; qtot   -0.208
        48           h47bf         1   UNL       h47        48     0.10378        1.0080 ; qtot   -0.104
        49           h48bf         1   UNL       h48        49     0.10380        1.0080 ; qtot   -0.000

[ bonds ]
;       ai        aj funct               r               k
         1         2     1        0.138770   381943.478027    ;  uncertainty r = 0.000111, k = 9.337643
         1         5     1        0.141431   396079.468311    ;  uncertainty r = 0.000094, k = 15.205670
         1        32     1        0.108811   340366.765625    ;  uncertainty r = 0.000031, k = 1.855831
         2         3     1        0.142004   351951.215625    ;  uncertainty r = 0.000218, k = 13.007858
         2        12     1        0.141414   345942.921143    ;  uncertainty r = 0.000097, k = 12.910230
         3         4     1        0.138022   347839.204736    ;  uncertainty r = 0.000147, k = 17.368791
         3        33     1        0.108883   338510.268848    ;  uncertainty r = 0.000020, k = 3.739164
         4         6     1        0.143106   309431.392236    ;  uncertainty r = 0.000128, k = 17.252708
         4        11     1        0.148156   281764.002734    ;  uncertainty r = 0.000085, k = 15.439627
         5         6     1        0.142995   298655.600342    ;  uncertainty r = 0.000072, k = 15.498948
         5        10     1        0.136382   355171.598340    ;  uncertainty r = 0.000057, k = 8.738544
         6         7     1        0.135767   353109.910889    ;  uncertainty r = 0.000088, k = 12.675249
         7         8     1        0.131584   437137.956152    ;  uncertainty r = 0.000061, k = 11.801030
         8         9     1        0.141378   325245.374902    ;  uncertainty r = 0.000067, k = 16.241067
         8        34     1        0.109180   341408.015723    ;  uncertainty r = 0.000031, k = 1.111543
         9        10     1        0.131606   448634.967090    ;  uncertainty r = 0.000067, k = 6.059784
         9        35     1        0.109175   341608.175586    ;  uncertainty r = 0.000026, k = 2.358932
        11        13     1        0.141449   337736.468896    ;  uncertainty r = 0.000143, k = 1.386499
        11        15     1        0.139344   346045.810156    ;  uncertainty r = 0.000070, k = 3.597751
        12        22     1        0.139103   334487.356934    ;  uncertainty r = 0.000264, k = 9.014074
        12        36     1        0.101492   409720.242969    ;  uncertainty r = 0.000088, k = 5.983733
        13        14     1        0.138756   367883.179736    ;  uncertainty r = 0.000045, k = 2.706220
        13        37     1        0.108743   334439.219482    ;  uncertainty r = 0.000020, k = 1.685865
        14        17     1        0.139813   364221.439160    ;  uncertainty r = 0.000049, k = 1.768328
        14        38     1        0.108827   335500.541748    ;  uncertainty r = 0.000032, k = 1.767565
        15        16     1        0.140336   359539.874121    ;  uncertainty r = 0.000096, k = 9.814823
        15        39     1        0.108788   334764.281348    ;  uncertainty r = 0.000028, k = 1.403548
        16        17     1        0.141550   357824.623096    ;  uncertainty r = 0.000037, k = 6.991440
        16        20     1        0.145110   249052.727686    ;  uncertainty r = 0.000031, k = 21.717330
        17        18     1        0.175395   178823.646704    ;  uncertainty r = 0.000066, k = 6.381162
        18        19     1        0.175266   174981.984424    ;  uncertainty r = 0.000090, k = 5.026042
        19        20     1        0.136397   412454.296973    ;  uncertainty r = 0.000054, k = 10.805915
        19        40     1        0.108467   341415.140576    ;  uncertainty r = 0.000030, k = 1.198890
        20        21     1        0.150446   247353.207520    ;  uncertainty r = 0.000035, k = 6.030135
        21        41     1        0.109512   309722.004541    ;  uncertainty r = 0.000011, k = 1.228316
        21        42     1        0.109512   309722.004541    ;  uncertainty r = 0.000011, k = 1.228316
        21        43     1        0.109512   309722.004541    ;  uncertainty r = 0.000011, k = 1.228316
        22        23     1        0.141356   348414.581348    ;  uncertainty r = 0.000198, k = 15.946803
        22        27     1        0.140927   340447.922559    ;  uncertainty r = 0.000113, k = 16.488676
        23        24     1        0.138845   368349.231982    ;  uncertainty r = 0.000202, k = 14.185258
        23        28     1        0.180205   137177.881958    ;  uncertainty r = 0.000181, k = 18.369787
        24        25     1        0.139170   363105.058887    ;  uncertainty r = 0.000048, k = 3.861470
        24        44     1        0.108610   333138.767725    ;  uncertainty r = 0.000052, k = 1.956154
        25        26     1        0.133802   397972.278857    ;  uncertainty r = 0.000074, k = 5.323613
        25        45     1        0.108994   339519.240039    ;  uncertainty r = 0.000025, k = 1.411834
        26        27     1        0.132524   387119.441504    ;  uncertainty r = 0.000108, k = 11.004603
        27        46     1        0.108905   336131.001904    ;  uncertainty r = 0.000101, k = 3.724287
        28        29     1        0.181050   174448.769580    ;  uncertainty r = 0.000039, k = 9.209376
        28        30     1        0.147757   507438.196289    ;  uncertainty r = 0.000058, k = 6.198354
        28        31     1        0.147757   507438.196289    ;  uncertainty r = 0.000058, k = 6.198354
        29        47     1        0.109286   321567.954541    ;  uncertainty r = 0.000031, k = 1.364971
        29        48     1        0.109286   321567.954541    ;  uncertainty r = 0.000031, k = 1.364971
        29        49     1        0.109286   321567.954541    ;  uncertainty r = 0.000031, k = 1.364974

[ angles ]
;       ai        aj        ak funct           theta             cth
         1         2         3     1      119.362228      387.607800    ;  uncertainty theta = 0.003782, k = 0.067189
         1         2        12     1      122.010719      487.333915    ;  uncertainty theta = 0.006482, k = 0.189293
         1         5         6     1      119.517235      392.036797    ;  uncertainty theta = 0.005326, k = 0.191059
         1         5        10     1      122.312637      528.712396    ;  uncertainty theta = 0.003351, k = 0.210335
         2         1         5     1      118.206688      518.635644    ;  uncertainty theta = 0.002447, k = 0.073028
         2         1        32     1      121.438538      270.401885    ;  uncertainty theta = 0.001365, k = 0.142095
         2         3         4     1      122.346519      516.915975    ;  uncertainty theta = 0.004536, k = 0.263180
         2         3        33     1      119.369408      284.883278    ;  uncertainty theta = 0.005054, k = 0.124449
         2        12        22     1      115.247620      387.593978    ;  uncertainty theta = 0.002924, k = 0.212980
         2        12        36     1      115.334732      382.605049    ;  uncertainty theta = 0.007384, k = 0.160727
         3         2        12     1      120.277283      500.376100    ;  uncertainty theta = 0.004774, k = 0.343101
         3         4         6     1      121.174706      456.942233    ;  uncertainty theta = 0.004288, k = 0.139383
         3         4        11     1      120.980118      424.255659    ;  uncertainty theta = 0.003738, k = 0.150512
         4         3        33     1      118.738869      277.905358    ;  uncertainty theta = 0.005212, k = 0.048751
         4         6         5     1      120.770729      399.289368    ;  uncertainty theta = 0.005718, k = 0.089682
         4         6         7     1      118.048363      466.146382    ;  uncertainty theta = 0.004180, k = 0.231913
         4        11        13     1      120.094460      399.550102    ;  uncertainty theta = 0.003001, k = 0.100100
         4        11        15     1      120.239883      392.258874    ;  uncertainty theta = 0.002053, k = 0.161818
         5         1        32     1      120.837975      275.673543    ;  uncertainty theta = 0.003390, k = 0.103595
         5         6         7     1      119.722855      514.456752    ;  uncertainty theta = 0.004269, k = 0.061580
         5        10         9     1      114.458984      488.266148    ;  uncertainty theta = 0.001996, k = 0.147683
         6         4        11     1      119.092430      397.169788    ;  uncertainty theta = 0.004577, k = 0.241398
         6         5        10     1      119.243858      555.279545    ;  uncertainty theta = 0.007472, k = 0.086368
         6         7         8     1      116.502525      472.887605    ;  uncertainty theta = 0.004302, k = 0.130226
         7         8         9     1      121.240555      622.447314    ;  uncertainty theta = 0.002919, k = 0.205880
         7         8        34     1      116.813492      347.959523    ;  uncertainty theta = 0.001638, k = 0.087624
         8         9        10     1      120.931259      612.842998    ;  uncertainty theta = 0.002470, k = 0.239696
         8         9        35     1      121.868530      283.534439    ;  uncertainty theta = 0.002376, k = 0.096063
         9         8        34     1      121.994606      282.804174    ;  uncertainty theta = 0.002439, k = 0.090842
        10         9        35     1      116.754013      350.159800    ;  uncertainty theta = 0.001533, k = 0.075385
        11        13        14     1      122.070152      529.023023    ;  uncertainty theta = 0.003058, k = 0.106650
        11        13        37     1      119.164246      283.163545    ;  uncertainty theta = 0.003275, k = 0.077222
        11        15        16     1      120.468185      542.668299    ;  uncertainty theta = 0.005352, k = 0.103254
        11        15        39     1      119.850235      277.945324    ;  uncertainty theta = 0.002232, k = 0.112079
        12        22        23     1      122.762405      517.830842    ;  uncertainty theta = 0.007977, k = 0.368248
        12        22        27     1      118.512817      444.269954    ;  uncertainty theta = 0.006989, k = 0.276229
        13        11        15     1      121.535912      425.967156    ;  uncertainty theta = 0.005080, k = 0.146491
        13        14        17     1      118.158974      516.546709    ;  uncertainty theta = 0.003407, k = 0.132894
        13        14        38     1      120.808762      280.741893    ;  uncertainty theta = 0.001862, k = 0.046009
        14        13        37     1      119.497215      294.921628    ;  uncertainty theta = 0.001884, k = 0.103804
        14        17        16     1      119.373108      391.433962    ;  uncertainty theta = 0.002830, k = 0.149337
        14        17        18     1      127.128822      381.320979    ;  uncertainty theta = 0.002527, k = 0.126859
        15        16        17     1      118.164268      403.523165    ;  uncertainty theta = 0.001433, k = 0.221847
        15        16        20     1      127.817886      374.572000    ;  uncertainty theta = 0.002611, k = 0.149886
        16        15        39     1      120.532089      288.791860    ;  uncertainty theta = 0.002133, k = 0.052871
        16        17        18     1      110.592308      488.717516    ;  uncertainty theta = 0.001817, k = 0.273547
        16        20        19     1      112.392654      612.836678    ;  uncertainty theta = 0.002900, k = 0.114735
        16        20        21     1      122.490990      375.030391    ;  uncertainty theta = 0.001483, k = 0.094815
        17        14        38     1      122.573959      296.740796    ;  uncertainty theta = 0.002466, k = 0.066467
        17        16        20     1      112.797562      593.428922    ;  uncertainty theta = 0.004232, k = 0.210289
        17        18        19     1       90.304092     1162.788990    ;  uncertainty theta = 0.002937, k = 0.126727
        18        19        20     1      114.196915      579.241972    ;  uncertainty theta = 0.002611, k = 0.159887
        18        19        40     1      116.755531      246.447199    ;  uncertainty theta = 0.002685, k = 0.114516
        19        20        21     1      124.634689      376.217867    ;  uncertainty theta = 0.002334, k = 0.076621
        20        19        40     1      124.061256      242.355851    ;  uncertainty theta = 0.001875, k = 0.188266
        20        21        41     1      109.876831      407.326279    ;  uncertainty theta = 0.001072, k = 0.069986
        20        21        42     1      109.876831      407.326279    ;  uncertainty theta = 0.001072, k = 0.069986
        20        21        43     1      109.876831      407.326279    ;  uncertainty theta = 0.001072, k = 0.069986
        22        12        36     1      114.408607      380.718399    ;  uncertainty theta = 0.008156, k = 0.169224
        22        23        24     1      123.289940      400.819424    ;  uncertainty theta = 0.003703, k = 0.311812
        22        23        28     1      119.668861      323.012576    ;  uncertainty theta = 0.009862, k = 0.668304
        22        27        26     1      124.922020      667.515332    ;  uncertainty theta = 0.002966, k = 0.161817
        22        27        46     1      118.731201      264.771783    ;  uncertainty theta = 0.008633, k = 0.144655
        23        22        27     1      118.657326      362.619739    ;  uncertainty theta = 0.004612, k = 0.362833
        23        24        25     1      118.808189      483.994172    ;  uncertainty theta = 0.004991, k = 0.079007
        23        24        44     1      119.535904      260.121156    ;  uncertainty theta = 0.004889, k = 0.124125
        23        28        29     1      104.371536      610.740975    ;  uncertainty theta = 0.002610, k = 0.101867
        23        28        30     1      112.903671      607.682204    ;  uncertainty theta = 0.002869, k = 0.171145
        23        28        31     1      112.903671      607.682204    ;  uncertainty theta = 0.002869, k = 0.171145
        24        23        28     1      114.589760      352.518823    ;  uncertainty theta = 0.008187, k = 0.213542
        24        25        26     1      122.431076      677.632560    ;  uncertainty theta = 0.002046, k = 0.093657
        24        25        45     1      120.256371      277.546307    ;  uncertainty theta = 0.002265, k = 0.082404
        25        24        44     1      122.214798      277.736845    ;  uncertainty theta = 0.004016, k = 0.070188
        25        26        27     1      118.268311      445.304685    ;  uncertainty theta = 0.004478, k = 0.098123
        26        25        45     1      116.840332      340.667018    ;  uncertainty theta = 0.001197, k = 0.068775
        26        27        46     1      116.579346      347.314807    ;  uncertainty theta = 0.005152, k = 0.066004
        28        29        47     1      107.113976      366.636120    ;  uncertainty theta = 0.002061, k = 0.075109
        28        29        48     1      107.113976      366.636120    ;  uncertainty theta = 0.002061, k = 0.075109
        28        29        49     1      107.113976      366.636120    ;  uncertainty theta = 0.002061, k = 0.075109
        29        28        30     1      112.603317      748.419703    ;  uncertainty theta = 0.000730, k = 0.122172
        29        28        31     1      112.603317      748.419703    ;  uncertainty theta = 0.000730, k = 0.122172
        30        28        31     1      123.473061      838.268575    ;  uncertainty theta = 0.001927, k = 0.047858
        41        21        42     1      106.588242      318.291594    ;  uncertainty theta = 0.000524, k = 0.039470
        41        21        43     1      106.588242      318.291594    ;  uncertainty theta = 0.000524, k = 0.039470
        42        21        43     1      106.588242      318.291594    ;  uncertainty theta = 0.000524, k = 0.039470
        47        29        48     1      108.843689      296.191780    ;  uncertainty theta = 0.002069, k = 0.023129
        47        29        49     1      108.843689      296.191780    ;  uncertainty theta = 0.002069, k = 0.023129
        48        29        49     1      108.843689      296.191780    ;  uncertainty theta = 0.002069, k = 0.023129

[ dihedrals ] ; propers for gromacs 4.5 or higher, use funct 9
;       ai        aj        ak        al funct           phase               k        pn
         1         2         3         4     9        0.000000       -0.064569         1    ;  uncertainty k = 0.330832
         1         2         3         4     9      180.000000        6.295690         2    ;  uncertainty k = 0.980681
         1         2         3         4     9        0.000000        0.302560         3    ;  uncertainty k = 0.190288
         1         2         3         4     9      180.000000        1.345427         4    ;  uncertainty k = 0.323598
         1         2         3        33     9        0.000000        0.249483         1    ;  uncertainty k = 0.404908
         1         2         3        33     9      180.000000        5.922879         2    ;  uncertainty k = 0.882861
         1         2         3        33     9        0.000000        1.141823         3    ;  uncertainty k = 0.151874
         1         2         3        33     9      180.000000        1.438043         4    ;  uncertainty k = 0.272334
         1         2        12        22     9        0.000000        2.391291         1    ;  uncertainty k = 0.927257
         1         2        12        22     9      180.000000        5.627189         2    ;  uncertainty k = 0.345909
         1         2        12        22     9        0.000000        0.130796         3    ;  uncertainty k = 0.275597
         1         2        12        22     9      180.000000        0.108068         4    ;  uncertainty k = 0.070781
         1         2        12        36     9        0.000000        3.714209         1    ;  uncertainty k = 1.019184
         1         2        12        36     9      180.000000        4.537148         2    ;  uncertainty k = 0.136541
         1         2        12        36     9        0.000000        0.421528         3    ;  uncertainty k = 0.226094
         1         2        12        36     9      180.000000       -0.068004         4    ;  uncertainty k = 0.067047
         1         5         6         4     9        0.000000       -0.705652         1    ;  uncertainty k = 0.517902
         1         5         6         4     9      180.000000        4.628297         2    ;  uncertainty k = 1.525724
         1         5         6         4     9        0.000000        0.275141         3    ;  uncertainty k = 0.293484
         1         5         6         4     9      180.000000        1.238654         4    ;  uncertainty k = 0.358943
         1         5         6         7     9        0.000000        0.076450         1    ;  uncertainty k = 0.284767
         1         5         6         7     9      180.000000        6.080416         2    ;  uncertainty k = 1.149880
         1         5         6         7     9        0.000000        0.106983         3    ;  uncertainty k = 0.156574
         1         5         6         7     9      180.000000        1.373586         4    ;  uncertainty k = 0.405208
         1         5        10         9     9        0.000000        0.427932         1    ;  uncertainty k = 1.029214
         1         5        10         9     9      180.000000       12.638436         2    ;  uncertainty k = 0.318597
         1         5        10         9     9        0.000000        2.227131         3    ;  uncertainty k = 0.470956
         1         5        10         9     9      180.000000        1.437848         4    ;  uncertainty k = 0.260470
         2         1         5         6     9        0.000000        0.121232         1    ;  uncertainty k = 0.458444
         2         1         5         6     9      180.000000        7.195263         2    ;  uncertainty k = 0.794920
         2         1         5         6     9        0.000000        0.037659         3    ;  uncertainty k = 0.279135
         2         1         5         6     9      180.000000        1.290689         4    ;  uncertainty k = 0.271574
         2         1         5        10     9        0.000000        0.146699         1    ;  uncertainty k = 0.428361
         2         1         5        10     9      180.000000        9.787397         2    ;  uncertainty k = 0.378069
         2         1         5        10     9        0.000000        0.568644         3    ;  uncertainty k = 0.286793
         2         1         5        10     9      180.000000        1.391198         4    ;  uncertainty k = 0.231273
         2         3         4         6     9        0.000000        0.010242         1    ;  uncertainty k = 0.541391
         2         3         4         6     9      180.000000       12.439785         2    ;  uncertainty k = 0.423697
         2         3         4         6     9        0.000000        0.369076         3    ;  uncertainty k = 0.233650
         2         3         4         6     9      180.000000        1.284490         4    ;  uncertainty k = 0.327013
         2         3         4        11     9        0.000000        0.168166         1    ;  uncertainty k = 0.185247
         2         3         4        11     9      180.000000       10.406008         2    ;  uncertainty k = 0.682090
         2         3         4        11     9        0.000000        1.341639         3    ;  uncertainty k = 0.288597
         2         3         4        11     9      180.000000        1.710145         4    ;  uncertainty k = 0.305824
         2        12        22        23     9        0.000000        0.589930         1    ;  uncertainty k = 1.531188
         2        12        22        23     9      180.000000        8.272737         2    ;  uncertainty k = 0.309915
         2        12        22        23     9        0.000000       -0.349199         3    ;  uncertainty k = 0.585019
         2        12        22        23     9      180.000000        0.078446         4    ;  uncertainty k = 0.210861
         2        12        22        27     9        0.000000        4.219814         1    ;  uncertainty k = 1.204825
         2        12        22        27     9      180.000000        5.915024         2    ;  uncertainty k = 0.485743
         2        12        22        27     9        0.000000        0.506820         3    ;  uncertainty k = 0.114705
         2        12        22        27     9      180.000000        0.021030         4    ;  uncertainty k = 0.159761
         3         2         1         5     9        0.000000       -0.221710         1    ;  uncertainty k = 0.191086
         3         2         1         5     9      180.000000        9.798197         2    ;  uncertainty k = 0.334095
         3         2         1         5     9        0.000000        0.329470         3    ;  uncertainty k = 0.461908
         3         2         1         5     9      180.000000        1.353768         4    ;  uncertainty k = 0.303960
         3         2         1        32     9        0.000000        0.274319         1    ;  uncertainty k = 0.397236
         3         2         1        32     9      180.000000        7.009104         2    ;  uncertainty k = 0.649588
         3         2         1        32     9        0.000000        1.295657         3    ;  uncertainty k = 0.118445
         3         2         1        32     9      180.000000        1.628271         4    ;  uncertainty k = 0.154579
         3         2        12        22     9        0.000000        2.704330         1    ;  uncertainty k = 1.100884
         3         2        12        22     9      180.000000        5.654041         2    ;  uncertainty k = 0.307786
         3         2        12        22     9        0.000000        0.621214         3    ;  uncertainty k = 0.287960
         3         2        12        22     9      180.000000        0.073947         4    ;  uncertainty k = 0.167406
         3         2        12        36     9        0.000000        3.340433         1    ;  uncertainty k = 0.856254
         3         2        12        36     9      180.000000        4.536996         2    ;  uncertainty k = 0.547944
         3         2        12        36     9        0.000000        0.508739         3    ;  uncertainty k = 0.257942
         3         2        12        36     9      180.000000       -0.053044         4    ;  uncertainty k = 0.129026
         3         4         6         5     9        0.000000       -0.072939         1    ;  uncertainty k = 0.467743
         3         4         6         5     9      180.000000        5.801409         2    ;  uncertainty k = 1.003840
         3         4         6         5     9        0.000000        0.062913         3    ;  uncertainty k = 0.255495
         3         4         6         5     9      180.000000        1.003620         4    ;  uncertainty k = 0.329096
         3         4         6         7     9        0.000000        0.264727         1    ;  uncertainty k = 0.531457
         3         4         6         7     9      180.000000        6.854990         2    ;  uncertainty k = 0.821338
         3         4         6         7     9        0.000000        0.379379         3    ;  uncertainty k = 0.288676
         3         4         6         7     9      180.000000        1.162188         4    ;  uncertainty k = 0.352685
         3         4        11        13     9        0.000000       -0.273839         1    ;  uncertainty k = 0.309563
         3         4        11        13     9      180.000000        5.586246         2    ;  uncertainty k = 0.168731
         3         4        11        13     9        0.000000        0.352029         3    ;  uncertainty k = 0.188199
         3         4        11        13     9      180.000000        0.546113         4    ;  uncertainty k = 0.125433
         3         4        11        15     9        0.000000       -0.642253         1    ;  uncertainty k = 0.427205
         3         4        11        15     9      180.000000        5.346667         2    ;  uncertainty k = 0.257078
         3         4        11        15     9        0.000000        0.535175         3    ;  uncertainty k = 0.167789
         3         4        11        15     9      180.000000        0.499358         4    ;  uncertainty k = 0.104381
         4         3         2        12     9        0.000000        0.285294         1    ;  uncertainty k = 0.723442
         4         3         2        12     9      180.000000        7.672980         2    ;  uncertainty k = 0.508343
         4         3         2        12     9        0.000000        0.807799         3    ;  uncertainty k = 0.275250
         4         3         2        12     9      180.000000        1.632826         4    ;  uncertainty k = 0.117691
         4         6         5        10     9        0.000000       -0.290175         1    ;  uncertainty k = 0.704279
         4         6         5        10     9      180.000000        5.023036         2    ;  uncertainty k = 1.172256
         4         6         5        10     9        0.000000        0.096622         3    ;  uncertainty k = 0.368713
         4         6         5        10     9      180.000000        1.322579         4    ;  uncertainty k = 0.228687
         4         6         7         8     9        0.000000       -0.227015         1    ;  uncertainty k = 0.557917
         4         6         7         8     9      180.000000       12.439193         2    ;  uncertainty k = 0.576485
         4         6         7         8     9        0.000000        2.050237         3    ;  uncertainty k = 0.350661
         4         6         7         8     9      180.000000        1.313646         4    ;  uncertainty k = 0.192427
         4        11        13        14     9        0.000000        0.115850         1    ;  uncertainty k = 0.393227
         4        11        13        14     9      180.000000        7.813164         2    ;  uncertainty k = 0.650838
         4        11        13        14     9        0.000000        1.192558         3    ;  uncertainty k = 0.354276
         4        11        13        14     9      180.000000        1.889470         4    ;  uncertainty k = 0.134089
         4        11        13        37     9        0.000000       -0.177104         1    ;  uncertainty k = 0.053555
         4        11        13        37     9      180.000000        7.306457         2    ;  uncertainty k = 0.458342
         4        11        13        37     9        0.000000        0.788885         3    ;  uncertainty k = 0.229627
         4        11        13        37     9      180.000000        1.160910         4    ;  uncertainty k = 0.213443
         4        11        15        16     9        0.000000        0.086707         1    ;  uncertainty k = 0.472238
         4        11        15        16     9      180.000000       10.779803         2    ;  uncertainty k = 0.518820
         4        11        15        16     9        0.000000        1.496783         3    ;  uncertainty k = 0.164076
         4        11        15        16     9      180.000000        1.717119         4    ;  uncertainty k = 0.199041
         4        11        15        39     9        0.000000       -0.158127         1    ;  uncertainty k = 0.161732
         4        11        15        39     9      180.000000        7.868348         2    ;  uncertainty k = 0.176614
         4        11        15        39     9        0.000000        0.858401         3    ;  uncertainty k = 0.217990
         4        11        15        39     9      180.000000        1.263142         4    ;  uncertainty k = 0.091397
         5         1         2        12     9        0.000000       -0.189602         1    ;  uncertainty k = 0.394614
         5         1         2        12     9      180.000000       11.233635         2    ;  uncertainty k = 0.435509
         5         1         2        12     9        0.000000        0.975271         3    ;  uncertainty k = 0.174800
         5         1         2        12     9      180.000000        1.594279         4    ;  uncertainty k = 0.138016
         5         6         4        11     9        0.000000        0.053943         1    ;  uncertainty k = 0.792195
         5         6         4        11     9      180.000000        4.886342         2    ;  uncertainty k = 0.451483
         5         6         4        11     9        0.000000        1.006483         3    ;  uncertainty k = 0.241188
         5         6         4        11     9      180.000000        1.285312         4    ;  uncertainty k = 0.349186
         5         6         7         8     9        0.000000       -0.112022         1    ;  uncertainty k = 0.910117
         5         6         7         8     9      180.000000       11.596635         2    ;  uncertainty k = 0.629166
         5         6         7         8     9        0.000000        1.457657         3    ;  uncertainty k = 0.287216
         5         6         7         8     9      180.000000        1.330866         4    ;  uncertainty k = 0.318778
         5        10         9         8     9        0.000000        0.013311         1    ;  uncertainty k = 0.131653
         5        10         9         8     9      180.000000       17.231919         2    ;  uncertainty k = 0.196674
         5        10         9         8     9        0.000000        0.888029         3    ;  uncertainty k = 0.629562
         5        10         9         8     9      180.000000        1.519865         4    ;  uncertainty k = 0.234840
         5        10         9        35     9        0.000000        0.424411         1    ;  uncertainty k = 0.517708
         5        10         9        35     9      180.000000       19.045700         2    ;  uncertainty k = 0.443936
         5        10         9        35     9        0.000000        2.354564         3    ;  uncertainty k = 0.582721
         5        10         9        35     9      180.000000        1.407429         4    ;  uncertainty k = 0.336465
         6         4         3        33     9        0.000000        0.128783         1    ;  uncertainty k = 0.270034
         6         4         3        33     9      180.000000        9.570806         2    ;  uncertainty k = 0.356390
         6         4         3        33     9        0.000000        1.474594         3    ;  uncertainty k = 0.149762
         6         4         3        33     9      180.000000        1.670043         4    ;  uncertainty k = 0.172964
         6         4        11        13     9        0.000000        0.184834         1    ;  uncertainty k = 0.728181
         6         4        11        13     9      180.000000        5.067096         2    ;  uncertainty k = 0.275301
         6         4        11        13     9        0.000000        0.385702         3    ;  uncertainty k = 0.273269
         6         4        11        13     9      180.000000        0.754843         4    ;  uncertainty k = 0.057955
         6         4        11        15     9        0.000000        0.308255         1    ;  uncertainty k = 0.687835
         6         4        11        15     9      180.000000        4.836438         2    ;  uncertainty k = 0.320523
         6         4        11        15     9        0.000000        0.178622         3    ;  uncertainty k = 0.356594
         6         4        11        15     9      180.000000        0.704025         4    ;  uncertainty k = 0.110428
         6         5         1        32     9        0.000000       -0.216754         1    ;  uncertainty k = 0.343873
         6         5         1        32     9      180.000000        5.853912         2    ;  uncertainty k = 0.879793
         6         5         1        32     9        0.000000        1.199031         3    ;  uncertainty k = 0.162614
         6         5         1        32     9      180.000000        1.246407         4    ;  uncertainty k = 0.338414
         6         5        10         9     9        0.000000       -0.063178         1    ;  uncertainty k = 1.326752
         6         5        10         9     9      180.000000       10.095142         2    ;  uncertainty k = 0.612694
         6         5        10         9     9        0.000000        1.278116         3    ;  uncertainty k = 0.488029
         6         5        10         9     9      180.000000        1.281711         4    ;  uncertainty k = 0.220795
         6         7         8         9     9        0.000000        0.020377         1    ;  uncertainty k = 0.368422
         6         7         8         9     9      180.000000       16.581266         2    ;  uncertainty k = 0.335688
         6         7         8         9     9        0.000000        0.829256         3    ;  uncertainty k = 0.750676
         6         7         8         9     9      180.000000        1.566270         4    ;  uncertainty k = 0.253962
         6         7         8        34     9        0.000000        0.275900         1    ;  uncertainty k = 0.531876
         6         7         8        34     9      180.000000       18.156242         2    ;  uncertainty k = 0.522836
         6         7         8        34     9        0.000000        2.344022         3    ;  uncertainty k = 0.655907
         6         7         8        34     9      180.000000        1.633482         4    ;  uncertainty k = 0.415921
         7         6         4        11     9        0.000000        0.254327         1    ;  uncertainty k = 1.327535
         7         6         4        11     9      180.000000        7.278334         2    ;  uncertainty k = 0.680315
         7         6         4        11     9        0.000000        0.762070         3    ;  uncertainty k = 0.522054
         7         6         4        11     9      180.000000        1.172140         4    ;  uncertainty k = 0.276457
         7         6         5        10     9        0.000000       -0.400492         1    ;  uncertainty k = 0.890675
         7         6         5        10     9      180.000000        7.087146         2    ;  uncertainty k = 0.720455
         7         6         5        10     9        0.000000        0.077638         3    ;  uncertainty k = 0.327161
         7         6         5        10     9      180.000000        1.330895         4    ;  uncertainty k = 0.356325
         7         8         9        10     9        0.000000       -0.202866         1    ;  uncertainty k = 0.782206
         7         8         9        10     9      180.000000       12.112991         2    ;  uncertainty k = 0.805807
         7         8         9        10     9        0.000000       -1.599825         3    ;  uncertainty k = 0.569696
         7         8         9        10     9      180.000000        0.918172         4    ;  uncertainty k = 0.463986
         7         8         9        35     9        0.000000        0.036887         1    ;  uncertainty k = 0.700692
         7         8         9        35     9      180.000000        6.513920         2    ;  uncertainty k = 1.135261
         7         8         9        35     9        0.000000        0.521732         3    ;  uncertainty k = 0.385188
         7         8         9        35     9      180.000000        1.117821         4    ;  uncertainty k = 0.330142
        10         5         1        32     9        0.000000        0.139927         1    ;  uncertainty k = 0.233388
        10         5         1        32     9      180.000000        8.199302         2    ;  uncertainty k = 0.492393
        10         5         1        32     9        0.000000        1.032825         3    ;  uncertainty k = 0.329116
        10         5         1        32     9      180.000000        1.219854         4    ;  uncertainty k = 0.291231
        10         9         8        34     9        0.000000       -0.033262         1    ;  uncertainty k = 0.634830
        10         9         8        34     9      180.000000        6.504272         2    ;  uncertainty k = 1.136878
        10         9         8        34     9        0.000000        0.521238         3    ;  uncertainty k = 0.433609
        10         9         8        34     9      180.000000        1.070757         4    ;  uncertainty k = 0.343719
        11         4         3        33     9        0.000000        0.143480         1    ;  uncertainty k = 0.254797
        11         4         3        33     9      180.000000        8.451935         2    ;  uncertainty k = 0.265434
        11         4         3        33     9        0.000000        0.987149         3    ;  uncertainty k = 0.146857
        11         4         3        33     9      180.000000        1.382167         4    ;  uncertainty k = 0.314027
        11        13        14        17     9        0.000000       -0.138109         1    ;  uncertainty k = 0.112329
        11        13        14        17     9      180.000000       15.699616         2    ;  uncertainty k = 0.408294
        11        13        14        17     9        0.000000       -0.407819         3    ;  uncertainty k = 0.647332
        11        13        14        17     9      180.000000        0.775841         4    ;  uncertainty k = 0.458785
        11        13        14        38     9        0.000000       -0.009051         1    ;  uncertainty k = 0.205027
        11        13        14        38     9      180.000000        8.626046         2    ;  uncertainty k = 0.468635
        11        13        14        38     9        0.000000        1.380357         3    ;  uncertainty k = 0.212596
        11        13        14        38     9      180.000000        1.915621         4    ;  uncertainty k = 0.315554
        11        15        16        17     9        0.000000       -0.084065         1    ;  uncertainty k = 0.521688
        11        15        16        17     9      180.000000       13.263683         2    ;  uncertainty k = 0.378358
        11        15        16        17     9        0.000000       -1.051941         3    ;  uncertainty k = 0.604127
        11        15        16        17     9      180.000000        0.799599         4    ;  uncertainty k = 0.215353
        11        15        16        20     9        0.000000        0.065651         1    ;  uncertainty k = 0.268497
        11        15        16        20     9      180.000000        9.318370         2    ;  uncertainty k = 0.185651
        11        15        16        20     9        0.000000        0.748693         3    ;  uncertainty k = 0.307415
        11        15        16        20     9      180.000000        1.394972         4    ;  uncertainty k = 0.102870
        12         2         1        32     9        0.000000       -0.570257         1    ;  uncertainty k = 0.225437
        12         2         1        32     9      180.000000        8.036471         2    ;  uncertainty k = 0.539841
        12         2         1        32     9        0.000000        0.826404         3    ;  uncertainty k = 0.259178
        12         2         1        32     9      180.000000        1.188346         4    ;  uncertainty k = 0.226656
        12         2         3        33     9        0.000000       -0.444464         1    ;  uncertainty k = 0.331197
        12         2         3        33     9      180.000000        6.982226         2    ;  uncertainty k = 0.396117
        12         2         3        33     9        0.000000        0.801489         3    ;  uncertainty k = 0.230308
        12         2         3        33     9      180.000000        1.180032         4    ;  uncertainty k = 0.128391
        12        22        23        24     9        0.000000       -0.020827         1    ;  uncertainty k = 0.416439
        12        22        23        24     9      180.000000        7.821353         2    ;  uncertainty k = 0.442938
        12        22        23        24     9        0.000000        1.029526         3    ;  uncertainty k = 0.210996
        12        22        23        24     9      180.000000        1.524188         4    ;  uncertainty k = 0.257372
        12        22        23        28     9        0.000000       -0.506012         1    ;  uncertainty k = 0.475729
        12        22        23        28     9      180.000000        7.636456         2    ;  uncertainty k = 0.879000
        12        22        23        28     9        0.000000        1.159105         3    ;  uncertainty k = 0.332201
        12        22        23        28     9      180.000000        1.400876         4    ;  uncertainty k = 0.254665
        12        22        27        26     9        0.000000        0.284522         1    ;  uncertainty k = 0.937479
        12        22        27        26     9      180.000000        8.701421         2    ;  uncertainty k = 0.854400
        12        22        27        26     9        0.000000        0.836725         3    ;  uncertainty k = 0.185927
        12        22        27        26     9      180.000000        1.496109         4    ;  uncertainty k = 0.299674
        12        22        27        46     9        0.000000        0.007094         1    ;  uncertainty k = 0.499752
        12        22        27        46     9      180.000000        5.972506         2    ;  uncertainty k = 0.983101
        12        22        27        46     9        0.000000        0.942184         3    ;  uncertainty k = 0.273147
        12        22        27        46     9      180.000000        1.158934         4    ;  uncertainty k = 0.246635
        13        11        15        16     9        0.000000        0.008352         1    ;  uncertainty k = 0.284401
        13        11        15        16     9      180.000000       12.896609         2    ;  uncertainty k = 0.397142
        13        11        15        16     9        0.000000       -0.012663         3    ;  uncertainty k = 0.294801
        13        11        15        16     9      180.000000        0.919042         4    ;  uncertainty k = 0.417556
        13        11        15        39     9        0.000000        0.310322         1    ;  uncertainty k = 0.185275
        13        11        15        39     9      180.000000        7.790553         2    ;  uncertainty k = 0.472212
        13        11        15        39     9        0.000000        1.434636         3    ;  uncertainty k = 0.123486
        13        11        15        39     9      180.000000        1.687099         4    ;  uncertainty k = 0.243477
        13        14        17        16     9        0.000000        0.070233         1    ;  uncertainty k = 0.186839
        13        14        17        16     9      180.000000       12.355623         2    ;  uncertainty k = 0.498046
        13        14        17        16     9        0.000000       -1.067161         3    ;  uncertainty k = 0.224939
        13        14        17        16     9      180.000000        0.830931         4    ;  uncertainty k = 0.308948
        13        14        17        18     9        0.000000        0.461353         1    ;  uncertainty k = 0.423037
        13        14        17        18     9      180.000000        8.521791         2    ;  uncertainty k = 0.513103
        13        14        17        18     9        0.000000        1.140268         3    ;  uncertainty k = 0.278535
        13        14        17        18     9      180.000000        1.412726         4    ;  uncertainty k = 0.395132
        14        13        11        15     9        0.000000       -0.051132         1    ;  uncertainty k = 0.166927
        14        13        11        15     9      180.000000       10.172421         2    ;  uncertainty k = 0.266654
        14        13        11        15     9        0.000000       -0.384368         3    ;  uncertainty k = 0.404122
        14        13        11        15     9      180.000000        1.001873         4    ;  uncertainty k = 0.236332
        14        17        16        15     9        0.000000       -0.287592         1    ;  uncertainty k = 0.617197
        14        17        16        15     9      180.000000        9.060042         2    ;  uncertainty k = 0.625651
        14        17        16        15     9        0.000000        0.172877         3    ;  uncertainty k = 0.136712
        14        17        16        15     9      180.000000        0.987442         4    ;  uncertainty k = 0.292957
        14        17        16        20     9        0.000000       -0.040605         1    ;  uncertainty k = 0.378855
        14        17        16        20     9      180.000000        8.329779         2    ;  uncertainty k = 0.319757
        14        17        16        20     9        0.000000        0.458097         3    ;  uncertainty k = 0.378503
        14        17        16        20     9      180.000000        1.266796         4    ;  uncertainty k = 0.259449
        14        17        18        19     9        0.000000       -0.260565         1    ;  uncertainty k = 1.792194
        14        17        18        19     9      180.000000        6.813187         2    ;  uncertainty k = 0.532319
        14        17        18        19     9        0.000000        0.618363         3    ;  uncertainty k = 0.240890
        14        17        18        19     9      180.000000        0.446287         4    ;  uncertainty k = 0.434791
        15        11        13        37     9        0.000000        0.215135         1    ;  uncertainty k = 0.145064
        15        11        13        37     9      180.000000        6.431503         2    ;  uncertainty k = 0.500904
        15        11        13        37     9        0.000000        1.380799         3    ;  uncertainty k = 0.132565
        15        11        13        37     9      180.000000        1.612856         4    ;  uncertainty k = 0.250076
        15        16        17        18     9        0.000000        0.475955         1    ;  uncertainty k = 0.637885
        15        16        17        18     9      180.000000        7.881382         2    ;  uncertainty k = 0.292835
        15        16        17        18     9        0.000000        0.621559         3    ;  uncertainty k = 0.472079
        15        16        17        18     9      180.000000        1.138249         4    ;  uncertainty k = 0.253510
        15        16        20        19     9        0.000000       -0.369495         1    ;  uncertainty k = 1.116285
        15        16        20        19     9      180.000000        5.722735         2    ;  uncertainty k = 0.767984
        15        16        20        19     9        0.000000        0.424256         3    ;  uncertainty k = 0.393765
        15        16        20        19     9      180.000000        0.641472         4    ;  uncertainty k = 0.291395
        15        16        20        21     9        0.000000        0.477225         1    ;  uncertainty k = 0.479832
        15        16        20        21     9      180.000000        5.995522         2    ;  uncertainty k = 0.464352
        15        16        20        21     9        0.000000        1.208455         3    ;  uncertainty k = 0.400807
        15        16        20        21     9      180.000000        0.133791         4    ;  uncertainty k = 0.083790
        16        17        14        38     9        0.000000        0.090339         1    ;  uncertainty k = 0.333894
        16        17        14        38     9      180.000000        6.281803         2    ;  uncertainty k = 0.685394
        16        17        14        38     9        0.000000        1.433210         3    ;  uncertainty k = 0.247978
        16        17        14        38     9      180.000000        1.335956         4    ;  uncertainty k = 0.246424
        16        17        18        19     9        0.000000       -0.587931         1    ;  uncertainty k = 0.977922
        16        17        18        19     9      180.000000       13.278972         2    ;  uncertainty k = 1.137686
        16        17        18        19     9        0.000000       -6.115686         3    ;  uncertainty k = 1.643633
        16        17        18        19     9      180.000000        0.651088         4    ;  uncertainty k = 0.547824
        16        20        19        18     9        0.000000       -0.378653         1    ;  uncertainty k = 0.590007
        16        20        19        18     9      180.000000       19.669907         2    ;  uncertainty k = 0.337890
        16        20        19        18     9        0.000000       -0.985828         3    ;  uncertainty k = 0.634973
        16        20        19        18     9      180.000000        0.972754         4    ;  uncertainty k = 0.540179
        16        20        19        40     9        0.000000        0.045615         1    ;  uncertainty k = 0.185340
        16        20        19        40     9      180.000000       14.237208         2    ;  uncertainty k = 0.140981
        16        20        19        40     9        0.000000        1.885227         3    ;  uncertainty k = 0.319346
        16        20        19        40     9      180.000000        1.107227         4    ;  uncertainty k = 0.197295
        16        20        21        41     9        0.000000       -0.820684         1    ;  uncertainty k = 0.326669
        16        20        21        41     9      180.000000        0.968793         2    ;  uncertainty k = 0.270473
        16        20        21        41     9        0.000000        0.914310         3    ;  uncertainty k = 0.107861
        16        20        21        41     9      180.000000        0.190160         4    ;  uncertainty k = 0.079162
        16        20        21        42     9        0.000000       -0.820684         1    ;  uncertainty k = 0.326669
        16        20        21        42     9      180.000000        0.968793         2    ;  uncertainty k = 0.270473
        16        20        21        42     9        0.000000        0.914310         3    ;  uncertainty k = 0.107861
        16        20        21        42     9      180.000000        0.190160         4    ;  uncertainty k = 0.079162
        16        20        21        43     9        0.000000       -0.820684         1    ;  uncertainty k = 0.326669
        16        20        21        43     9      180.000000        0.968793         2    ;  uncertainty k = 0.270473
        16        20        21        43     9        0.000000        0.914310         3    ;  uncertainty k = 0.107861
        16        20        21        43     9      180.000000        0.190160         4    ;  uncertainty k = 0.079162
        17        14        13        37     9        0.000000        0.052852         1    ;  uncertainty k = 0.133989
        17        14        13        37     9      180.000000       10.824464         2    ;  uncertainty k = 0.323895
        17        14        13        37     9        0.000000        1.266639         3    ;  uncertainty k = 0.410173
        17        14        13        37     9      180.000000        1.657618         4    ;  uncertainty k = 0.174628
        17        16        15        39     9        0.000000       -0.108303         1    ;  uncertainty k = 0.331655
        17        16        15        39     9      180.000000        7.521763         2    ;  uncertainty k = 0.559934
        17        16        15        39     9        0.000000        1.295341         3    ;  uncertainty k = 0.321478
        17        16        15        39     9      180.000000        1.395195         4    ;  uncertainty k = 0.121128
        17        16        20        19     9        0.000000        0.069536         1    ;  uncertainty k = 0.992019
        17        16        20        19     9      180.000000       11.104858         2    ;  uncertainty k = 0.670879
        17        16        20        19     9        0.000000       -5.236681         3    ;  uncertainty k = 1.502788
        17        16        20        19     9      180.000000        1.420850         4    ;  uncertainty k = 0.452289
        17        16        20        21     9        0.000000        1.138221         1    ;  uncertainty k = 1.303690
        17        16        20        21     9      180.000000        8.384686         2    ;  uncertainty k = 0.134360
        17        16        20        21     9        0.000000        1.522625         3    ;  uncertainty k = 0.343774
        17        16        20        21     9      180.000000        0.209297         4    ;  uncertainty k = 0.338763
        17        18        19        20     9        0.000000       -0.524867         1    ;  uncertainty k = 0.460333
        17        18        19        20     9      180.000000       13.910053         2    ;  uncertainty k = 0.429385
        17        18        19        20     9        0.000000       -7.195060         3    ;  uncertainty k = 2.232510
        17        18        19        20     9      180.000000        1.287408         4    ;  uncertainty k = 0.557143
        17        18        19        40     9        0.000000        1.055772         1    ;  uncertainty k = 0.762680
        17        18        19        40     9      180.000000        6.266885         2    ;  uncertainty k = 0.956071
        17        18        19        40     9        0.000000        0.694217         3    ;  uncertainty k = 0.448621
        17        18        19        40     9      180.000000        0.160410         4    ;  uncertainty k = 0.362377
        18        17        14        38     9        0.000000        0.134023         1    ;  uncertainty k = 0.604942
        18        17        14        38     9      180.000000        5.172171         2    ;  uncertainty k = 0.810962
        18        17        14        38     9        0.000000        0.848917         3    ;  uncertainty k = 0.213261
        18        17        14        38     9      180.000000        0.677449         4    ;  uncertainty k = 0.206513
        18        17        16        20     9        0.000000       -0.118519         1    ;  uncertainty k = 0.548983
        18        17        16        20     9      180.000000       10.972256         2    ;  uncertainty k = 0.361512
        18        17        16        20     9        0.000000       -0.753510         3    ;  uncertainty k = 0.742645
        18        17        16        20     9      180.000000        1.283010         4    ;  uncertainty k = 0.322424
        18        19        20        21     9        0.000000        0.061247         1    ;  uncertainty k = 0.521166
        18        19        20        21     9      180.000000       15.432752         2    ;  uncertainty k = 0.596897
        18        19        20        21     9        0.000000        2.234763         3    ;  uncertainty k = 0.703619
        18        19        20        21     9      180.000000        1.093976         4    ;  uncertainty k = 0.410408
        19        20        21        41     9        0.000000        0.932632         1    ;  uncertainty k = 0.370224
        19        20        21        41     9      180.000000        0.988679         2    ;  uncertainty k = 0.317596
        19        20        21        41     9        0.000000       -0.196311         3    ;  uncertainty k = 0.089990
        19        20        21        41     9      180.000000       -0.001158         4    ;  uncertainty k = 0.033027
        19        20        21        42     9        0.000000        0.932632         1    ;  uncertainty k = 0.370224
        19        20        21        42     9      180.000000        0.988679         2    ;  uncertainty k = 0.317596
        19        20        21        42     9        0.000000       -0.196311         3    ;  uncertainty k = 0.089990
        19        20        21        42     9      180.000000       -0.001158         4    ;  uncertainty k = 0.033027
        19        20        21        43     9        0.000000        0.932632         1    ;  uncertainty k = 0.370224
        19        20        21        43     9      180.000000        0.988679         2    ;  uncertainty k = 0.317596
        19        20        21        43     9        0.000000       -0.196311         3    ;  uncertainty k = 0.089990
        19        20        21        43     9      180.000000       -0.001158         4    ;  uncertainty k = 0.033027
        20        16        15        39     9        0.000000        0.384842         1    ;  uncertainty k = 0.418083
        20        16        15        39     9      180.000000        6.113280         2    ;  uncertainty k = 0.497891
        20        16        15        39     9        0.000000        1.071142         3    ;  uncertainty k = 0.309680
        20        16        15        39     9      180.000000        1.055682         4    ;  uncertainty k = 0.191477
        21        20        19        40     9        0.000000        0.104567         1    ;  uncertainty k = 0.528447
        21        20        19        40     9      180.000000       10.069412         2    ;  uncertainty k = 0.495081
        21        20        19        40     9        0.000000        1.386341         3    ;  uncertainty k = 0.294945
        21        20        19        40     9      180.000000        0.811783         4    ;  uncertainty k = 0.500359
        22        23        24        25     9        0.000000       -0.265671         1    ;  uncertainty k = 0.419232
        22        23        24        25     9      180.000000       10.460453         2    ;  uncertainty k = 0.389564
        22        23        24        25     9        0.000000       -0.366508         3    ;  uncertainty k = 0.514479
        22        23        24        25     9      180.000000        0.929899         4    ;  uncertainty k = 0.330294
        22        23        24        44     9        0.000000        0.238370         1    ;  uncertainty k = 0.382236
        22        23        24        44     9      180.000000        7.525221         2    ;  uncertainty k = 0.903253
        22        23        24        44     9        0.000000        1.267264         3    ;  uncertainty k = 0.290613
        22        23        24        44     9      180.000000        1.474858         4    ;  uncertainty k = 0.123420
        22        23        28        29     9        0.000000        0.262415         1    ;  uncertainty k = 1.833675
        22        23        28        29     9      180.000000       -1.026927         2    ;  uncertainty k = 0.798425
        22        23        28        29     9        0.000000        0.956202         3    ;  uncertainty k = 0.348087
        22        23        28        29     9      180.000000        0.178350         4    ;  uncertainty k = 0.195567
        22        23        28        30     9        0.000000       -5.228559         1    ;  uncertainty k = 2.158656
        22        23        28        30     9      180.000000       -0.861345         2    ;  uncertainty k = 0.805163
        22        23        28        30     9        0.000000        1.201043         3    ;  uncertainty k = 0.425533
        22        23        28        30     9      180.000000       -0.042324         4    ;  uncertainty k = 0.375368
        22        23        28        31     9        0.000000       -5.228559         1    ;  uncertainty k = 2.158656
        22        23        28        31     9      180.000000       -0.861345         2    ;  uncertainty k = 0.805163
        22        23        28        31     9        0.000000        1.201043         3    ;  uncertainty k = 0.425533
        22        23        28        31     9      180.000000       -0.042324         4    ;  uncertainty k = 0.375368
        22        27        26        25     9        0.000000        0.036595         1    ;  uncertainty k = 0.371494
        22        27        26        25     9      180.000000       16.597048         2    ;  uncertainty k = 0.304806
        22        27        26        25     9        0.000000        0.966621         3    ;  uncertainty k = 0.517837
        22        27        26        25     9      180.000000        1.451098         4    ;  uncertainty k = 0.177715
        23        22        12        36     9        0.000000        9.262104         1    ;  uncertainty k = 0.773179
        23        22        12        36     9      180.000000        3.945831         2    ;  uncertainty k = 0.536442
        23        22        12        36     9        0.000000        0.752572         3    ;  uncertainty k = 0.273738
        23        22        12        36     9      180.000000       -0.119638         4    ;  uncertainty k = 0.176171
        23        22        27        26     9        0.000000       -0.562844         1    ;  uncertainty k = 0.540742
        23        22        27        26     9      180.000000        6.748518         2    ;  uncertainty k = 1.268442
        23        22        27        26     9        0.000000        0.077078         3    ;  uncertainty k = 0.370452
        23        22        27        26     9      180.000000        1.216829         4    ;  uncertainty k = 0.295894
        23        22        27        46     9        0.000000        0.000819         1    ;  uncertainty k = 1.384591
        23        22        27        46     9      180.000000        4.685089         2    ;  uncertainty k = 1.110639
        23        22        27        46     9        0.000000        1.104677         3    ;  uncertainty k = 0.238510
        23        22        27        46     9      180.000000        1.089444         4    ;  uncertainty k = 0.205053
        23        24        25        26     9        0.000000       -0.252469         1    ;  uncertainty k = 0.431542
        23        24        25        26     9      180.000000       13.556324         2    ;  uncertainty k = 0.574919
        23        24        25        26     9        0.000000       -1.106331         3    ;  uncertainty k = 1.113054
        23        24        25        26     9      180.000000        0.952272         4    ;  uncertainty k = 0.151718
        23        24        25        45     9        0.000000       -0.148524         1    ;  uncertainty k = 0.589762
        23        24        25        45     9      180.000000        6.244192         2    ;  uncertainty k = 0.249576
        23        24        25        45     9        0.000000        1.014103         3    ;  uncertainty k = 0.237437
        23        24        25        45     9      180.000000        1.497615         4    ;  uncertainty k = 0.181166
        23        28        29        47     9        0.000000        2.345206         1    ;  uncertainty k = 0.643494
        23        28        29        47     9      180.000000       -2.433989         2    ;  uncertainty k = 0.375725
        23        28        29        47     9        0.000000        0.170343         3    ;  uncertainty k = 0.101207
        23        28        29        47     9      180.000000        0.001305         4    ;  uncertainty k = 0.149207
        23        28        29        48     9        0.000000        2.345206         1    ;  uncertainty k = 0.643494
        23        28        29        48     9      180.000000       -2.433989         2    ;  uncertainty k = 0.375725
        23        28        29        48     9        0.000000        0.170343         3    ;  uncertainty k = 0.101207
        23        28        29        48     9      180.000000        0.001305         4    ;  uncertainty k = 0.149207
        23        28        29        49     9        0.000000        2.345206         1    ;  uncertainty k = 0.643494
        23        28        29        49     9      180.000000       -2.433989         2    ;  uncertainty k = 0.375725
        23        28        29        49     9        0.000000        0.170343         3    ;  uncertainty k = 0.101207
        23        28        29        49     9      180.000000        0.001305         4    ;  uncertainty k = 0.149207
        24        23        22        27     9        0.000000       -0.438835         1    ;  uncertainty k = 0.840316
        24        23        22        27     9      180.000000        4.610451         2    ;  uncertainty k = 1.641699
        24        23        22        27     9        0.000000        0.358136         3    ;  uncertainty k = 0.323564
        24        23        22        27     9      180.000000        1.351097         4    ;  uncertainty k = 0.315698
        24        23        28        29     9        0.000000        3.406872         1    ;  uncertainty k = 1.708510
        24        23        28        29     9      180.000000        0.171419         2    ;  uncertainty k = 0.576991
        24        23        28        29     9        0.000000       -0.078308         3    ;  uncertainty k = 0.399031
        24        23        28        29     9      180.000000        0.444415         4    ;  uncertainty k = 0.155672
        24        23        28        30     9        0.000000       -0.492325         1    ;  uncertainty k = 1.108208
        24        23        28        30     9      180.000000        0.135604         2    ;  uncertainty k = 0.455040
        24        23        28        30     9        0.000000        0.177825         3    ;  uncertainty k = 0.237274
        24        23        28        30     9      180.000000        0.012963         4    ;  uncertainty k = 0.209193
        24        23        28        31     9        0.000000       -0.492325         1    ;  uncertainty k = 1.108208
        24        23        28        31     9      180.000000        0.135604         2    ;  uncertainty k = 0.455040
        24        23        28        31     9        0.000000        0.177825         3    ;  uncertainty k = 0.237274
        24        23        28        31     9      180.000000        0.012963         4    ;  uncertainty k = 0.209193
        24        25        26        27     9        0.000000       -0.485019         1    ;  uncertainty k = 0.425215
        24        25        26        27     9      180.000000       15.189731         2    ;  uncertainty k = 0.461239
        24        25        26        27     9        0.000000        1.127628         3    ;  uncertainty k = 0.661679
        24        25        26        27     9      180.000000        1.285430         4    ;  uncertainty k = 0.097277
        25        24        23        28     9        0.000000        0.601785         1    ;  uncertainty k = 0.840722
        25        24        23        28     9      180.000000        9.254868         2    ;  uncertainty k = 0.664789
        25        24        23        28     9        0.000000        1.560648         3    ;  uncertainty k = 0.502422
        25        24        23        28     9      180.000000        1.838812         4    ;  uncertainty k = 0.146620
        25        26        27        46     9        0.000000        0.508069         1    ;  uncertainty k = 0.686765
        25        26        27        46     9      180.000000       16.706319         2    ;  uncertainty k = 0.583289
        25        26        27        46     9        0.000000        2.361241         3    ;  uncertainty k = 0.235965
        25        26        27        46     9      180.000000        1.517602         4    ;  uncertainty k = 0.508263
        26        25        24        44     9        0.000000       -0.068095         1    ;  uncertainty k = 0.262319
        26        25        24        44     9      180.000000        9.165642         2    ;  uncertainty k = 0.726880
        26        25        24        44     9        0.000000        0.979808         3    ;  uncertainty k = 0.350347
        26        25        24        44     9      180.000000        1.652653         4    ;  uncertainty k = 0.185847
        27        22        12        36     9        0.000000        0.917542         1    ;  uncertainty k = 1.463603
        27        22        12        36     9      180.000000        4.182459         2    ;  uncertainty k = 0.765145
        27        22        12        36     9        0.000000       -0.106077         3    ;  uncertainty k = 0.498484
        27        22        12        36     9      180.000000       -0.220151         4    ;  uncertainty k = 0.253379
        27        22        23        28     9        0.000000        0.917642         1    ;  uncertainty k = 0.634889
        27        22        23        28     9      180.000000        4.793051         2    ;  uncertainty k = 1.087370
        27        22        23        28     9        0.000000        1.108847         3    ;  uncertainty k = 0.290816
        27        22        23        28     9      180.000000        1.561541         4    ;  uncertainty k = 0.342191
        27        26        25        45     9        0.000000        0.172530         1    ;  uncertainty k = 0.566096
        27        26        25        45     9      180.000000       15.445791         2    ;  uncertainty k = 0.425751
        27        26        25        45     9        0.000000        2.152702         3    ;  uncertainty k = 0.508047
        27        26        25        45     9      180.000000        1.381410         4    ;  uncertainty k = 0.359272
        28        23        24        44     9        0.000000       -0.424035         1    ;  uncertainty k = 0.616072
        28        23        24        44     9      180.000000        7.010377         2    ;  uncertainty k = 0.550569
        28        23        24        44     9        0.000000        0.781435         3    ;  uncertainty k = 0.169298
        28        23        24        44     9      180.000000        1.269235         4    ;  uncertainty k = 0.186788
        30        28        29        47     9        0.000000       -0.057642         1    ;  uncertainty k = 0.603701
        30        28        29        47     9      180.000000       -0.366450         2    ;  uncertainty k = 0.288161
        30        28        29        47     9        0.000000        0.801561         3    ;  uncertainty k = 0.057212
        30        28        29        47     9      180.000000        0.039211         4    ;  uncertainty k = 0.101281
        30        28        29        48     9        0.000000       -0.057642         1    ;  uncertainty k = 0.603701
        30        28        29        48     9      180.000000       -0.366450         2    ;  uncertainty k = 0.288161
        30        28        29        48     9        0.000000        0.801561         3    ;  uncertainty k = 0.057212
        30        28        29        48     9      180.000000        0.039211         4    ;  uncertainty k = 0.101281
        30        28        29        49     9        0.000000       -0.057642         1    ;  uncertainty k = 0.603701
        30        28        29        49     9      180.000000       -0.366450         2    ;  uncertainty k = 0.288161
        30        28        29        49     9        0.000000        0.801561         3    ;  uncertainty k = 0.057212
        30        28        29        49     9      180.000000        0.039211         4    ;  uncertainty k = 0.101281
        31        28        29        47     9        0.000000       -0.057642         1    ;  uncertainty k = 0.603701
        31        28        29        47     9      180.000000       -0.366450         2    ;  uncertainty k = 0.288161
        31        28        29        47     9        0.000000        0.801561         3    ;  uncertainty k = 0.057212
        31        28        29        47     9      180.000000        0.039211         4    ;  uncertainty k = 0.101281
        31        28        29        48     9        0.000000       -0.057642         1    ;  uncertainty k = 0.603701
        31        28        29        48     9      180.000000       -0.366450         2    ;  uncertainty k = 0.288161
        31        28        29        48     9        0.000000        0.801561         3    ;  uncertainty k = 0.057212
        31        28        29        48     9      180.000000        0.039211         4    ;  uncertainty k = 0.101281
        31        28        29        49     9        0.000000       -0.057642         1    ;  uncertainty k = 0.603701
        31        28        29        49     9      180.000000       -0.366450         2    ;  uncertainty k = 0.288161
        31        28        29        49     9        0.000000        0.801561         3    ;  uncertainty k = 0.057212
        31        28        29        49     9      180.000000        0.039211         4    ;  uncertainty k = 0.101281
        34         8         9        35     9        0.000000       -0.152652         1    ;  uncertainty k = 0.805688
        34         8         9        35     9      180.000000        5.398109         2    ;  uncertainty k = 0.723628
        34         8         9        35     9        0.000000        0.147471         3    ;  uncertainty k = 0.248173
        34         8         9        35     9      180.000000        0.216442         4    ;  uncertainty k = 0.153410
        37        13        14        38     9        0.000000       -0.116037         1    ;  uncertainty k = 0.159465
        37        13        14        38     9      180.000000        7.857294         2    ;  uncertainty k = 0.422407
        37        13        14        38     9        0.000000       -0.345947         3    ;  uncertainty k = 0.241221
        37        13        14        38     9      180.000000        0.189537         4    ;  uncertainty k = 0.155585
        44        24        25        45     9        0.000000       -0.307961         1    ;  uncertainty k = 0.440102
        44        24        25        45     9      180.000000        6.502710         2    ;  uncertainty k = 0.379418
        44        24        25        45     9        0.000000       -0.130868         3    ;  uncertainty k = 0.246878
        44        24        25        45     9      180.000000        0.283979         4    ;  uncertainty k = 0.141773

[ dihedrals ] ; impropers
;       ai        aj        ak        al funct           phase               k        pn
         1         2         5        32     4      180.000000        2.538910         2    ;  uncertainty k = 0.373104
         1         5        32         2     4      180.000000        2.538910         2    ;  uncertainty k = 0.373104
         1        32         2         5     4      180.000000        2.538910         2    ;  uncertainty k = 0.373104
         2         1         3        12     4      180.000000       20.686961         2    ;  uncertainty k = 0.060627
         2         3        12         1     4      180.000000       20.686961         2    ;  uncertainty k = 0.060627
         2        12         1         3     4      180.000000       20.686961         2    ;  uncertainty k = 0.060627
         3         2         4        33     4      180.000000        3.058278         2    ;  uncertainty k = 0.375591
         3         4        33         2     4      180.000000        3.058278         2    ;  uncertainty k = 0.375591
         3        33         2         4     4      180.000000        3.058278         2    ;  uncertainty k = 0.375591
         4         3         6        11     4      180.000000       18.146212         2    ;  uncertainty k = 0.114822
         4         6        11         3     4      180.000000       18.146212         2    ;  uncertainty k = 0.114822
         4        11         3         6     4      180.000000       18.146212         2    ;  uncertainty k = 0.114822
         5         1         6        10     4      180.000000       18.442492         2    ;  uncertainty k = 0.055238
         5         6        10         1     4      180.000000       18.442492         2    ;  uncertainty k = 0.055238
         5        10         1         6     4      180.000000       18.442492         2    ;  uncertainty k = 0.055238
         6         4         5         7     4      180.000000       16.621032         2    ;  uncertainty k = 0.088768
         6         5         7         4     4      180.000000       16.621032         2    ;  uncertainty k = 0.088768
         6         7         4         5     4      180.000000       16.621032         2    ;  uncertainty k = 0.088768
         8         7         9        34     4      180.000000       12.058352         2    ;  uncertainty k = 0.155869
         8         9        34         7     4      180.000000       12.058352         2    ;  uncertainty k = 0.155869
         8        34         7         9     4      180.000000       12.058352         2    ;  uncertainty k = 0.155869
         9         8        10        35     4      180.000000       11.948848         2    ;  uncertainty k = 0.101429
         9        10        35         8     4      180.000000       11.948848         2    ;  uncertainty k = 0.101429
         9        35         8        10     4      180.000000       11.948848         2    ;  uncertainty k = 0.101429
        11         4        13        15     4      180.000000       12.578875         2    ;  uncertainty k = 0.168375
        11        13        15         4     4      180.000000       12.578875         2    ;  uncertainty k = 0.168375
        11        15         4        13     4      180.000000       12.578875         2    ;  uncertainty k = 0.168375
        12         2        22        36     4      180.000000        1.379953         2    ;  uncertainty k = 1.192015
        12        22        36         2     4      180.000000        1.379953         2    ;  uncertainty k = 1.192015
        12        36         2        22     4      180.000000        1.379953         2    ;  uncertainty k = 1.192015
        13        11        14        37     4      180.000000        3.834045         2    ;  uncertainty k = 0.192914
        13        14        37        11     4      180.000000        3.834045         2    ;  uncertainty k = 0.192914
        13        37        11        14     4      180.000000        3.834045         2    ;  uncertainty k = 0.192914
        14        13        17        38     4      180.000000        3.575353         2    ;  uncertainty k = 0.206519
        14        17        38        13     4      180.000000        3.575353         2    ;  uncertainty k = 0.206519
        14        38        13        17     4      180.000000        3.575353         2    ;  uncertainty k = 0.206519
        15        11        16        39     4      180.000000        4.114920         2    ;  uncertainty k = 0.265959
        15        16        39        11     4      180.000000        4.114920         2    ;  uncertainty k = 0.265959
        15        39        11        16     4      180.000000        4.114920         2    ;  uncertainty k = 0.265959
        16        15        17        20     4      180.000000        1.501539         2    ;  uncertainty k = 1.073949
        16        17        20        15     4      180.000000        1.501539         2    ;  uncertainty k = 1.073949
        16        20        15        17     4      180.000000        1.501539         2    ;  uncertainty k = 1.073949
        17        14        16        18     4      180.000000        0.472188         2    ;  uncertainty k = 0.762340
        17        16        18        14     4      180.000000        0.472188         2    ;  uncertainty k = 0.762340
        17        18        14        16     4      180.000000        0.472188         2    ;  uncertainty k = 0.762340
        20        16        19        21     4      180.000000        8.041019         2    ;  uncertainty k = 0.033129
        20        19        21        16     4      180.000000        8.041019         2    ;  uncertainty k = 0.033129
        20        21        16        19     4      180.000000        8.041019         2    ;  uncertainty k = 0.033129
        22        12        23        27     4      180.000000       22.010771         2    ;  uncertainty k = 0.077536
        22        23        27        12     4      180.000000       22.010771         2    ;  uncertainty k = 0.077536
        22        27        12        23     4      180.000000       22.010771         2    ;  uncertainty k = 0.077536
        23        22        24        28     4      180.000000        5.945010         2    ;  uncertainty k = 0.459975
        23        24        28        22     4      180.000000        5.945010         2    ;  uncertainty k = 0.459975
        23        28        22        24     4      180.000000        5.945010         2    ;  uncertainty k = 0.459975
        24        23        25        44     4      180.000000        4.322240         2    ;  uncertainty k = 0.262312
        24        25        44        23     4      180.000000        4.322240         2    ;  uncertainty k = 0.262312
        24        44        23        25     4      180.000000        4.322240         2    ;  uncertainty k = 0.262312
        25        24        26        45     4      180.000000       11.385377         2    ;  uncertainty k = 0.107036
        25        26        45        24     4      180.000000       11.385377         2    ;  uncertainty k = 0.107036
        25        45        24        26     4      180.000000       11.385377         2    ;  uncertainty k = 0.107036
        27        22        26        46     4      180.000000       10.900439         2    ;  uncertainty k = 0.192114
        27        26        46        22     4      180.000000       10.900439         2    ;  uncertainty k = 0.192114
        27        46        22        26     4      180.000000       10.900439         2    ;  uncertainty k = 0.192114

[ pairs ]
;       ai        aj funct
         1         4     1
         1         7     1
         1         9     1
         1        22     1
         1        33     1
         1        36     1
         2         6     1
         2        10     1
         2        11     1
         2        23     1
         2        27     1
         3         5     1
         3         7     1
         3        13     1
         3        15     1
         3        22     1
         3        32     1
         3        36     1
         4         8     1
         4        10     1
         4        12     1
         4        14     1
         4        16     1
         4        37     1
         4        39     1
         5         8     1
         5        11     1
         5        12     1
         5        35     1
         6         9     1
         6        13     1
         6        15     1
         6        32     1
         6        33     1
         6        34     1
         7        10     1
         7        11     1
         7        35     1
        10        32     1
        10        34     1
        11        17     1
        11        20     1
        11        33     1
        11        38     1
        12        24     1
        12        26     1
        12        28     1
        12        32     1
        12        33     1
        12        46     1
        13        16     1
        13        18     1
        13        39     1
        14        15     1
        14        19     1
        14        20     1
        15        18     1
        15        19     1
        15        21     1
        15        37     1
        16        38     1
        16        40     1
        16        41     1
        16        42     1
        16        43     1
        17        21     1
        17        37     1
        17        39     1
        17        40     1
        18        21     1
        18        38     1
        19        41     1
        19        42     1
        19        43     1
        20        39     1
        21        40     1
        22        25     1
        22        29     1
        22        30     1
        22        31     1
        22        44     1
        23        26     1
        23        36     1
        23        45     1
        23        46     1
        23        47     1
        23        48     1
        23        49     1
        24        27     1
        24        29     1
        24        30     1
        24        31     1
        25        28     1
        25        46     1
        26        44     1
        27        28     1
        27        36     1
        27        45     1
        28        44     1
        30        47     1
        30        48     1
        30        49     1
        31        47     1
        31        48     1
        31        49     1
        34        35     1
        37        38     1
        44        45     1
