; ITP file created by ByteFF-joint-25, 2026-02-17 09:31:02.353909

[ atomtypes ]
;name           bonded.type        at.num        mass        charge   ptype           sigma         epsilon
 c0bf                                   6      0.0000       0.00000       A     3.31509e-01     4.13539e-01    ;  uncertainty sigma = 0.000009, epsilon = 0.000465
 c1bf                                   6      0.0000       0.00000       A     3.31538e-01     4.13732e-01    ;  uncertainty sigma = 0.000012, epsilon = 0.001772
 c2bf                                   6      0.0000       0.00000       A     3.31496e-01     4.13470e-01    ;  uncertainty sigma = 0.000006, epsilon = 0.000742
 c3bf                                   6      0.0000       0.00000       A     3.31486e-01     4.12638e-01    ;  uncertainty sigma = 0.000012, epsilon = 0.000886
 c4bf                                   6      0.0000       0.00000       A     3.31516e-01     4.13470e-01    ;  uncertainty sigma = 0.000011, epsilon = 0.000986
 c5bf                                   6      0.0000       0.00000       A     3.31519e-01     4.13020e-01    ;  uncertainty sigma = 0.000010, epsilon = 0.001115
 n6bf                                   7      0.0000       0.00000       A     3.38415e-01     3.93854e-01    ;  uncertainty sigma = 0.000010, epsilon = 0.001066
 c7bf                                   6      0.0000       0.00000       A     3.31531e-01     4.13178e-01    ;  uncertainty sigma = 0.000013, epsilon = 0.000482
 c8bf                                   6      0.0000       0.00000       A     3.31530e-01     4.13238e-01    ;  uncertainty sigma = 0.000010, epsilon = 0.000599
 n9bf                                   7      0.0000       0.00000       A     3.38414e-01     3.93827e-01    ;  uncertainty sigma = 0.000003, epsilon = 0.000862
 c10bf                                  6      0.0000       0.00000       A     3.31499e-01     4.13100e-01    ;  uncertainty sigma = 0.000014, epsilon = 0.000975
 c11bf                                  6      0.0000       0.00000       A     3.31518e-01     4.13428e-01    ;  uncertainty sigma = 0.000004, epsilon = 0.000498
 c12bf                                  6      0.0000       0.00000       A     3.31529e-01     4.13390e-01    ;  uncertainty sigma = 0.000006, epsilon = 0.000789
 c13bf                                  6      0.0000       0.00000       A     3.31519e-01     4.13023e-01    ;  uncertainty sigma = 0.000010, epsilon = 0.000263
 c14bf                                  6      0.0000       0.00000       A     3.31517e-01     4.13098e-01    ;  uncertainty sigma = 0.000012, epsilon = 0.000724
 c15bf                                  6      0.0000       0.00000       A     3.31528e-01     4.13235e-01    ;  uncertainty sigma = 0.000005, epsilon = 0.000833
 o16bf                                  8      0.0000       0.00000       A     3.15604e-01     3.03923e-01    ;  uncertainty sigma = 0.000020, epsilon = 0.000804
 c17bf                                  6      0.0000       0.00000       A     3.31524e-01     4.13856e-01    ;  uncertainty sigma = 0.000006, epsilon = 0.001531
 c18bf                                  6      0.0000       0.00000       A     3.31523e-01     4.13328e-01    ;  uncertainty sigma = 0.000008, epsilon = 0.000552
 n19bf                                  7      0.0000       0.00000       A     3.27956e-01     6.47518e-01    ;  uncertainty sigma = 0.000036, epsilon = 0.003822
 c20bf                                  6      0.0000       0.00000       A     3.39781e-01     4.50795e-01    ;  uncertainty sigma = 0.000005, epsilon = 0.000665
 c21bf                                  6      0.0000       0.00000       A     3.31502e-01     4.13462e-01    ;  uncertainty sigma = 0.000018, epsilon = 0.002180
 c22bf                                  6      0.0000       0.00000       A     3.31501e-01     4.13078e-01    ;  uncertainty sigma = 0.000025, epsilon = 0.001598
 c23bf                                  6      0.0000       0.00000       A     3.31518e-01     4.13124e-01    ;  uncertainty sigma = 0.000015, epsilon = 0.000361
 c24bf                                  6      0.0000       0.00000       A     3.31513e-01     4.13350e-01    ;  uncertainty sigma = 0.000011, epsilon = 0.000728
 n25bf                                  7      0.0000       0.00000       A     3.38420e-01     3.93806e-01    ;  uncertainty sigma = 0.000013, epsilon = 0.000882
 c26bf                                  6      0.0000       0.00000       A     3.31533e-01     4.13419e-01    ;  uncertainty sigma = 0.000012, epsilon = 0.000931
 s27bf                                 16      0.0000       0.00000       A     4.05775e-01     2.56505e-01    ;  uncertainty sigma = 0.000009, epsilon = 0.002944
 o28bf                                  8      0.0000       0.00000       A     3.04808e-01     6.12058e-01    ;  uncertainty sigma = 0.000011, epsilon = 0.001075
 o29bf                                  8      0.0000       0.00000       A     3.04808e-01     6.12058e-01    ;  uncertainty sigma = 0.000011, epsilon = 0.001075
 c30bf                                  6      0.0000       0.00000       A     3.39790e-01     4.50653e-01    ;  uncertainty sigma = 0.000003, epsilon = 0.000848
 h31bf                                  1      0.0000       0.00000       A     2.62540e-01     6.71221e-02    ;  uncertainty sigma = 0.000022, epsilon = 0.000645
 h32bf                                  1      0.0000       0.00000       A     2.62566e-01     6.71158e-02    ;  uncertainty sigma = 0.000015, epsilon = 0.000400
 h33bf                                  1      0.0000       0.00000       A     2.53628e-01     6.69333e-02    ;  uncertainty sigma = 0.000020, epsilon = 0.000763
 h34bf                                  1      0.0000       0.00000       A     2.53628e-01     6.69333e-02    ;  uncertainty sigma = 0.000020, epsilon = 0.000763
 h35bf                                  1      0.0000       0.00000       A     2.62566e-01     6.70694e-02    ;  uncertainty sigma = 0.000011, epsilon = 0.000578
 h36bf                                  1      0.0000       0.00000       A     2.62567e-01     6.70187e-02    ;  uncertainty sigma = 0.000008, epsilon = 0.000490
 h37bf                                  1      0.0000       0.00000       A     2.62563e-01     6.71428e-02    ;  uncertainty sigma = 0.000017, epsilon = 0.000407
 h38bf                                  1      0.0000       0.00000       A     2.53604e-01     6.68493e-02    ;  uncertainty sigma = 0.000031, epsilon = 0.000536
 h39bf                                  1      0.0000       0.00000       A     1.10720e-01     4.14041e-02    ;  uncertainty sigma = 0.000106, epsilon = 0.001477
 h40bf                                  1      0.0000       0.00000       A     2.60030e-01     8.67895e-02    ;  uncertainty sigma = 0.000005, epsilon = 0.000310
 h41bf                                  1      0.0000       0.00000       A     2.60030e-01     8.67895e-02    ;  uncertainty sigma = 0.000005, epsilon = 0.000310
 h42bf                                  1      0.0000       0.00000       A     2.60030e-01     8.67895e-02    ;  uncertainty sigma = 0.000005, epsilon = 0.000310
 h43bf                                  1      0.0000       0.00000       A     2.62533e-01     6.70950e-02    ;  uncertainty sigma = 0.000019, epsilon = 0.000754
 h44bf                                  1      0.0000       0.00000       A     2.53633e-01     6.70304e-02    ;  uncertainty sigma = 0.000014, epsilon = 0.000494
 h45bf                                  1      0.0000       0.00000       A     2.53624e-01     6.69778e-02    ;  uncertainty sigma = 0.000049, epsilon = 0.000568
 h46bf                                  1      0.0000       0.00000       A     2.42167e-01     8.68275e-02    ;  uncertainty sigma = 0.000012, epsilon = 0.000620
 h47bf                                  1      0.0000       0.00000       A     2.42167e-01     8.68275e-02    ;  uncertainty sigma = 0.000012, epsilon = 0.000620
 h48bf                                  1      0.0000       0.00000       A     2.42167e-01     8.68275e-02    ;  uncertainty sigma = 0.000012, epsilon = 0.000620

[ moleculetype ]
;name             nrexcl
 MOL                   3

[ atoms ]
;       nr            type      resi   res      atom      cgnr      charge          mass ; qtot
         1            c0bf         1   UNL        c0         1    -0.22162       12.0110 ; qtot   -0.222
         2            c1bf         1   UNL        c1         2     0.17400       12.0110 ; qtot   -0.048
         3            c2bf         1   UNL        c2         3    -0.16147       12.0110 ; qtot   -0.209
         4            c3bf         1   UNL        c3         4    -0.02457       12.0110 ; qtot   -0.234
         5            c4bf         1   UNL        c4         5     0.32361       12.0110 ; qtot    0.090
         6            c5bf         1   UNL        c5         6     0.27449       12.0110 ; qtot    0.364
         7            n6bf         1   UNL        n6         7    -0.61815       14.0070 ; qtot   -0.254
         8            c7bf         1   UNL        c7         8     0.29560       12.0110 ; qtot    0.042
         9            c8bf         1   UNL        c8         9     0.29621       12.0110 ; qtot    0.338
        10            n9bf         1   UNL        n9        10    -0.62862       14.0070 ; qtot   -0.291
        11           c10bf         1   UNL       c10        11    -0.06004       12.0110 ; qtot   -0.351
        12           c11bf         1   UNL       c11        12    -0.09013       12.0110 ; qtot   -0.441
        13           c12bf         1   UNL       c12        13    -0.12631       12.0110 ; qtot   -0.567
        14           c13bf         1   UNL       c13        14    -0.05678       12.0110 ; qtot   -0.624
        15           c14bf         1   UNL       c14        15    -0.11257       12.0110 ; qtot   -0.736
        16           c15bf         1   UNL       c15        16     0.06360       12.0110 ; qtot   -0.673
        17           o16bf         1   UNL       o16        17    -0.18361       15.9990 ; qtot   -0.856
        18           c17bf         1   UNL       c17        18    -0.02107       12.0110 ; qtot   -0.877
        19           c18bf         1   UNL       c18        19    -0.12223       12.0110 ; qtot   -1.000
        20           n19bf         1   UNL       n19        20    -0.64735       14.0070 ; qtot   -1.647
        21           c20bf         1   UNL       c20        21    -0.02008       12.0110 ; qtot   -1.667
        22           c21bf         1   UNL       c21        22     0.15628       12.0110 ; qtot   -1.511
        23           c22bf         1   UNL       c22        23    -0.26398       12.0110 ; qtot   -1.775
        24           c23bf         1   UNL       c23        24    -0.13704       12.0110 ; qtot   -1.912
        25           c24bf         1   UNL       c24        25     0.35581       12.0110 ; qtot   -1.556
        26           n25bf         1   UNL       n25        26    -0.60182       14.0070 ; qtot   -2.158
        27           c26bf         1   UNL       c26        27     0.33325       12.0110 ; qtot   -1.825
        28           s27bf         1   UNL       s27        28     1.01656       32.0670 ; qtot   -0.808
        29           o28bf         1   UNL       o28        29    -0.58472       15.9990 ; qtot   -1.393
        30           o29bf         1   UNL       o29        30    -0.58472       15.9990 ; qtot   -1.977
        31           c30bf         1   UNL       c30        31    -0.18352       12.0110 ; qtot   -2.161
        32           h31bf         1   UNL       h31        32     0.15776        1.0080 ; qtot   -2.003
        33           h32bf         1   UNL       h32        33     0.14719        1.0080 ; qtot   -1.856
        34           h33bf         1   UNL       h33        34     0.03380        1.0080 ; qtot   -1.822
        35           h34bf         1   UNL       h34        35     0.03331        1.0080 ; qtot   -1.789
        36           h35bf         1   UNL       h35        36     0.14167        1.0080 ; qtot   -1.647
        37           h36bf         1   UNL       h36        37     0.15306        1.0080 ; qtot   -1.494
        38           h37bf         1   UNL       h37        38     0.14483        1.0080 ; qtot   -1.349
        39           h38bf         1   UNL       h38        39     0.18510        1.0080 ; qtot   -1.164
        40           h39bf         1   UNL       h39        40     0.47844        1.0080 ; qtot   -0.686
        41           h40bf         1   UNL       h40        41     0.04417        1.0080 ; qtot   -0.642
        42           h41bf         1   UNL       h41        42     0.04417        1.0080 ; qtot   -0.597
        43           h42bf         1   UNL       h42        43     0.04417        1.0080 ; qtot   -0.553
        44           h43bf         1   UNL       h43        44     0.16807        1.0080 ; qtot   -0.385
        45           h44bf         1   UNL       h44        45     0.03424        1.0080 ; qtot   -0.351
        46           h45bf         1   UNL       h45        46     0.03967        1.0080 ; qtot   -0.311
        47           h46bf         1   UNL       h46        47     0.10378        1.0080 ; qtot   -0.208
        48           h47bf         1   UNL       h47        48     0.10378        1.0080 ; qtot   -0.104
        49           h48bf         1   UNL       h48        49     0.10378        1.0080 ; qtot   -0.000

[ bonds ]
;       ai        aj funct               r               k
         1         2     1        0.138770   381943.478027    ;  uncertainty r = 0.000111, k = 9.337643
         1         5     1        0.141431   396079.468311    ;  uncertainty r = 0.000094, k = 15.205670
         1        32     1        0.108811   340366.765625    ;  uncertainty r = 0.000031, k = 1.855831
         2         3     1        0.142004   351951.215625    ;  uncertainty r = 0.000218, k = 13.007858
         2        20     1        0.141414   345942.921143    ;  uncertainty r = 0.000097, k = 12.910235
         3         4     1        0.138022   347839.204736    ;  uncertainty r = 0.000147, k = 17.368791
         3        33     1        0.108883   338510.268848    ;  uncertainty r = 0.000020, k = 3.739164
         4         6     1        0.143106   309431.392236    ;  uncertainty r = 0.000128, k = 17.252708
         4        11     1        0.148186   281886.223340    ;  uncertainty r = 0.000079, k = 13.605787
         5         6     1        0.142995   298655.600342    ;  uncertainty r = 0.000072, k = 15.498948
         5        10     1        0.136382   355171.598340    ;  uncertainty r = 0.000057, k = 8.738544
         6         7     1        0.135767   353109.910889    ;  uncertainty r = 0.000088, k = 12.675249
         7         8     1        0.131584   437137.956152    ;  uncertainty r = 0.000061, k = 11.801030
         8         9     1        0.141378   325245.374902    ;  uncertainty r = 0.000067, k = 16.241067
         8        34     1        0.109180   341408.015723    ;  uncertainty r = 0.000031, k = 1.111543
         9        10     1        0.131606   448634.967090    ;  uncertainty r = 0.000067, k = 6.059784
         9        35     1        0.109175   341608.175586    ;  uncertainty r = 0.000026, k = 2.358932
        11        12     1        0.141502   335181.430029    ;  uncertainty r = 0.000175, k = 1.176607
        11        14     1        0.139633   345769.345410    ;  uncertainty r = 0.000052, k = 5.527386
        12        13     1        0.139131   370157.693457    ;  uncertainty r = 0.000051, k = 2.777873
        12        36     1        0.108725   334173.250488    ;  uncertainty r = 0.000021, k = 1.795870
        13        16     1        0.138860   367736.545654    ;  uncertainty r = 0.000017, k = 4.272809
        13        37     1        0.108795   336556.782129    ;  uncertainty r = 0.000007, k = 0.747871
        14        15     1        0.140014   363517.125684    ;  uncertainty r = 0.000051, k = 8.282998
        14        38     1        0.108787   334786.907227    ;  uncertainty r = 0.000024, k = 0.498062
        15        16     1        0.140712   370525.325684    ;  uncertainty r = 0.000050, k = 7.228402
        15        19     1        0.145155   280169.772070    ;  uncertainty r = 0.000018, k = 7.863493
        16        17     1        0.137227   309232.075098    ;  uncertainty r = 0.000076, k = 8.430925
        17        18     1        0.138510   294359.671191    ;  uncertainty r = 0.000055, k = 6.420697
        18        19     1        0.136245   411053.816357    ;  uncertainty r = 0.000013, k = 6.340763
        18        39     1        0.108244   341261.381641    ;  uncertainty r = 0.000047, k = 3.403840
        19        21     1        0.149946   253405.272607    ;  uncertainty r = 0.000018, k = 7.136144
        20        22     1        0.139103   334487.356934    ;  uncertainty r = 0.000264, k = 9.014067
        20        40     1        0.101492   409720.294043    ;  uncertainty r = 0.000088, k = 5.983699
        21        41     1        0.109533   309082.989453    ;  uncertainty r = 0.000016, k = 0.727167
        21        42     1        0.109533   309082.989453    ;  uncertainty r = 0.000016, k = 0.727167
        21        43     1        0.109533   309082.989453    ;  uncertainty r = 0.000016, k = 0.727167
        22        23     1        0.141356   348414.555811    ;  uncertainty r = 0.000198, k = 15.946792
        22        27     1        0.140927   340447.922559    ;  uncertainty r = 0.000113, k = 16.488665
        23        24     1        0.138845   368349.257520    ;  uncertainty r = 0.000202, k = 14.185233
        23        28     1        0.180205   137177.920264    ;  uncertainty r = 0.000181, k = 18.369722
        24        25     1        0.139170   363105.058887    ;  uncertainty r = 0.000048, k = 3.861489
        24        44     1        0.108610   333138.742188    ;  uncertainty r = 0.000052, k = 1.956181
        25        26     1        0.133802   397972.202246    ;  uncertainty r = 0.000074, k = 5.323600
        25        45     1        0.108994   339519.240039    ;  uncertainty r = 0.000025, k = 1.411838
        26        27     1        0.132524   387119.441504    ;  uncertainty r = 0.000108, k = 11.004610
        27        46     1        0.108905   336131.027441    ;  uncertainty r = 0.000101, k = 3.724279
        28        29     1        0.147757   507438.298437    ;  uncertainty r = 0.000058, k = 6.198422
        28        30     1        0.147757   507438.298437    ;  uncertainty r = 0.000058, k = 6.198422
        28        31     1        0.181050   174448.795117    ;  uncertainty r = 0.000039, k = 9.209400
        31        47     1        0.109286   321567.954541    ;  uncertainty r = 0.000031, k = 1.364985
        31        48     1        0.109286   321567.954541    ;  uncertainty r = 0.000031, k = 1.364985
        31        49     1        0.109286   321567.954541    ;  uncertainty r = 0.000031, k = 1.364985

[ angles ]
;       ai        aj        ak funct           theta             cth
         1         2         3     1      119.362228      387.607800    ;  uncertainty theta = 0.003782, k = 0.067189
         1         2        20     1      122.010719      487.333915    ;  uncertainty theta = 0.006482, k = 0.189293
         1         5         6     1      119.517235      392.036797    ;  uncertainty theta = 0.005326, k = 0.191059
         1         5        10     1      122.312637      528.712396    ;  uncertainty theta = 0.003351, k = 0.210335
         2         1         5     1      118.206688      518.635644    ;  uncertainty theta = 0.002447, k = 0.073028
         2         1        32     1      121.438538      270.401885    ;  uncertainty theta = 0.001365, k = 0.142095
         2         3         4     1      122.346519      516.915975    ;  uncertainty theta = 0.004536, k = 0.263180
         2         3        33     1      119.369408      284.883278    ;  uncertainty theta = 0.005054, k = 0.124449
         2        20        22     1      115.247620      387.593978    ;  uncertainty theta = 0.002924, k = 0.212980
         2        20        40     1      115.334732      382.605081    ;  uncertainty theta = 0.007384, k = 0.160726
         3         2        20     1      120.277283      500.376100    ;  uncertainty theta = 0.004774, k = 0.343101
         3         4         6     1      121.174706      456.942233    ;  uncertainty theta = 0.004288, k = 0.139383
         3         4        11     1      121.231789      424.763337    ;  uncertainty theta = 0.003416, k = 0.147191
         4         3        33     1      118.738869      277.905358    ;  uncertainty theta = 0.005212, k = 0.048751
         4         6         5     1      120.770729      399.289368    ;  uncertainty theta = 0.005718, k = 0.089682
         4         6         7     1      118.048363      466.146382    ;  uncertainty theta = 0.004180, k = 0.231913
         4        11        12     1      119.826538      399.171131    ;  uncertainty theta = 0.003267, k = 0.097665
         4        11        14     1      120.073349      390.413818    ;  uncertainty theta = 0.002184, k = 0.146720
         5         1        32     1      120.837975      275.673543    ;  uncertainty theta = 0.003390, k = 0.103595
         5         6         7     1      119.722855      514.456752    ;  uncertainty theta = 0.004269, k = 0.061580
         5        10         9     1      114.458984      488.266148    ;  uncertainty theta = 0.001996, k = 0.147683
         6         4        11     1      119.238541      397.216776    ;  uncertainty theta = 0.004881, k = 0.253584
         6         5        10     1      119.243858      555.279545    ;  uncertainty theta = 0.007472, k = 0.086368
         6         7         8     1      116.502525      472.887605    ;  uncertainty theta = 0.004302, k = 0.130226
         7         8         9     1      121.240555      622.447314    ;  uncertainty theta = 0.002919, k = 0.205880
         7         8        34     1      116.813492      347.959523    ;  uncertainty theta = 0.001638, k = 0.087624
         8         9        10     1      120.931259      612.842998    ;  uncertainty theta = 0.002470, k = 0.239696
         8         9        35     1      121.868530      283.534439    ;  uncertainty theta = 0.002376, k = 0.096063
         9         8        34     1      121.994606      282.804174    ;  uncertainty theta = 0.002439, k = 0.090842
        10         9        35     1      116.754013      350.159800    ;  uncertainty theta = 0.001533, k = 0.075385
        11        12        13     1      123.230286      524.833628    ;  uncertainty theta = 0.002617, k = 0.078446
        11        12        36     1      118.889626      283.066280    ;  uncertainty theta = 0.002919, k = 0.081407
        11        14        15     1      119.254349      547.781594    ;  uncertainty theta = 0.003374, k = 0.106121
        11        14        38     1      119.907204      277.613724    ;  uncertainty theta = 0.002451, k = 0.131382
        12        11        14     1      122.340866      425.639962    ;  uncertainty theta = 0.004002, k = 0.142330
        12        13        16     1      116.223854      522.470105    ;  uncertainty theta = 0.001793, k = 0.121646
        12        13        37     1      121.744629      278.563545    ;  uncertainty theta = 0.001013, k = 0.017086
        13        12        36     1      119.371201      293.623832    ;  uncertainty theta = 0.002460, k = 0.047069
        13        16        15     1      121.276688      358.730341    ;  uncertainty theta = 0.002128, k = 0.220022
        13        16        17     1      125.144188      432.143466    ;  uncertainty theta = 0.002170, k = 0.068329
        14        15        16     1      116.665199      392.102140    ;  uncertainty theta = 0.001026, k = 0.164296
        14        15        19     1      132.868591      355.335055    ;  uncertainty theta = 0.002613, k = 0.075769
        15        14        38     1      121.264015      296.343055    ;  uncertainty theta = 0.002094, k = 0.081909
        15        16        17     1      110.702492      696.939892    ;  uncertainty theta = 0.002896, k = 0.129427
        15        19        18     1      105.499413      742.595838    ;  uncertainty theta = 0.002887, k = 0.126921
        15        19        21     1      126.644997      351.989311    ;  uncertainty theta = 0.003761, k = 0.210314
        16        13        37     1      122.924988      289.931932    ;  uncertainty theta = 0.003001, k = 0.060177
        16        15        19     1      105.317612      677.597000    ;  uncertainty theta = 0.002106, k = 0.166794
        16        17        18     1      106.967003      996.130814    ;  uncertainty theta = 0.002925, k = 0.106576
        17        18        19     1      113.841064      754.618518    ;  uncertainty theta = 0.002783, k = 0.151383
        17        18        39     1      112.703659      292.832214    ;  uncertainty theta = 0.000647, k = 0.096858
        18        19        21     1      126.449280      358.935309    ;  uncertainty theta = 0.002954, k = 0.204472
        19        18        39     1      129.884735      236.958742    ;  uncertainty theta = 0.002601, k = 0.152586
        19        21        41     1      109.834267      410.278976    ;  uncertainty theta = 0.000986, k = 0.026163
        19        21        42     1      109.834267      410.278976    ;  uncertainty theta = 0.000986, k = 0.026163
        19        21        43     1      109.834267      410.278976    ;  uncertainty theta = 0.000986, k = 0.026163
        20        22        23     1      122.762390      517.830842    ;  uncertainty theta = 0.007977, k = 0.368248
        20        22        27     1      118.512817      444.269954    ;  uncertainty theta = 0.006989, k = 0.276229
        22        20        40     1      114.408607      380.718399    ;  uncertainty theta = 0.008156, k = 0.169224
        22        23        24     1      123.289940      400.819360    ;  uncertainty theta = 0.003703, k = 0.311812
        22        23        28     1      119.668869      323.012512    ;  uncertainty theta = 0.009862, k = 0.668304
        22        27        26     1      124.922012      667.515332    ;  uncertainty theta = 0.002966, k = 0.161817
        22        27        46     1      118.731186      264.771783    ;  uncertainty theta = 0.008633, k = 0.144654
        23        22        27     1      118.657333      362.619739    ;  uncertainty theta = 0.004612, k = 0.362834
        23        24        25     1      118.808189      483.994172    ;  uncertainty theta = 0.004991, k = 0.079007
        23        24        44     1      119.535904      260.121156    ;  uncertainty theta = 0.004889, k = 0.124126
        23        28        29     1      112.903671      607.682204    ;  uncertainty theta = 0.002869, k = 0.171146
        23        28        30     1      112.903671      607.682204    ;  uncertainty theta = 0.002869, k = 0.171146
        23        28        31     1      104.371536      610.740975    ;  uncertainty theta = 0.002610, k = 0.101867
        24        23        28     1      114.589760      352.518854    ;  uncertainty theta = 0.008187, k = 0.213541
        24        25        26     1      122.431091      677.632432    ;  uncertainty theta = 0.002046, k = 0.093657
        24        25        45     1      120.256371      277.546307    ;  uncertainty theta = 0.002265, k = 0.082404
        25        24        44     1      122.214798      277.736845    ;  uncertainty theta = 0.004016, k = 0.070187
        25        26        27     1      118.268311      445.304685    ;  uncertainty theta = 0.004478, k = 0.098123
        26        25        45     1      116.840332      340.667018    ;  uncertainty theta = 0.001197, k = 0.068775
        26        27        46     1      116.579346      347.314775    ;  uncertainty theta = 0.005152, k = 0.066004
        28        31        47     1      107.113976      366.636120    ;  uncertainty theta = 0.002061, k = 0.075109
        28        31        48     1      107.113976      366.636120    ;  uncertainty theta = 0.002061, k = 0.075109
        28        31        49     1      107.113976      366.636120    ;  uncertainty theta = 0.002061, k = 0.075109
        29        28        30     1      123.473061      838.268511    ;  uncertainty theta = 0.001927, k = 0.047858
        29        28        31     1      112.603310      748.419512    ;  uncertainty theta = 0.000730, k = 0.122172
        30        28        31     1      112.603310      748.419512    ;  uncertainty theta = 0.000730, k = 0.122172
        41        21        42     1      106.547607      316.395783    ;  uncertainty theta = 0.000759, k = 0.032315
        41        21        43     1      106.547607      316.395783    ;  uncertainty theta = 0.000759, k = 0.032315
        42        21        43     1      106.547607      316.395783    ;  uncertainty theta = 0.000759, k = 0.032315
        47        31        48     1      108.843689      296.191780    ;  uncertainty theta = 0.002069, k = 0.023129
        47        31        49     1      108.843689      296.191780    ;  uncertainty theta = 0.002069, k = 0.023129
        48        31        49     1      108.843689      296.191780    ;  uncertainty theta = 0.002069, k = 0.023129

[ dihedrals ] ; propers for gromacs 4.5 or higher, use funct 9
;       ai        aj        ak        al funct           phase               k        pn
         1         2         3         4     9        0.000000       -0.064569         1    ;  uncertainty k = 0.330832
         1         2         3         4     9      180.000000        6.295690         2    ;  uncertainty k = 0.980681
         1         2         3         4     9        0.000000        0.302560         3    ;  uncertainty k = 0.190288
         1         2         3         4     9      180.000000        1.345427         4    ;  uncertainty k = 0.323598
         1         2         3        33     9        0.000000        0.249483         1    ;  uncertainty k = 0.404908
         1         2         3        33     9      180.000000        5.922879         2    ;  uncertainty k = 0.882861
         1         2         3        33     9        0.000000        1.141823         3    ;  uncertainty k = 0.151874
         1         2         3        33     9      180.000000        1.438043         4    ;  uncertainty k = 0.272334
         1         2        20        22     9        0.000000        2.391293         1    ;  uncertainty k = 0.927257
         1         2        20        22     9      180.000000        5.627188         2    ;  uncertainty k = 0.345910
         1         2        20        22     9        0.000000        0.130796         3    ;  uncertainty k = 0.275597
         1         2        20        22     9      180.000000        0.108068         4    ;  uncertainty k = 0.070782
         1         2        20        40     9        0.000000        3.714210         1    ;  uncertainty k = 1.019182
         1         2        20        40     9      180.000000        4.537149         2    ;  uncertainty k = 0.136541
         1         2        20        40     9        0.000000        0.421529         3    ;  uncertainty k = 0.226094
         1         2        20        40     9      180.000000       -0.068003         4    ;  uncertainty k = 0.067047
         1         5         6         4     9        0.000000       -0.705652         1    ;  uncertainty k = 0.517902
         1         5         6         4     9      180.000000        4.628297         2    ;  uncertainty k = 1.525724
         1         5         6         4     9        0.000000        0.275141         3    ;  uncertainty k = 0.293484
         1         5         6         4     9      180.000000        1.238654         4    ;  uncertainty k = 0.358943
         1         5         6         7     9        0.000000        0.076450         1    ;  uncertainty k = 0.284767
         1         5         6         7     9      180.000000        6.080416         2    ;  uncertainty k = 1.149880
         1         5         6         7     9        0.000000        0.106983         3    ;  uncertainty k = 0.156574
         1         5         6         7     9      180.000000        1.373586         4    ;  uncertainty k = 0.405208
         1         5        10         9     9        0.000000        0.427932         1    ;  uncertainty k = 1.029214
         1         5        10         9     9      180.000000       12.638436         2    ;  uncertainty k = 0.318597
         1         5        10         9     9        0.000000        2.227131         3    ;  uncertainty k = 0.470956
         1         5        10         9     9      180.000000        1.437848         4    ;  uncertainty k = 0.260470
         2         1         5         6     9        0.000000        0.121232         1    ;  uncertainty k = 0.458444
         2         1         5         6     9      180.000000        7.195263         2    ;  uncertainty k = 0.794920
         2         1         5         6     9        0.000000        0.037659         3    ;  uncertainty k = 0.279135
         2         1         5         6     9      180.000000        1.290689         4    ;  uncertainty k = 0.271574
         2         1         5        10     9        0.000000        0.146699         1    ;  uncertainty k = 0.428361
         2         1         5        10     9      180.000000        9.787397         2    ;  uncertainty k = 0.378069
         2         1         5        10     9        0.000000        0.568644         3    ;  uncertainty k = 0.286793
         2         1         5        10     9      180.000000        1.391198         4    ;  uncertainty k = 0.231273
         2         3         4         6     9        0.000000        0.010242         1    ;  uncertainty k = 0.541391
         2         3         4         6     9      180.000000       12.439785         2    ;  uncertainty k = 0.423697
         2         3         4         6     9        0.000000        0.369076         3    ;  uncertainty k = 0.233650
         2         3         4         6     9      180.000000        1.284490         4    ;  uncertainty k = 0.327013
         2         3         4        11     9        0.000000        0.175392         1    ;  uncertainty k = 0.183735
         2         3         4        11     9      180.000000       10.375963         2    ;  uncertainty k = 0.657103
         2         3         4        11     9        0.000000        1.343727         3    ;  uncertainty k = 0.282727
         2         3         4        11     9      180.000000        1.716548         4    ;  uncertainty k = 0.290930
         2        20        22        23     9        0.000000        0.589931         1    ;  uncertainty k = 1.531191
         2        20        22        23     9      180.000000        8.272738         2    ;  uncertainty k = 0.309915
         2        20        22        23     9        0.000000       -0.349199         3    ;  uncertainty k = 0.585019
         2        20        22        23     9      180.000000        0.078445         4    ;  uncertainty k = 0.210860
         2        20        22        27     9        0.000000        4.219815         1    ;  uncertainty k = 1.204826
         2        20        22        27     9      180.000000        5.915026         2    ;  uncertainty k = 0.485742
         2        20        22        27     9        0.000000        0.506820         3    ;  uncertainty k = 0.114705
         2        20        22        27     9      180.000000        0.021031         4    ;  uncertainty k = 0.159761
         3         2         1         5     9        0.000000       -0.221710         1    ;  uncertainty k = 0.191086
         3         2         1         5     9      180.000000        9.798197         2    ;  uncertainty k = 0.334095
         3         2         1         5     9        0.000000        0.329470         3    ;  uncertainty k = 0.461908
         3         2         1         5     9      180.000000        1.353768         4    ;  uncertainty k = 0.303960
         3         2         1        32     9        0.000000        0.274319         1    ;  uncertainty k = 0.397236
         3         2         1        32     9      180.000000        7.009104         2    ;  uncertainty k = 0.649588
         3         2         1        32     9        0.000000        1.295657         3    ;  uncertainty k = 0.118445
         3         2         1        32     9      180.000000        1.628271         4    ;  uncertainty k = 0.154579
         3         2        20        22     9        0.000000        2.704327         1    ;  uncertainty k = 1.100886
         3         2        20        22     9      180.000000        5.654041         2    ;  uncertainty k = 0.307786
         3         2        20        22     9        0.000000        0.621213         3    ;  uncertainty k = 0.287960
         3         2        20        22     9      180.000000        0.073947         4    ;  uncertainty k = 0.167406
         3         2        20        40     9        0.000000        3.340434         1    ;  uncertainty k = 0.856255
         3         2        20        40     9      180.000000        4.536997         2    ;  uncertainty k = 0.547943
         3         2        20        40     9        0.000000        0.508741         3    ;  uncertainty k = 0.257941
         3         2        20        40     9      180.000000       -0.053045         4    ;  uncertainty k = 0.129026
         3         4         6         5     9        0.000000       -0.072939         1    ;  uncertainty k = 0.467743
         3         4         6         5     9      180.000000        5.801409         2    ;  uncertainty k = 1.003840
         3         4         6         5     9        0.000000        0.062913         3    ;  uncertainty k = 0.255495
         3         4         6         5     9      180.000000        1.003620         4    ;  uncertainty k = 0.329096
         3         4         6         7     9        0.000000        0.264727         1    ;  uncertainty k = 0.531457
         3         4         6         7     9      180.000000        6.854990         2    ;  uncertainty k = 0.821338
         3         4         6         7     9        0.000000        0.379379         3    ;  uncertainty k = 0.288676
         3         4         6         7     9      180.000000        1.162188         4    ;  uncertainty k = 0.352685
         3         4        11        12     9        0.000000       -0.318634         1    ;  uncertainty k = 0.405789
         3         4        11        12     9      180.000000        5.626471         2    ;  uncertainty k = 0.155894
         3         4        11        12     9        0.000000        0.385234         3    ;  uncertainty k = 0.192656
         3         4        11        12     9      180.000000        0.548010         4    ;  uncertainty k = 0.119679
         3         4        11        14     9        0.000000       -0.556282         1    ;  uncertainty k = 0.439029
         3         4        11        14     9      180.000000        5.365909         2    ;  uncertainty k = 0.191309
         3         4        11        14     9        0.000000        0.484583         3    ;  uncertainty k = 0.142672
         3         4        11        14     9      180.000000        0.510288         4    ;  uncertainty k = 0.101036
         4         3         2        20     9        0.000000        0.285294         1    ;  uncertainty k = 0.723444
         4         3         2        20     9      180.000000        7.672981         2    ;  uncertainty k = 0.508343
         4         3         2        20     9        0.000000        0.807799         3    ;  uncertainty k = 0.275250
         4         3         2        20     9      180.000000        1.632827         4    ;  uncertainty k = 0.117691
         4         6         5        10     9        0.000000       -0.290175         1    ;  uncertainty k = 0.704279
         4         6         5        10     9      180.000000        5.023036         2    ;  uncertainty k = 1.172256
         4         6         5        10     9        0.000000        0.096622         3    ;  uncertainty k = 0.368713
         4         6         5        10     9      180.000000        1.322579         4    ;  uncertainty k = 0.228687
         4         6         7         8     9        0.000000       -0.227015         1    ;  uncertainty k = 0.557917
         4         6         7         8     9      180.000000       12.439193         2    ;  uncertainty k = 0.576485
         4         6         7         8     9        0.000000        2.050237         3    ;  uncertainty k = 0.350661
         4         6         7         8     9      180.000000        1.313646         4    ;  uncertainty k = 0.192427
         4        11        12        13     9        0.000000        0.163323         1    ;  uncertainty k = 0.416691
         4        11        12        13     9      180.000000        8.017294         2    ;  uncertainty k = 0.647506
         4        11        12        13     9        0.000000        1.255229         3    ;  uncertainty k = 0.404426
         4        11        12        13     9      180.000000        1.896664         4    ;  uncertainty k = 0.154087
         4        11        12        36     9        0.000000       -0.214476         1    ;  uncertainty k = 0.065645
         4        11        12        36     9      180.000000        7.411058         2    ;  uncertainty k = 0.412124
         4        11        12        36     9        0.000000        0.792110         3    ;  uncertainty k = 0.233831
         4        11        12        36     9      180.000000        1.141175         4    ;  uncertainty k = 0.210818
         4        11        14        15     9        0.000000        0.124432         1    ;  uncertainty k = 0.546775
         4        11        14        15     9      180.000000       11.108822         2    ;  uncertainty k = 0.581172
         4        11        14        15     9        0.000000        1.459409         3    ;  uncertainty k = 0.125370
         4        11        14        15     9      180.000000        1.660647         4    ;  uncertainty k = 0.230799
         4        11        14        38     9        0.000000       -0.207324         1    ;  uncertainty k = 0.134841
         4        11        14        38     9      180.000000        7.834479         2    ;  uncertainty k = 0.157152
         4        11        14        38     9        0.000000        0.857500         3    ;  uncertainty k = 0.239320
         4        11        14        38     9      180.000000        1.215856         4    ;  uncertainty k = 0.103759
         5         1         2        20     9        0.000000       -0.189600         1    ;  uncertainty k = 0.394616
         5         1         2        20     9      180.000000       11.233636         2    ;  uncertainty k = 0.435510
         5         1         2        20     9        0.000000        0.975271         3    ;  uncertainty k = 0.174799
         5         1         2        20     9      180.000000        1.594279         4    ;  uncertainty k = 0.138017
         5         6         4        11     9        0.000000        0.085376         1    ;  uncertainty k = 0.749101
         5         6         4        11     9      180.000000        4.865237         2    ;  uncertainty k = 0.435268
         5         6         4        11     9        0.000000        1.032363         3    ;  uncertainty k = 0.241636
         5         6         4        11     9      180.000000        1.283914         4    ;  uncertainty k = 0.352083
         5         6         7         8     9        0.000000       -0.112022         1    ;  uncertainty k = 0.910117
         5         6         7         8     9      180.000000       11.596635         2    ;  uncertainty k = 0.629166
         5         6         7         8     9        0.000000        1.457657         3    ;  uncertainty k = 0.287216
         5         6         7         8     9      180.000000        1.330866         4    ;  uncertainty k = 0.318778
         5        10         9         8     9        0.000000        0.013311         1    ;  uncertainty k = 0.131653
         5        10         9         8     9      180.000000       17.231919         2    ;  uncertainty k = 0.196674
         5        10         9         8     9        0.000000        0.888029         3    ;  uncertainty k = 0.629562
         5        10         9         8     9      180.000000        1.519865         4    ;  uncertainty k = 0.234840
         5        10         9        35     9        0.000000        0.424411         1    ;  uncertainty k = 0.517708
         5        10         9        35     9      180.000000       19.045700         2    ;  uncertainty k = 0.443936
         5        10         9        35     9        0.000000        2.354564         3    ;  uncertainty k = 0.582721
         5        10         9        35     9      180.000000        1.407429         4    ;  uncertainty k = 0.336465
         6         4         3        33     9        0.000000        0.128783         1    ;  uncertainty k = 0.270034
         6         4         3        33     9      180.000000        9.570806         2    ;  uncertainty k = 0.356390
         6         4         3        33     9        0.000000        1.474594         3    ;  uncertainty k = 0.149762
         6         4         3        33     9      180.000000        1.670043         4    ;  uncertainty k = 0.172964
         6         4        11        12     9        0.000000        0.342809         1    ;  uncertainty k = 0.714873
         6         4        11        12     9      180.000000        4.971880         2    ;  uncertainty k = 0.297040
         6         4        11        12     9        0.000000        0.380227         3    ;  uncertainty k = 0.277804
         6         4        11        12     9      180.000000        0.740965         4    ;  uncertainty k = 0.091386
         6         4        11        14     9        0.000000        0.404324         1    ;  uncertainty k = 0.749376
         6         4        11        14     9      180.000000        4.771682         2    ;  uncertainty k = 0.375144
         6         4        11        14     9        0.000000        0.242260         3    ;  uncertainty k = 0.298235
         6         4        11        14     9      180.000000        0.697221         4    ;  uncertainty k = 0.137233
         6         5         1        32     9        0.000000       -0.216754         1    ;  uncertainty k = 0.343873
         6         5         1        32     9      180.000000        5.853912         2    ;  uncertainty k = 0.879793
         6         5         1        32     9        0.000000        1.199031         3    ;  uncertainty k = 0.162614
         6         5         1        32     9      180.000000        1.246407         4    ;  uncertainty k = 0.338414
         6         5        10         9     9        0.000000       -0.063178         1    ;  uncertainty k = 1.326752
         6         5        10         9     9      180.000000       10.095142         2    ;  uncertainty k = 0.612694
         6         5        10         9     9        0.000000        1.278116         3    ;  uncertainty k = 0.488029
         6         5        10         9     9      180.000000        1.281711         4    ;  uncertainty k = 0.220795
         6         7         8         9     9        0.000000        0.020377         1    ;  uncertainty k = 0.368422
         6         7         8         9     9      180.000000       16.581266         2    ;  uncertainty k = 0.335688
         6         7         8         9     9        0.000000        0.829256         3    ;  uncertainty k = 0.750676
         6         7         8         9     9      180.000000        1.566270         4    ;  uncertainty k = 0.253962
         6         7         8        34     9        0.000000        0.275900         1    ;  uncertainty k = 0.531876
         6         7         8        34     9      180.000000       18.156242         2    ;  uncertainty k = 0.522836
         6         7         8        34     9        0.000000        2.344022         3    ;  uncertainty k = 0.655907
         6         7         8        34     9      180.000000        1.633482         4    ;  uncertainty k = 0.415921
         7         6         4        11     9        0.000000        0.258446         1    ;  uncertainty k = 1.310136
         7         6         4        11     9      180.000000        7.252808         2    ;  uncertainty k = 0.651753
         7         6         4        11     9        0.000000        0.775751         3    ;  uncertainty k = 0.529464
         7         6         4        11     9      180.000000        1.189097         4    ;  uncertainty k = 0.270249
         7         6         5        10     9        0.000000       -0.400492         1    ;  uncertainty k = 0.890675
         7         6         5        10     9      180.000000        7.087146         2    ;  uncertainty k = 0.720455
         7         6         5        10     9        0.000000        0.077638         3    ;  uncertainty k = 0.327161
         7         6         5        10     9      180.000000        1.330895         4    ;  uncertainty k = 0.356325
         7         8         9        10     9        0.000000       -0.202866         1    ;  uncertainty k = 0.782206
         7         8         9        10     9      180.000000       12.112991         2    ;  uncertainty k = 0.805807
         7         8         9        10     9        0.000000       -1.599825         3    ;  uncertainty k = 0.569696
         7         8         9        10     9      180.000000        0.918172         4    ;  uncertainty k = 0.463986
         7         8         9        35     9        0.000000        0.036887         1    ;  uncertainty k = 0.700692
         7         8         9        35     9      180.000000        6.513920         2    ;  uncertainty k = 1.135261
         7         8         9        35     9        0.000000        0.521732         3    ;  uncertainty k = 0.385188
         7         8         9        35     9      180.000000        1.117821         4    ;  uncertainty k = 0.330142
        10         5         1        32     9        0.000000        0.139927         1    ;  uncertainty k = 0.233388
        10         5         1        32     9      180.000000        8.199302         2    ;  uncertainty k = 0.492393
        10         5         1        32     9        0.000000        1.032825         3    ;  uncertainty k = 0.329116
        10         5         1        32     9      180.000000        1.219854         4    ;  uncertainty k = 0.291231
        10         9         8        34     9        0.000000       -0.033262         1    ;  uncertainty k = 0.634830
        10         9         8        34     9      180.000000        6.504272         2    ;  uncertainty k = 1.136878
        10         9         8        34     9        0.000000        0.521238         3    ;  uncertainty k = 0.433609
        10         9         8        34     9      180.000000        1.070757         4    ;  uncertainty k = 0.343719
        11         4         3        33     9        0.000000        0.159391         1    ;  uncertainty k = 0.273680
        11         4         3        33     9      180.000000        8.407350         2    ;  uncertainty k = 0.276829
        11         4         3        33     9        0.000000        0.991120         3    ;  uncertainty k = 0.158663
        11         4         3        33     9      180.000000        1.392302         4    ;  uncertainty k = 0.300372
        11        12        13        16     9        0.000000        0.030703         1    ;  uncertainty k = 0.327956
        11        12        13        16     9      180.000000       15.545586         2    ;  uncertainty k = 0.259542
        11        12        13        16     9        0.000000       -0.395807         3    ;  uncertainty k = 0.446830
        11        12        13        16     9      180.000000        0.820646         4    ;  uncertainty k = 0.357604
        11        12        13        37     9        0.000000        0.041608         1    ;  uncertainty k = 0.177458
        11        12        13        37     9      180.000000        8.387793         2    ;  uncertainty k = 0.451296
        11        12        13        37     9        0.000000        1.424481         3    ;  uncertainty k = 0.230882
        11        12        13        37     9      180.000000        1.920279         4    ;  uncertainty k = 0.281054
        11        14        15        16     9        0.000000       -0.057902         1    ;  uncertainty k = 0.249972
        11        14        15        16     9      180.000000       13.699797         2    ;  uncertainty k = 0.282602
        11        14        15        16     9        0.000000       -1.407070         3    ;  uncertainty k = 0.720100
        11        14        15        16     9      180.000000        0.764368         4    ;  uncertainty k = 0.190537
        11        14        15        19     9        0.000000        0.183755         1    ;  uncertainty k = 0.210322
        11        14        15        19     9      180.000000        9.119599         2    ;  uncertainty k = 0.150587
        11        14        15        19     9        0.000000        0.785710         3    ;  uncertainty k = 0.432777
        11        14        15        19     9      180.000000        1.347831         4    ;  uncertainty k = 0.098319
        12        11        14        15     9        0.000000        0.008638         1    ;  uncertainty k = 0.403540
        12        11        14        15     9      180.000000       13.166964         2    ;  uncertainty k = 0.420213
        12        11        14        15     9        0.000000       -0.032027         3    ;  uncertainty k = 0.325330
        12        11        14        15     9      180.000000        0.933915         4    ;  uncertainty k = 0.445686
        12        11        14        38     9        0.000000        0.313872         1    ;  uncertainty k = 0.222782
        12        11        14        38     9      180.000000        7.557139         2    ;  uncertainty k = 0.415322
        12        11        14        38     9        0.000000        1.455573         3    ;  uncertainty k = 0.141102
        12        11        14        38     9      180.000000        1.690867         4    ;  uncertainty k = 0.214009
        12        13        16        15     9        0.000000        0.243304         1    ;  uncertainty k = 0.214719
        12        13        16        15     9      180.000000       12.032230         2    ;  uncertainty k = 0.197096
        12        13        16        15     9        0.000000       -1.302526         3    ;  uncertainty k = 0.242610
        12        13        16        15     9      180.000000        0.802736         4    ;  uncertainty k = 0.232990
        12        13        16        17     9        0.000000        0.524315         1    ;  uncertainty k = 0.535985
        12        13        16        17     9      180.000000       10.103662         2    ;  uncertainty k = 0.367451
        12        13        16        17     9        0.000000        1.241482         3    ;  uncertainty k = 0.228339
        12        13        16        17     9      180.000000        1.482356         4    ;  uncertainty k = 0.240866
        13        12        11        14     9        0.000000       -0.142726         1    ;  uncertainty k = 0.111901
        13        12        11        14     9      180.000000       10.339934         2    ;  uncertainty k = 0.298782
        13        12        11        14     9        0.000000       -0.337906         3    ;  uncertainty k = 0.337802
        13        12        11        14     9      180.000000        0.985751         4    ;  uncertainty k = 0.255805
        13        16        15        14     9        0.000000       -0.602371         1    ;  uncertainty k = 0.725297
        13        16        15        14     9      180.000000        7.791315         2    ;  uncertainty k = 0.834269
        13        16        15        14     9        0.000000       -0.141477         3    ;  uncertainty k = 0.225335
        13        16        15        14     9      180.000000        0.888749         4    ;  uncertainty k = 0.405518
        13        16        15        19     9        0.000000       -0.067988         1    ;  uncertainty k = 0.293629
        13        16        15        19     9      180.000000        7.508276         2    ;  uncertainty k = 0.589962
        13        16        15        19     9        0.000000        0.073719         3    ;  uncertainty k = 0.609106
        13        16        15        19     9      180.000000        1.198913         4    ;  uncertainty k = 0.227240
        13        16        17        18     9        0.000000        1.402390         1    ;  uncertainty k = 1.285477
        13        16        17        18     9      180.000000        6.102538         2    ;  uncertainty k = 0.364359
        13        16        17        18     9        0.000000        0.939082         3    ;  uncertainty k = 0.397210
        13        16        17        18     9      180.000000        0.619043         4    ;  uncertainty k = 0.190958
        14        11        12        36     9        0.000000        0.174000         1    ;  uncertainty k = 0.084576
        14        11        12        36     9      180.000000        6.452329         2    ;  uncertainty k = 0.441006
        14        11        12        36     9        0.000000        1.372081         3    ;  uncertainty k = 0.118412
        14        11        12        36     9      180.000000        1.599633         4    ;  uncertainty k = 0.229284
        14        15        16        17     9        0.000000        0.156592         1    ;  uncertainty k = 0.380166
        14        15        16        17     9      180.000000        9.056891         2    ;  uncertainty k = 0.228161
        14        15        16        17     9        0.000000        0.059819         3    ;  uncertainty k = 0.367351
        14        15        16        17     9      180.000000        1.385225         4    ;  uncertainty k = 0.373346
        14        15        19        18     9        0.000000        0.109900         1    ;  uncertainty k = 1.516237
        14        15        19        18     9      180.000000        4.980995         2    ;  uncertainty k = 0.919351
        14        15        19        18     9        0.000000        0.557213         3    ;  uncertainty k = 0.621064
        14        15        19        18     9      180.000000        0.820227         4    ;  uncertainty k = 0.173264
        14        15        19        21     9        0.000000        0.291688         1    ;  uncertainty k = 0.937023
        14        15        19        21     9      180.000000        4.799134         2    ;  uncertainty k = 0.360624
        14        15        19        21     9        0.000000        1.243429         3    ;  uncertainty k = 0.284601
        14        15        19        21     9      180.000000        0.036366         4    ;  uncertainty k = 0.054401
        15        16        13        37     9        0.000000        0.249600         1    ;  uncertainty k = 0.234138
        15        16        13        37     9      180.000000        6.254428         2    ;  uncertainty k = 0.809746
        15        16        13        37     9        0.000000        1.260829         3    ;  uncertainty k = 0.188362
        15        16        13        37     9      180.000000        1.274418         4    ;  uncertainty k = 0.296247
        15        16        17        18     9        0.000000        0.370309         1    ;  uncertainty k = 0.854026
        15        16        17        18     9      180.000000       14.504155         2    ;  uncertainty k = 0.376718
        15        16        17        18     9        0.000000       -6.241072         3    ;  uncertainty k = 1.315689
        15        16        17        18     9      180.000000        1.009434         4    ;  uncertainty k = 0.337004
        15        19        18        17     9        0.000000       -0.239464         1    ;  uncertainty k = 0.478323
        15        19        18        17     9      180.000000       22.192558         2    ;  uncertainty k = 0.290719
        15        19        18        17     9        0.000000       -5.173978         3    ;  uncertainty k = 0.714103
        15        19        18        17     9      180.000000        1.299807         4    ;  uncertainty k = 0.561198
        15        19        18        39     9        0.000000       -0.041536         1    ;  uncertainty k = 0.659578
        15        19        18        39     9      180.000000       12.020048         2    ;  uncertainty k = 0.138535
        15        19        18        39     9        0.000000        1.722234         3    ;  uncertainty k = 0.204727
        15        19        18        39     9      180.000000        0.918845         4    ;  uncertainty k = 0.193551
        15        19        21        41     9        0.000000       -0.794919         1    ;  uncertainty k = 0.362159
        15        19        21        41     9      180.000000        0.461639         2    ;  uncertainty k = 0.232329
        15        19        21        41     9        0.000000        1.012283         3    ;  uncertainty k = 0.051388
        15        19        21        41     9      180.000000        0.175617         4    ;  uncertainty k = 0.106846
        15        19        21        42     9        0.000000       -0.794919         1    ;  uncertainty k = 0.362159
        15        19        21        42     9      180.000000        0.461639         2    ;  uncertainty k = 0.232329
        15        19        21        42     9        0.000000        1.012283         3    ;  uncertainty k = 0.051388
        15        19        21        42     9      180.000000        0.175617         4    ;  uncertainty k = 0.106846
        15        19        21        43     9        0.000000       -0.794919         1    ;  uncertainty k = 0.362159
        15        19        21        43     9      180.000000        0.461639         2    ;  uncertainty k = 0.232329
        15        19        21        43     9        0.000000        1.012283         3    ;  uncertainty k = 0.051388
        15        19        21        43     9      180.000000        0.175617         4    ;  uncertainty k = 0.106846
        16        13        12        36     9        0.000000       -0.061280         1    ;  uncertainty k = 0.189668
        16        13        12        36     9      180.000000       10.775437         2    ;  uncertainty k = 0.438026
        16        13        12        36     9        0.000000        1.354124         3    ;  uncertainty k = 0.298315
        16        13        12        36     9      180.000000        1.669615         4    ;  uncertainty k = 0.240900
        16        15        14        38     9        0.000000       -0.010941         1    ;  uncertainty k = 0.353422
        16        15        14        38     9      180.000000        7.663811         2    ;  uncertainty k = 0.826101
        16        15        14        38     9        0.000000        1.360770         3    ;  uncertainty k = 0.268049
        16        15        14        38     9      180.000000        1.271913         4    ;  uncertainty k = 0.253736
        16        15        19        18     9        0.000000        0.857225         1    ;  uncertainty k = 0.911472
        16        15        19        18     9      180.000000       11.366491         2    ;  uncertainty k = 1.172397
        16        15        19        18     9        0.000000      -10.257546         3    ;  uncertainty k = 2.136050
        16        15        19        18     9      180.000000        1.920457         4    ;  uncertainty k = 0.507489
        16        15        19        21     9        0.000000        1.198060         1    ;  uncertainty k = 1.202929
        16        15        19        21     9      180.000000        8.249303         2    ;  uncertainty k = 0.753823
        16        15        19        21     9        0.000000        1.616781         3    ;  uncertainty k = 0.382498
        16        15        19        21     9      180.000000        0.217900         4    ;  uncertainty k = 0.277517
        16        17        18        19     9        0.000000       -0.588878         1    ;  uncertainty k = 0.585147
        16        17        18        19     9      180.000000       14.985549         2    ;  uncertainty k = 0.856614
        16        17        18        19     9        0.000000       -5.775478         3    ;  uncertainty k = 0.997190
        16        17        18        19     9      180.000000        1.114705         4    ;  uncertainty k = 0.319361
        16        17        18        39     9        0.000000        0.598398         1    ;  uncertainty k = 0.756529
        16        17        18        39     9      180.000000        8.047176         2    ;  uncertainty k = 0.868979
        16        17        18        39     9        0.000000        1.146002         3    ;  uncertainty k = 0.352423
        16        17        18        39     9      180.000000        0.213333         4    ;  uncertainty k = 0.334899
        17        16        13        37     9        0.000000        0.379826         1    ;  uncertainty k = 0.177572
        17        16        13        37     9      180.000000        6.396222         2    ;  uncertainty k = 0.595575
        17        16        13        37     9        0.000000        1.034055         3    ;  uncertainty k = 0.475288
        17        16        13        37     9      180.000000        0.871925         4    ;  uncertainty k = 0.400342
        17        16        15        19     9        0.000000       -0.108629         1    ;  uncertainty k = 0.268417
        17        16        15        19     9      180.000000       13.882265         2    ;  uncertainty k = 0.975441
        17        16        15        19     9        0.000000       -3.328117         3    ;  uncertainty k = 0.938649
        17        16        15        19     9      180.000000        1.529145         4    ;  uncertainty k = 0.832378
        17        18        19        21     9        0.000000        0.831606         1    ;  uncertainty k = 0.970568
        17        18        19        21     9      180.000000       18.082039         2    ;  uncertainty k = 0.557188
        17        18        19        21     9        0.000000        2.196186         3    ;  uncertainty k = 0.587323
        17        18        19        21     9      180.000000        1.003021         4    ;  uncertainty k = 0.550327
        18        19        21        41     9        0.000000        1.054271         1    ;  uncertainty k = 0.345890
        18        19        21        41     9      180.000000        0.621162         2    ;  uncertainty k = 0.262626
        18        19        21        41     9        0.000000       -0.305593         3    ;  uncertainty k = 0.143856
        18        19        21        41     9      180.000000        0.002874         4    ;  uncertainty k = 0.035626
        18        19        21        42     9        0.000000        1.054271         1    ;  uncertainty k = 0.345890
        18        19        21        42     9      180.000000        0.621162         2    ;  uncertainty k = 0.262626
        18        19        21        42     9        0.000000       -0.305593         3    ;  uncertainty k = 0.143856
        18        19        21        42     9      180.000000        0.002874         4    ;  uncertainty k = 0.035626
        18        19        21        43     9        0.000000        1.054271         1    ;  uncertainty k = 0.345890
        18        19        21        43     9      180.000000        0.621162         2    ;  uncertainty k = 0.262626
        18        19        21        43     9        0.000000       -0.305593         3    ;  uncertainty k = 0.143856
        18        19        21        43     9      180.000000        0.002874         4    ;  uncertainty k = 0.035626
        19        15        14        38     9        0.000000        0.065816         1    ;  uncertainty k = 0.627522
        19        15        14        38     9      180.000000        5.256709         2    ;  uncertainty k = 0.273675
        19        15        14        38     9        0.000000        1.007726         3    ;  uncertainty k = 0.356004
        19        15        14        38     9      180.000000        0.836442         4    ;  uncertainty k = 0.373747
        20         2         1        32     9        0.000000       -0.570256         1    ;  uncertainty k = 0.225438
        20         2         1        32     9      180.000000        8.036467         2    ;  uncertainty k = 0.539841
        20         2         1        32     9        0.000000        0.826405         3    ;  uncertainty k = 0.259178
        20         2         1        32     9      180.000000        1.188347         4    ;  uncertainty k = 0.226655
        20         2         3        33     9        0.000000       -0.444466         1    ;  uncertainty k = 0.331197
        20         2         3        33     9      180.000000        6.982226         2    ;  uncertainty k = 0.396117
        20         2         3        33     9        0.000000        0.801490         3    ;  uncertainty k = 0.230308
        20         2         3        33     9      180.000000        1.180032         4    ;  uncertainty k = 0.128391
        20        22        23        24     9        0.000000       -0.020825         1    ;  uncertainty k = 0.416439
        20        22        23        24     9      180.000000        7.821354         2    ;  uncertainty k = 0.442938
        20        22        23        24     9        0.000000        1.029527         3    ;  uncertainty k = 0.210996
        20        22        23        24     9      180.000000        1.524188         4    ;  uncertainty k = 0.257372
        20        22        23        28     9        0.000000       -0.506013         1    ;  uncertainty k = 0.475729
        20        22        23        28     9      180.000000        7.636457         2    ;  uncertainty k = 0.878999
        20        22        23        28     9        0.000000        1.159106         3    ;  uncertainty k = 0.332202
        20        22        23        28     9      180.000000        1.400877         4    ;  uncertainty k = 0.254665
        20        22        27        26     9        0.000000        0.284522         1    ;  uncertainty k = 0.937480
        20        22        27        26     9      180.000000        8.701417         2    ;  uncertainty k = 0.854401
        20        22        27        26     9        0.000000        0.836725         3    ;  uncertainty k = 0.185926
        20        22        27        26     9      180.000000        1.496108         4    ;  uncertainty k = 0.299674
        20        22        27        46     9        0.000000        0.007095         1    ;  uncertainty k = 0.499750
        20        22        27        46     9      180.000000        5.972506         2    ;  uncertainty k = 0.983100
        20        22        27        46     9        0.000000        0.942185         3    ;  uncertainty k = 0.273147
        20        22        27        46     9      180.000000        1.158934         4    ;  uncertainty k = 0.246634
        21        19        18        39     9        0.000000        0.454842         1    ;  uncertainty k = 0.434521
        21        19        18        39     9      180.000000        6.928448         2    ;  uncertainty k = 0.488638
        21        19        18        39     9        0.000000        1.294013         3    ;  uncertainty k = 0.525228
        21        19        18        39     9      180.000000        0.636195         4    ;  uncertainty k = 0.248054
        22        23        24        25     9        0.000000       -0.265671         1    ;  uncertainty k = 0.419233
        22        23        24        25     9      180.000000       10.460453         2    ;  uncertainty k = 0.389563
        22        23        24        25     9        0.000000       -0.366509         3    ;  uncertainty k = 0.514478
        22        23        24        25     9      180.000000        0.929899         4    ;  uncertainty k = 0.330294
        22        23        24        44     9        0.000000        0.238370         1    ;  uncertainty k = 0.382236
        22        23        24        44     9      180.000000        7.525221         2    ;  uncertainty k = 0.903254
        22        23        24        44     9        0.000000        1.267264         3    ;  uncertainty k = 0.290614
        22        23        24        44     9      180.000000        1.474858         4    ;  uncertainty k = 0.123420
        22        23        28        29     9        0.000000       -5.228554         1    ;  uncertainty k = 2.158654
        22        23        28        29     9      180.000000       -0.861346         2    ;  uncertainty k = 0.805164
        22        23        28        29     9        0.000000        1.201043         3    ;  uncertainty k = 0.425533
        22        23        28        29     9      180.000000       -0.042324         4    ;  uncertainty k = 0.375369
        22        23        28        30     9        0.000000       -5.228554         1    ;  uncertainty k = 2.158654
        22        23        28        30     9      180.000000       -0.861346         2    ;  uncertainty k = 0.805164
        22        23        28        30     9        0.000000        1.201043         3    ;  uncertainty k = 0.425533
        22        23        28        30     9      180.000000       -0.042324         4    ;  uncertainty k = 0.375369
        22        23        28        31     9        0.000000        0.262418         1    ;  uncertainty k = 1.833673
        22        23        28        31     9      180.000000       -1.026927         2    ;  uncertainty k = 0.798424
        22        23        28        31     9        0.000000        0.956202         3    ;  uncertainty k = 0.348087
        22        23        28        31     9      180.000000        0.178349         4    ;  uncertainty k = 0.195566
        22        27        26        25     9        0.000000        0.036596         1    ;  uncertainty k = 0.371495
        22        27        26        25     9      180.000000       16.597043         2    ;  uncertainty k = 0.304805
        22        27        26        25     9        0.000000        0.966620         3    ;  uncertainty k = 0.517837
        22        27        26        25     9      180.000000        1.451097         4    ;  uncertainty k = 0.177715
        23        22        20        40     9        0.000000        9.262104         1    ;  uncertainty k = 0.773177
        23        22        20        40     9      180.000000        3.945831         2    ;  uncertainty k = 0.536445
        23        22        20        40     9        0.000000        0.752571         3    ;  uncertainty k = 0.273739
        23        22        20        40     9      180.000000       -0.119637         4    ;  uncertainty k = 0.176171
        23        22        27        26     9        0.000000       -0.562843         1    ;  uncertainty k = 0.540741
        23        22        27        26     9      180.000000        6.748516         2    ;  uncertainty k = 1.268444
        23        22        27        26     9        0.000000        0.077078         3    ;  uncertainty k = 0.370452
        23        22        27        26     9      180.000000        1.216830         4    ;  uncertainty k = 0.295894
        23        22        27        46     9        0.000000        0.000817         1    ;  uncertainty k = 1.384589
        23        22        27        46     9      180.000000        4.685088         2    ;  uncertainty k = 1.110642
        23        22        27        46     9        0.000000        1.104677         3    ;  uncertainty k = 0.238510
        23        22        27        46     9      180.000000        1.089443         4    ;  uncertainty k = 0.205054
        23        24        25        26     9        0.000000       -0.252469         1    ;  uncertainty k = 0.431541
        23        24        25        26     9      180.000000       13.556322         2    ;  uncertainty k = 0.574918
        23        24        25        26     9        0.000000       -1.106331         3    ;  uncertainty k = 1.113054
        23        24        25        26     9      180.000000        0.952273         4    ;  uncertainty k = 0.151718
        23        24        25        45     9        0.000000       -0.148525         1    ;  uncertainty k = 0.589762
        23        24        25        45     9      180.000000        6.244194         2    ;  uncertainty k = 0.249577
        23        24        25        45     9        0.000000        1.014103         3    ;  uncertainty k = 0.237437
        23        24        25        45     9      180.000000        1.497615         4    ;  uncertainty k = 0.181165
        23        28        31        47     9        0.000000        2.345204         1    ;  uncertainty k = 0.643494
        23        28        31        47     9      180.000000       -2.433990         2    ;  uncertainty k = 0.375725
        23        28        31        47     9        0.000000        0.170344         3    ;  uncertainty k = 0.101207
        23        28        31        47     9      180.000000        0.001304         4    ;  uncertainty k = 0.149207
        23        28        31        48     9        0.000000        2.345204         1    ;  uncertainty k = 0.643494
        23        28        31        48     9      180.000000       -2.433990         2    ;  uncertainty k = 0.375725
        23        28        31        48     9        0.000000        0.170344         3    ;  uncertainty k = 0.101207
        23        28        31        48     9      180.000000        0.001304         4    ;  uncertainty k = 0.149207
        23        28        31        49     9        0.000000        2.345204         1    ;  uncertainty k = 0.643494
        23        28        31        49     9      180.000000       -2.433990         2    ;  uncertainty k = 0.375725
        23        28        31        49     9        0.000000        0.170344         3    ;  uncertainty k = 0.101207
        23        28        31        49     9      180.000000        0.001304         4    ;  uncertainty k = 0.149207
        24        23        22        27     9        0.000000       -0.438835         1    ;  uncertainty k = 0.840318
        24        23        22        27     9      180.000000        4.610451         2    ;  uncertainty k = 1.641700
        24        23        22        27     9        0.000000        0.358135         3    ;  uncertainty k = 0.323564
        24        23        22        27     9      180.000000        1.351097         4    ;  uncertainty k = 0.315699
        24        23        28        29     9        0.000000       -0.492328         1    ;  uncertainty k = 1.108208
        24        23        28        29     9      180.000000        0.135605         2    ;  uncertainty k = 0.455041
        24        23        28        29     9        0.000000        0.177824         3    ;  uncertainty k = 0.237275
        24        23        28        29     9      180.000000        0.012963         4    ;  uncertainty k = 0.209193
        24        23        28        30     9        0.000000       -0.492328         1    ;  uncertainty k = 1.108208
        24        23        28        30     9      180.000000        0.135605         2    ;  uncertainty k = 0.455041
        24        23        28        30     9        0.000000        0.177824         3    ;  uncertainty k = 0.237275
        24        23        28        30     9      180.000000        0.012963         4    ;  uncertainty k = 0.209193
        24        23        28        31     9        0.000000        3.406871         1    ;  uncertainty k = 1.708514
        24        23        28        31     9      180.000000        0.171418         2    ;  uncertainty k = 0.576991
        24        23        28        31     9        0.000000       -0.078308         3    ;  uncertainty k = 0.399032
        24        23        28        31     9      180.000000        0.444415         4    ;  uncertainty k = 0.155672
        24        25        26        27     9        0.000000       -0.485018         1    ;  uncertainty k = 0.425216
        24        25        26        27     9      180.000000       15.189730         2    ;  uncertainty k = 0.461239
        24        25        26        27     9        0.000000        1.127628         3    ;  uncertainty k = 0.661679
        24        25        26        27     9      180.000000        1.285431         4    ;  uncertainty k = 0.097276
        25        24        23        28     9        0.000000        0.601783         1    ;  uncertainty k = 0.840721
        25        24        23        28     9      180.000000        9.254871         2    ;  uncertainty k = 0.664789
        25        24        23        28     9        0.000000        1.560649         3    ;  uncertainty k = 0.502422
        25        24        23        28     9      180.000000        1.838812         4    ;  uncertainty k = 0.146619
        25        26        27        46     9        0.000000        0.508068         1    ;  uncertainty k = 0.686764
        25        26        27        46     9      180.000000       16.706316         2    ;  uncertainty k = 0.583289
        25        26        27        46     9        0.000000        2.361241         3    ;  uncertainty k = 0.235965
        25        26        27        46     9      180.000000        1.517602         4    ;  uncertainty k = 0.508263
        26        25        24        44     9        0.000000       -0.068095         1    ;  uncertainty k = 0.262319
        26        25        24        44     9      180.000000        9.165642         2    ;  uncertainty k = 0.726880
        26        25        24        44     9        0.000000        0.979809         3    ;  uncertainty k = 0.350347
        26        25        24        44     9      180.000000        1.652654         4    ;  uncertainty k = 0.185846
        27        22        20        40     9        0.000000        0.917542         1    ;  uncertainty k = 1.463603
        27        22        20        40     9      180.000000        4.182460         2    ;  uncertainty k = 0.765146
        27        22        20        40     9        0.000000       -0.106076         3    ;  uncertainty k = 0.498483
        27        22        20        40     9      180.000000       -0.220151         4    ;  uncertainty k = 0.253379
        27        22        23        28     9        0.000000        0.917642         1    ;  uncertainty k = 0.634888
        27        22        23        28     9      180.000000        4.793053         2    ;  uncertainty k = 1.087369
        27        22        23        28     9        0.000000        1.108847         3    ;  uncertainty k = 0.290817
        27        22        23        28     9      180.000000        1.561540         4    ;  uncertainty k = 0.342190
        27        26        25        45     9        0.000000        0.172531         1    ;  uncertainty k = 0.566096
        27        26        25        45     9      180.000000       15.445793         2    ;  uncertainty k = 0.425751
        27        26        25        45     9        0.000000        2.152703         3    ;  uncertainty k = 0.508048
        27        26        25        45     9      180.000000        1.381410         4    ;  uncertainty k = 0.359272
        28        23        24        44     9        0.000000       -0.424035         1    ;  uncertainty k = 0.616072
        28        23        24        44     9      180.000000        7.010377         2    ;  uncertainty k = 0.550570
        28        23        24        44     9        0.000000        0.781435         3    ;  uncertainty k = 0.169299
        28        23        24        44     9      180.000000        1.269236         4    ;  uncertainty k = 0.186788
        29        28        31        47     9        0.000000       -0.057642         1    ;  uncertainty k = 0.603701
        29        28        31        47     9      180.000000       -0.366450         2    ;  uncertainty k = 0.288160
        29        28        31        47     9        0.000000        0.801561         3    ;  uncertainty k = 0.057212
        29        28        31        47     9      180.000000        0.039211         4    ;  uncertainty k = 0.101280
        29        28        31        48     9        0.000000       -0.057642         1    ;  uncertainty k = 0.603701
        29        28        31        48     9      180.000000       -0.366450         2    ;  uncertainty k = 0.288160
        29        28        31        48     9        0.000000        0.801561         3    ;  uncertainty k = 0.057212
        29        28        31        48     9      180.000000        0.039211         4    ;  uncertainty k = 0.101280
        29        28        31        49     9        0.000000       -0.057642         1    ;  uncertainty k = 0.603701
        29        28        31        49     9      180.000000       -0.366450         2    ;  uncertainty k = 0.288160
        29        28        31        49     9        0.000000        0.801561         3    ;  uncertainty k = 0.057212
        29        28        31        49     9      180.000000        0.039211         4    ;  uncertainty k = 0.101280
        30        28        31        47     9        0.000000       -0.057642         1    ;  uncertainty k = 0.603701
        30        28        31        47     9      180.000000       -0.366450         2    ;  uncertainty k = 0.288160
        30        28        31        47     9        0.000000        0.801561         3    ;  uncertainty k = 0.057212
        30        28        31        47     9      180.000000        0.039211         4    ;  uncertainty k = 0.101280
        30        28        31        48     9        0.000000       -0.057642         1    ;  uncertainty k = 0.603701
        30        28        31        48     9      180.000000       -0.366450         2    ;  uncertainty k = 0.288160
        30        28        31        48     9        0.000000        0.801561         3    ;  uncertainty k = 0.057212
        30        28        31        48     9      180.000000        0.039211         4    ;  uncertainty k = 0.101280
        30        28        31        49     9        0.000000       -0.057642         1    ;  uncertainty k = 0.603701
        30        28        31        49     9      180.000000       -0.366450         2    ;  uncertainty k = 0.288160
        30        28        31        49     9        0.000000        0.801561         3    ;  uncertainty k = 0.057212
        30        28        31        49     9      180.000000        0.039211         4    ;  uncertainty k = 0.101280
        34         8         9        35     9        0.000000       -0.152652         1    ;  uncertainty k = 0.805688
        34         8         9        35     9      180.000000        5.398109         2    ;  uncertainty k = 0.723628
        34         8         9        35     9        0.000000        0.147471         3    ;  uncertainty k = 0.248173
        34         8         9        35     9      180.000000        0.216442         4    ;  uncertainty k = 0.153410
        36        12        13        37     9        0.000000       -0.106116         1    ;  uncertainty k = 0.168040
        36        12        13        37     9      180.000000        7.562335         2    ;  uncertainty k = 0.289050
        36        12        13        37     9        0.000000       -0.319259         3    ;  uncertainty k = 0.260939
        36        12        13        37     9      180.000000        0.172270         4    ;  uncertainty k = 0.105405
        44        24        25        45     9        0.000000       -0.307962         1    ;  uncertainty k = 0.440102
        44        24        25        45     9      180.000000        6.502708         2    ;  uncertainty k = 0.379417
        44        24        25        45     9        0.000000       -0.130868         3    ;  uncertainty k = 0.246878
        44        24        25        45     9      180.000000        0.283979         4    ;  uncertainty k = 0.141773

[ dihedrals ] ; impropers
;       ai        aj        ak        al funct           phase               k        pn
         1         2         5        32     4      180.000000        2.538910         2    ;  uncertainty k = 0.373104
         1         5        32         2     4      180.000000        2.538910         2    ;  uncertainty k = 0.373104
         1        32         2         5     4      180.000000        2.538910         2    ;  uncertainty k = 0.373104
         2         1         3        20     4      180.000000       20.686963         2    ;  uncertainty k = 0.060627
         2         3        20         1     4      180.000000       20.686963         2    ;  uncertainty k = 0.060627
         2        20         1         3     4      180.000000       20.686963         2    ;  uncertainty k = 0.060627
         3         2         4        33     4      180.000000        3.058278         2    ;  uncertainty k = 0.375591
         3         4        33         2     4      180.000000        3.058278         2    ;  uncertainty k = 0.375591
         3        33         2         4     4      180.000000        3.058278         2    ;  uncertainty k = 0.375591
         4         3         6        11     4      180.000000       18.176668         2    ;  uncertainty k = 0.114138
         4         6        11         3     4      180.000000       18.176668         2    ;  uncertainty k = 0.114138
         4        11         3         6     4      180.000000       18.176668         2    ;  uncertainty k = 0.114138
         5         1         6        10     4      180.000000       18.442492         2    ;  uncertainty k = 0.055238
         5         6        10         1     4      180.000000       18.442492         2    ;  uncertainty k = 0.055238
         5        10         1         6     4      180.000000       18.442492         2    ;  uncertainty k = 0.055238
         6         4         5         7     4      180.000000       16.621032         2    ;  uncertainty k = 0.088768
         6         5         7         4     4      180.000000       16.621032         2    ;  uncertainty k = 0.088768
         6         7         4         5     4      180.000000       16.621032         2    ;  uncertainty k = 0.088768
         8         7         9        34     4      180.000000       12.058352         2    ;  uncertainty k = 0.155869
         8         9        34         7     4      180.000000       12.058352         2    ;  uncertainty k = 0.155869
         8        34         7         9     4      180.000000       12.058352         2    ;  uncertainty k = 0.155869
         9         8        10        35     4      180.000000       11.948848         2    ;  uncertainty k = 0.101429
         9        10        35         8     4      180.000000       11.948848         2    ;  uncertainty k = 0.101429
         9        35         8        10     4      180.000000       11.948848         2    ;  uncertainty k = 0.101429
        11         4        12        14     4      180.000000       11.898003         2    ;  uncertainty k = 0.180345
        11        12        14         4     4      180.000000       11.898003         2    ;  uncertainty k = 0.180345
        11        14         4        12     4      180.000000       11.898003         2    ;  uncertainty k = 0.180345
        12        11        13        36     4      180.000000        4.077043         2    ;  uncertainty k = 0.090701
        12        13        36        11     4      180.000000        4.077043         2    ;  uncertainty k = 0.090701
        12        36        11        13     4      180.000000        4.077043         2    ;  uncertainty k = 0.090701
        13        12        16        37     4      180.000000        2.848333         2    ;  uncertainty k = 0.279040
        13        16        37        12     4      180.000000        2.848333         2    ;  uncertainty k = 0.279040
        13        37        12        16     4      180.000000        2.848333         2    ;  uncertainty k = 0.279040
        14        11        15        38     4      180.000000        4.768793         2    ;  uncertainty k = 0.299228
        14        15        38        11     4      180.000000        4.768793         2    ;  uncertainty k = 0.299228
        14        38        11        15     4      180.000000        4.768793         2    ;  uncertainty k = 0.299228
        15        14        16        19     4      180.000000        0.150659         2    ;  uncertainty k = 0.336885
        15        16        19        14     4      180.000000        0.150659         2    ;  uncertainty k = 0.336885
        15        19        14        16     4      180.000000        0.150659         2    ;  uncertainty k = 0.336885
        16        13        15        17     4      180.000000        1.015071         2    ;  uncertainty k = 1.734908
        16        15        17        13     4      180.000000        1.015071         2    ;  uncertainty k = 1.734908
        16        17        13        15     4      180.000000        1.015071         2    ;  uncertainty k = 1.734908
        18        17        19        39     4      180.000000        0.723002         2    ;  uncertainty k = 0.784427
        18        19        39        17     4      180.000000        0.723002         2    ;  uncertainty k = 0.784427
        18        39        17        19     4      180.000000        0.723002         2    ;  uncertainty k = 0.784427
        19        15        18        21     4      180.000000        4.283032         2    ;  uncertainty k = 0.582408
        19        18        21        15     4      180.000000        4.283032         2    ;  uncertainty k = 0.582408
        19        21        15        18     4      180.000000        4.283032         2    ;  uncertainty k = 0.582408
        20         2        22        40     4      180.000000        1.379952         2    ;  uncertainty k = 1.192014
        20        22        40         2     4      180.000000        1.379952         2    ;  uncertainty k = 1.192014
        20        40         2        22     4      180.000000        1.379952         2    ;  uncertainty k = 1.192014
        22        20        23        27     4      180.000000       22.010767         2    ;  uncertainty k = 0.077536
        22        23        27        20     4      180.000000       22.010767         2    ;  uncertainty k = 0.077536
        22        27        20        23     4      180.000000       22.010767         2    ;  uncertainty k = 0.077536
        23        22        24        28     4      180.000000        5.945008         2    ;  uncertainty k = 0.459976
        23        24        28        22     4      180.000000        5.945008         2    ;  uncertainty k = 0.459976
        23        28        22        24     4      180.000000        5.945008         2    ;  uncertainty k = 0.459976
        24        23        25        44     4      180.000000        4.322237         2    ;  uncertainty k = 0.262313
        24        25        44        23     4      180.000000        4.322237         2    ;  uncertainty k = 0.262313
        24        44        23        25     4      180.000000        4.322237         2    ;  uncertainty k = 0.262313
        25        24        26        45     4      180.000000       11.385378         2    ;  uncertainty k = 0.107036
        25        26        45        24     4      180.000000       11.385378         2    ;  uncertainty k = 0.107036
        25        45        24        26     4      180.000000       11.385378         2    ;  uncertainty k = 0.107036
        27        22        26        46     4      180.000000       10.900437         2    ;  uncertainty k = 0.192114
        27        26        46        22     4      180.000000       10.900437         2    ;  uncertainty k = 0.192114
        27        46        22        26     4      180.000000       10.900437         2    ;  uncertainty k = 0.192114

[ pairs ]
;       ai        aj funct
         1         4     1
         1         7     1
         1         9     1
         1        22     1
         1        33     1
         1        40     1
         2         6     1
         2        10     1
         2        11     1
         2        23     1
         2        27     1
         3         5     1
         3         7     1
         3        12     1
         3        14     1
         3        22     1
         3        32     1
         3        40     1
         4         8     1
         4        10     1
         4        13     1
         4        15     1
         4        20     1
         4        36     1
         4        38     1
         5         8     1
         5        11     1
         5        20     1
         5        35     1
         6         9     1
         6        12     1
         6        14     1
         6        32     1
         6        33     1
         6        34     1
         7        10     1
         7        11     1
         7        35     1
        10        32     1
        10        34     1
        11        16     1
        11        19     1
        11        33     1
        11        37     1
        12        15     1
        12        17     1
        12        38     1
        13        14     1
        13        18     1
        13        19     1
        14        17     1
        14        18     1
        14        21     1
        14        36     1
        15        37     1
        15        39     1
        15        41     1
        15        42     1
        15        43     1
        16        21     1
        16        36     1
        16        38     1
        16        39     1
        17        21     1
        17        37     1
        18        41     1
        18        42     1
        18        43     1
        19        38     1
        20        24     1
        20        26     1
        20        28     1
        20        32     1
        20        33     1
        20        46     1
        21        39     1
        22        25     1
        22        29     1
        22        30     1
        22        31     1
        22        44     1
        23        26     1
        23        40     1
        23        45     1
        23        46     1
        23        47     1
        23        48     1
        23        49     1
        24        27     1
        24        29     1
        24        30     1
        24        31     1
        25        28     1
        25        46     1
        26        44     1
        27        28     1
        27        40     1
        27        45     1
        28        44     1
        29        47     1
        29        48     1
        29        49     1
        30        47     1
        30        48     1
        30        49     1
        34        35     1
        36        37     1
        44        45     1
