; ITP file created by ByteFF-joint-25, 2026-02-17 09:23:40.697450

[ atomtypes ]
;name           bonded.type        at.num        mass        charge   ptype           sigma         epsilon
 c0bf                                   6      0.0000       0.00000       A     3.39787e-01     4.51000e-01    ;  uncertainty sigma = 0.000007, epsilon = 0.000697
 c1bf                                   6      0.0000       0.00000       A     3.39778e-01     4.50893e-01    ;  uncertainty sigma = 0.000003, epsilon = 0.000829
 c2bf                                   6      0.0000       0.00000       A     3.39778e-01     4.50893e-01    ;  uncertainty sigma = 0.000003, epsilon = 0.000829
 c3bf                                   6      0.0000       0.00000       A     3.39787e-01     4.51000e-01    ;  uncertainty sigma = 0.000007, epsilon = 0.000697
 o4bf                                   8      0.0000       0.00000       A     3.15613e-01     3.03556e-01    ;  uncertainty sigma = 0.000019, epsilon = 0.001085
 c5bf                                   6      0.0000       0.00000       A     3.31537e-01     4.13575e-01    ;  uncertainty sigma = 0.000012, epsilon = 0.001028
 c6bf                                   6      0.0000       0.00000       A     3.31531e-01     4.13819e-01    ;  uncertainty sigma = 0.000011, epsilon = 0.000840
 c7bf                                   6      0.0000       0.00000       A     3.39779e-01     4.51067e-01    ;  uncertainty sigma = 0.000013, epsilon = 0.000925
 c8bf                                   6      0.0000       0.00000       A     3.31546e-01     4.13360e-01    ;  uncertainty sigma = 0.000022, epsilon = 0.000852
 c9bf                                   6      0.0000       0.00000       A     3.31502e-01     4.13156e-01    ;  uncertainty sigma = 0.000008, epsilon = 0.000582
 c10bf                                  6      0.0000       0.00000       A     3.31527e-01     4.12970e-01    ;  uncertainty sigma = 0.000017, epsilon = 0.001857
 c11bf                                  6      0.0000       0.00000       A     3.31543e-01     4.13634e-01    ;  uncertainty sigma = 0.000007, epsilon = 0.001393
 c12bf                                  6      0.0000       0.00000       A     3.31515e-01     4.13332e-01    ;  uncertainty sigma = 0.000014, epsilon = 0.001308
 c13bf                                  6      0.0000       0.00000       A     3.39766e-01     4.51302e-01    ;  uncertainty sigma = 0.000006, epsilon = 0.000615
 n14bf                                  7      0.0000       0.00000       A     3.38435e-01     3.93631e-01    ;  uncertainty sigma = 0.000019, epsilon = 0.001026
 o15bf                                  8      0.0000       0.00000       A     3.04828e-01     6.11763e-01    ;  uncertainty sigma = 0.000008, epsilon = 0.001130
 n16bf                                  7      0.0000       0.00000       A     3.18129e-01     6.83142e-01    ;  uncertainty sigma = 0.000032, epsilon = 0.001761
 n17bf                                  7      0.0000       0.00000       A     3.38438e-01     3.93028e-01    ;  uncertainty sigma = 0.000048, epsilon = 0.001683
 n18bf                                  7      0.0000       0.00000       A     3.27898e-01     6.46446e-01    ;  uncertainty sigma = 0.000031, epsilon = 0.005668
 h19bf                                  1      0.0000       0.00000       A     2.62571e-01     6.65822e-02    ;  uncertainty sigma = 0.000020, epsilon = 0.000737
 h20bf                                  1      0.0000       0.00000       A     2.53663e-01     6.71784e-02    ;  uncertainty sigma = 0.000041, epsilon = 0.000925
 h21bf                                  1      0.0000       0.00000       A     2.60021e-01     8.67664e-02    ;  uncertainty sigma = 0.000009, epsilon = 0.000445
 h22bf                                  1      0.0000       0.00000       A     2.60021e-01     8.67664e-02    ;  uncertainty sigma = 0.000009, epsilon = 0.000445
 h23bf                                  1      0.0000       0.00000       A     2.42188e-01     8.67182e-02    ;  uncertainty sigma = 0.000018, epsilon = 0.000739
 h24bf                                  1      0.0000       0.00000       A     2.42188e-01     8.67182e-02    ;  uncertainty sigma = 0.000018, epsilon = 0.000739
 h25bf                                  1      0.0000       0.00000       A     2.42188e-01     8.67182e-02    ;  uncertainty sigma = 0.000018, epsilon = 0.000739
 h26bf                                  1      0.0000       0.00000       A     2.42188e-01     8.67182e-02    ;  uncertainty sigma = 0.000018, epsilon = 0.000739
 h27bf                                  1      0.0000       0.00000       A     2.60021e-01     8.67664e-02    ;  uncertainty sigma = 0.000009, epsilon = 0.000445
 h28bf                                  1      0.0000       0.00000       A     2.60021e-01     8.67664e-02    ;  uncertainty sigma = 0.000009, epsilon = 0.000445
 h29bf                                  1      0.0000       0.00000       A     2.42212e-01     8.65674e-02    ;  uncertainty sigma = 0.000016, epsilon = 0.000625
 h30bf                                  1      0.0000       0.00000       A     2.42206e-01     8.67702e-02    ;  uncertainty sigma = 0.000014, epsilon = 0.000617
 h31bf                                  1      0.0000       0.00000       A     2.42206e-01     8.67702e-02    ;  uncertainty sigma = 0.000014, epsilon = 0.000617
 h32bf                                  1      0.0000       0.00000       A     2.42206e-01     8.67702e-02    ;  uncertainty sigma = 0.000014, epsilon = 0.000617
 h33bf                                  1      0.0000       0.00000       A     1.10703e-01     4.14050e-02    ;  uncertainty sigma = 0.000035, epsilon = 0.000993
 c34bf                                  6      0.0000       0.00000       A     3.31517e-01     4.13361e-01    ;  uncertainty sigma = 0.000004, epsilon = 0.000572
 c35bf                                  6      0.0000       0.00000       A     3.31526e-01     4.13343e-01    ;  uncertainty sigma = 0.000003, epsilon = 0.000548
 c36bf                                  6      0.0000       0.00000       A     3.31517e-01     4.13394e-01    ;  uncertainty sigma = 0.000009, epsilon = 0.000652
 c37bf                                  6      0.0000       0.00000       A     3.31524e-01     4.13771e-01    ;  uncertainty sigma = 0.000020, epsilon = 0.001256
 c38bf                                  6      0.0000       0.00000       A     3.31508e-01     4.13271e-01    ;  uncertainty sigma = 0.000006, epsilon = 0.000707
 c39bf                                  6      0.0000       0.00000       A     3.31516e-01     4.13386e-01    ;  uncertainty sigma = 0.000003, epsilon = 0.000593
 h40bf                                  1      0.0000       0.00000       A     2.62561e-01     6.69800e-02    ;  uncertainty sigma = 0.000008, epsilon = 0.000493
 h41bf                                  1      0.0000       0.00000       A     2.62560e-01     6.70281e-02    ;  uncertainty sigma = 0.000010, epsilon = 0.000540
 cl42bf                                17      0.0000       0.00000       A     3.46603e-01     1.10423e+00    ;  uncertainty sigma = 0.000018, epsilon = 0.000946
 h43bf                                  1      0.0000       0.00000       A     2.62564e-01     6.70392e-02    ;  uncertainty sigma = 0.000010, epsilon = 0.000469
 h44bf                                  1      0.0000       0.00000       A     2.62559e-01     6.70249e-02    ;  uncertainty sigma = 0.000010, epsilon = 0.000440

[ moleculetype ]
;name             nrexcl
 MOL                   3

[ atoms ]
;       nr            type      resi   res      atom      cgnr      charge          mass ; qtot
         1            c0bf         1   UNL        c0         1    -0.12711       12.0110 ; qtot   -0.127
         2            c1bf         1   UNL        c1         2     0.13209       12.0110 ; qtot    0.005
         3            c2bf         1   UNL        c2         3     0.13209       12.0110 ; qtot    0.137
         4            c3bf         1   UNL        c3         4    -0.12711       12.0110 ; qtot    0.010
         5            o4bf         1   UNL        o4         5    -0.41527       15.9990 ; qtot   -0.405
         6            c5bf         1   UNL        c5         6     0.71394       12.0110 ; qtot    0.309
         7            c6bf         1   UNL        c6         7     0.92634       12.0110 ; qtot    1.235
         8            c7bf         1   UNL        c7         8     0.24784       12.0110 ; qtot    1.483
         9            c8bf         1   UNL        c8         9    -0.42038       12.0110 ; qtot    1.062
        10            c9bf         1   UNL        c9        10     0.01207       12.0110 ; qtot    1.075
        11           c10bf         1   UNL       c10        11     0.63767       12.0110 ; qtot    1.712
        12           c11bf         1   UNL       c11        12     0.52466       12.0110 ; qtot    2.237
        13           c12bf         1   UNL       c12        13    -0.12803       12.0110 ; qtot    2.109
        14           c13bf         1   UNL       c13        14     0.08114       12.0110 ; qtot    2.190
        15           n14bf         1   UNL       n14        15    -0.77299       14.0070 ; qtot    1.417
        16           o15bf         1   UNL       o15        16    -0.60626       15.9990 ; qtot    0.811
        17           n16bf         1   UNL       n16        17    -0.43835       14.0070 ; qtot    0.372
        18           n17bf         1   UNL       n17        18    -0.83137       14.0070 ; qtot   -0.459
        19           n18bf         1   UNL       n18        19    -0.86394       14.0070 ; qtot   -1.323
        20           h19bf         1   UNL       h19        20     0.15447        1.0080 ; qtot   -1.168
        21           h20bf         1   UNL       h20        21     0.03077        1.0080 ; qtot   -1.138
        22           h21bf         1   UNL       h21        22     0.05892        1.0080 ; qtot   -1.079
        23           h22bf         1   UNL       h22        23     0.05892        1.0080 ; qtot   -1.020
        24           h23bf         1   UNL       h23        24     0.04655        1.0080 ; qtot   -0.973
        25           h24bf         1   UNL       h24        25     0.04655        1.0080 ; qtot   -0.927
        26           h25bf         1   UNL       h25        26     0.04655        1.0080 ; qtot   -0.880
        27           h26bf         1   UNL       h26        27     0.04655        1.0080 ; qtot   -0.834
        28           h27bf         1   UNL       h27        28     0.05892        1.0080 ; qtot   -0.775
        29           h28bf         1   UNL       h28        29     0.05892        1.0080 ; qtot   -0.716
        30           h29bf         1   UNL       h29        30     0.07162        1.0080 ; qtot   -0.644
        31           h30bf         1   UNL       h30        31     0.06274        1.0080 ; qtot   -0.581
        32           h31bf         1   UNL       h31        32     0.06274        1.0080 ; qtot   -0.519
        33           h32bf         1   UNL       h32        33     0.06274        1.0080 ; qtot   -0.456
        34           h33bf         1   UNL       h33        34     0.44845        1.0080 ; qtot   -0.008
        35           c34bf         1   UNL       c34        35    -0.11345       12.0110 ; qtot   -0.121
        36           c35bf         1   UNL       c35        36    -0.12475       12.0110 ; qtot   -0.246
        37           c36bf         1   UNL       c36        37     0.05119       12.0110 ; qtot   -0.195
        38           c37bf         1   UNL       c37        38    -0.03318       12.0110 ; qtot   -0.228
        39           c38bf         1   UNL       c38        39    -0.10093       12.0110 ; qtot   -0.329
        40           c39bf         1   UNL       c39        40    -0.13008       12.0110 ; qtot   -0.459
        41           h40bf         1   UNL       h40        41     0.13911        1.0080 ; qtot   -0.320
        42           h41bf         1   UNL       h41        42     0.15088        1.0080 ; qtot   -0.169
        43          cl42bf         1   UNL      cl42        43    -0.11368       35.4530 ; qtot   -0.282
        44           h43bf         1   UNL       h43        44     0.14280        1.0080 ; qtot   -0.140
        45           h44bf         1   UNL       h44        45     0.13965        1.0080 ; qtot    0.000

[ bonds ]
;       ai        aj funct               r               k
         1         2     1        0.153564   209800.351904    ;  uncertainty r = 0.000030, k = 4.398850
         1         8     1        0.153800   204926.313672    ;  uncertainty r = 0.000079, k = 2.875806
         1        22     1        0.109644   310935.400293    ;  uncertainty r = 0.000023, k = 1.135247
         1        23     1        0.109644   310935.400293    ;  uncertainty r = 0.000023, k = 1.135247
         2         5     1        0.142789   254488.480176    ;  uncertainty r = 0.000039, k = 2.801925
         2        24     1        0.109818   309244.843652    ;  uncertainty r = 0.000020, k = 0.854841
         2        25     1        0.109818   309244.843652    ;  uncertainty r = 0.000020, k = 0.854841
         3         4     1        0.153564   209800.351904    ;  uncertainty r = 0.000030, k = 4.398850
         3         5     1        0.142789   254488.480176    ;  uncertainty r = 0.000039, k = 2.801925
         3        26     1        0.109818   309244.843652    ;  uncertainty r = 0.000020, k = 0.854841
         3        27     1        0.109818   309244.843652    ;  uncertainty r = 0.000020, k = 0.854841
         4         8     1        0.153800   204926.313672    ;  uncertainty r = 0.000079, k = 2.875806
         4        28     1        0.109644   310935.400293    ;  uncertainty r = 0.000023, k = 1.135247
         4        29     1        0.109644   310935.400293    ;  uncertainty r = 0.000023, k = 1.135247
         6        13     1        0.147232   226942.902686    ;  uncertainty r = 0.000065, k = 13.896050
         6        16     1        0.123415   677817.806250    ;  uncertainty r = 0.000082, k = 10.474562
         6        17     1        0.141647   237534.086816    ;  uncertainty r = 0.000160, k = 38.280111
         7        15     1        0.136645   531258.650098    ;  uncertainty r = 0.000130, k = 16.870261
         7        18     1        0.135678   614123.250195    ;  uncertainty r = 0.000161, k = 23.470454
         7        19     1        0.138336   585582.159570    ;  uncertainty r = 0.000160, k = 23.152214
         8        19     1        0.145807   240009.066846    ;  uncertainty r = 0.000132, k = 9.981083
         8        30     1        0.109351   304415.163379    ;  uncertainty r = 0.000015, k = 2.578070
         9        10     1        0.142628   266746.445898    ;  uncertainty r = 0.000079, k = 13.127259
         9        11     1        0.142357   415530.165186    ;  uncertainty r = 0.000130, k = 16.686043
         9        12     1        0.140472   405464.534766    ;  uncertainty r = 0.000129, k = 13.662495
        10        13     1        0.135951   411612.364014    ;  uncertainty r = 0.000100, k = 5.603877
        10        20     1        0.108686   332763.985107    ;  uncertainty r = 0.000045, k = 3.373231
        11        17     1        0.137452   256782.836230    ;  uncertainty r = 0.000089, k = 11.811375
        11        18     1        0.134028   453675.686035    ;  uncertainty r = 0.000186, k = 18.091839
        12        15     1        0.133313   406386.654248    ;  uncertainty r = 0.000072, k = 9.661507
        12        21     1        0.108914   328480.798975    ;  uncertainty r = 0.000024, k = 1.392969
        13        38     1        0.147882   280169.797607    ;  uncertainty r = 0.000127, k = 6.402264
        14        17     1        0.146429   262049.711816    ;  uncertainty r = 0.000067, k = 14.199845
        14        31     1        0.109138   308338.455029    ;  uncertainty r = 0.000011, k = 1.612793
        14        32     1        0.109138   308338.455029    ;  uncertainty r = 0.000011, k = 1.612793
        14        33     1        0.109138   308338.455029    ;  uncertainty r = 0.000011, k = 1.612793
        19        34     1        0.102176   435698.173926    ;  uncertainty r = 0.000065, k = 4.933167
        35        36     1        0.139350   376927.862061    ;  uncertainty r = 0.000015, k = 1.176180
        35        40     1        0.139593   374815.151465    ;  uncertainty r = 0.000016, k = 0.318368
        35        41     1        0.108776   334188.164160    ;  uncertainty r = 0.000008, k = 1.055563
        36        37     1        0.139584   356796.039404    ;  uncertainty r = 0.000064, k = 5.698586
        36        42     1        0.108710   335320.096533    ;  uncertainty r = 0.000014, k = 0.670907
        37        38     1        0.140176   327492.717139    ;  uncertainty r = 0.000073, k = 4.018595
        37        43     1        0.175726   189325.080664    ;  uncertainty r = 0.000078, k = 2.990593
        38        39     1        0.140302   342129.413525    ;  uncertainty r = 0.000051, k = 3.668231
        39        40     1        0.139307   369422.735449    ;  uncertainty r = 0.000032, k = 1.036390
        39        44     1        0.108697   334302.519336    ;  uncertainty r = 0.000027, k = 1.103201
        40        45     1        0.108803   333288.134277    ;  uncertainty r = 0.000015, k = 0.804948

[ angles ]
;       ai        aj        ak funct           theta             cth
         1         2         5     1      111.446632      714.965579    ;  uncertainty theta = 0.001347, k = 0.063500
         1         2        24     1      109.920456      408.541080    ;  uncertainty theta = 0.002019, k = 0.035643
         1         2        25     1      109.920456      408.541080    ;  uncertainty theta = 0.002019, k = 0.035643
         1         8         4     1      108.571205      585.454959    ;  uncertainty theta = 0.002684, k = 0.080005
         1         8        19     1      110.695145      629.201113    ;  uncertainty theta = 0.003363, k = 0.060631
         1         8        30     1      108.629013      407.998416    ;  uncertainty theta = 0.002420, k = 0.060827
         2         1         8     1      109.739174      566.930979    ;  uncertainty theta = 0.002556, k = 0.101379
         2         1        22     1      108.721451      397.694416    ;  uncertainty theta = 0.000995, k = 0.058468
         2         1        23     1      108.721451      397.694416    ;  uncertainty theta = 0.000995, k = 0.058468
         2         5         3     1      109.309448      562.168308    ;  uncertainty theta = 0.002274, k = 0.150711
         3         4         8     1      109.739174      566.930979    ;  uncertainty theta = 0.002556, k = 0.101379
         3         4        28     1      108.721451      397.694416    ;  uncertainty theta = 0.000995, k = 0.058468
         3         4        29     1      108.721451      397.694416    ;  uncertainty theta = 0.000995, k = 0.058468
         4         3         5     1      111.446632      714.965579    ;  uncertainty theta = 0.001347, k = 0.063500
         4         3        26     1      109.920456      408.541080    ;  uncertainty theta = 0.002019, k = 0.035643
         4         3        27     1      109.920456      408.541080    ;  uncertainty theta = 0.002019, k = 0.035643
         4         8        19     1      110.695145      629.201113    ;  uncertainty theta = 0.003363, k = 0.060631
         4         8        30     1      108.629013      407.998416    ;  uncertainty theta = 0.002420, k = 0.060827
         5         2        24     1      107.077614      463.773059    ;  uncertainty theta = 0.001757, k = 0.022995
         5         2        25     1      107.077614      463.773059    ;  uncertainty theta = 0.001757, k = 0.022995
         5         3        26     1      107.077614      463.773059    ;  uncertainty theta = 0.001757, k = 0.022995
         5         3        27     1      107.077614      463.773059    ;  uncertainty theta = 0.001757, k = 0.022995
         6        13        10     1      123.008911      477.707191    ;  uncertainty theta = 0.006709, k = 0.173875
         6        13        38     1      114.153725      391.225132    ;  uncertainty theta = 0.006810, k = 0.295596
         6        17        11     1      121.829918      483.485505    ;  uncertainty theta = 0.007850, k = 0.145630
         6        17        14     1      115.752853      417.274548    ;  uncertainty theta = 0.004241, k = 0.246691
         7        15        12     1      116.318832      406.394143    ;  uncertainty theta = 0.008614, k = 0.291703
         7        18        11     1      117.284561      450.947620    ;  uncertainty theta = 0.007597, k = 0.203360
         7        19         8     1      115.769875      413.653066    ;  uncertainty theta = 0.005271, k = 0.143046
         7        19        34     1      116.919144      444.716566    ;  uncertainty theta = 0.004236, k = 0.155196
         8         1        22     1      108.113968      386.815958    ;  uncertainty theta = 0.001236, k = 0.022845
         8         1        23     1      108.113968      386.815958    ;  uncertainty theta = 0.001236, k = 0.022845
         8         4        28     1      108.113968      386.815958    ;  uncertainty theta = 0.001236, k = 0.022845
         8         4        29     1      108.113968      386.815958    ;  uncertainty theta = 0.001236, k = 0.022845
         8        19        34     1      112.314072      333.078060    ;  uncertainty theta = 0.005154, k = 0.136963
         9        10        13     1      122.691452      529.638020    ;  uncertainty theta = 0.005197, k = 0.094834
         9        10        20     1      117.506271      264.906810    ;  uncertainty theta = 0.005814, k = 0.242435
         9        11        17     1      117.562279      485.361461    ;  uncertainty theta = 0.005766, k = 0.131234
         9        11        18     1      122.794785      548.679543    ;  uncertainty theta = 0.007176, k = 0.149291
         9        12        15     1      122.715927      737.743276    ;  uncertainty theta = 0.001824, k = 0.205481
         9        12        21     1      120.246239      259.553051    ;  uncertainty theta = 0.003197, k = 0.153325
        10         9        11     1      120.188828      443.369419    ;  uncertainty theta = 0.012443, k = 0.199806
        10         9        12     1      123.463913      421.280490    ;  uncertainty theta = 0.006148, k = 0.181182
        10        13        38     1      122.806168      385.682558    ;  uncertainty theta = 0.004892, k = 0.149706
        11         9        12     1      117.567017      436.869555    ;  uncertainty theta = 0.003457, k = 0.215240
        11        17        14     1      116.040237      432.777839    ;  uncertainty theta = 0.006827, k = 0.151976
        13         6        16     1      123.360916      495.142685    ;  uncertainty theta = 0.004568, k = 0.232930
        13         6        17     1      116.820457      353.036843    ;  uncertainty theta = 0.009980, k = 0.485726
        13        10        20     1      120.040695      275.493889    ;  uncertainty theta = 0.006934, k = 0.090518
        13        38        37     1      120.172348      373.946724    ;  uncertainty theta = 0.004219, k = 0.176172
        13        38        39     1      120.725426      400.070389    ;  uncertainty theta = 0.001839, k = 0.176823
        15         7        18     1      128.682648      742.959231    ;  uncertainty theta = 0.002344, k = 0.092423
        15         7        19     1      120.633926      828.446109    ;  uncertainty theta = 0.008794, k = 0.131219
        15        12        21     1      117.423866      317.730831    ;  uncertainty theta = 0.003454, k = 0.172244
        16         6        17     1      120.990601      715.045511    ;  uncertainty theta = 0.006192, k = 0.106244
        17        11        18     1      117.438194      579.987017    ;  uncertainty theta = 0.012042, k = 0.136711
        17        14        31     1      108.001022      486.713300    ;  uncertainty theta = 0.002215, k = 0.081230
        17        14        32     1      108.001022      486.713300    ;  uncertainty theta = 0.002215, k = 0.081230
        17        14        33     1      108.001022      486.713300    ;  uncertainty theta = 0.002215, k = 0.081230
        18         7        19     1      121.206215      911.423839    ;  uncertainty theta = 0.007564, k = 0.092378
        19         8        30     1      103.516525      447.268585    ;  uncertainty theta = 0.003472, k = 0.117225
        22         1        23     1      105.438782      311.403087    ;  uncertainty theta = 0.002031, k = 0.016795
        24         2        25     1      106.555069      320.243013    ;  uncertainty theta = 0.001313, k = 0.032691
        26         3        27     1      106.555069      320.243013    ;  uncertainty theta = 0.001313, k = 0.032691
        28         4        29     1      105.438766      311.403087    ;  uncertainty theta = 0.002031, k = 0.016795
        31        14        32     1      107.448280      326.181093    ;  uncertainty theta = 0.002265, k = 0.059242
        31        14        33     1      107.448280      326.181093    ;  uncertainty theta = 0.002265, k = 0.059242
        32        14        33     1      107.448280      326.181093    ;  uncertainty theta = 0.002265, k = 0.059242
        35        36        37     1      119.217140      498.820763    ;  uncertainty theta = 0.001688, k = 0.048894
        35        36        42     1      121.313065      282.683958    ;  uncertainty theta = 0.000973, k = 0.042826
        35        40        39     1      118.758133      514.718156    ;  uncertainty theta = 0.002095, k = 0.026570
        35        40        45     1      120.821701      287.992516    ;  uncertainty theta = 0.001045, k = 0.021274
        36        35        40     1      118.683937      518.151429    ;  uncertainty theta = 0.001610, k = 0.033441
        36        35        41     1      119.812294      284.996247    ;  uncertainty theta = 0.001592, k = 0.010941
        36        37        38     1      124.144775      374.982860    ;  uncertainty theta = 0.001605, k = 0.118324
        36        37        43     1      119.452209      462.520528    ;  uncertainty theta = 0.002525, k = 0.068361
        37        36        42     1      120.243874      284.202267    ;  uncertainty theta = 0.001387, k = 0.082099
        37        38        39     1      119.967102      394.941771    ;  uncertainty theta = 0.003078, k = 0.177046
        38        37        43     1      118.050919      424.994224    ;  uncertainty theta = 0.002940, k = 0.121552
        38        39        40     1      122.011208      516.108205    ;  uncertainty theta = 0.002021, k = 0.062163
        38        39        44     1      118.317612      275.004790    ;  uncertainty theta = 0.002917, k = 0.091221
        39        40        45     1      120.182289      285.159110    ;  uncertainty theta = 0.001036, k = 0.043677
        40        35        41     1      120.841492      286.433444    ;  uncertainty theta = 0.001676, k = 0.010566
        40        39        44     1      120.567238      294.921213    ;  uncertainty theta = 0.001378, k = 0.037746

[ dihedrals ] ; propers for gromacs 4.5 or higher, use funct 9
;       ai        aj        ak        al funct           phase               k        pn
         1         2         5         3     9        0.000000       -3.090920         1    ;  uncertainty k = 1.764723
         1         2         5         3     9      180.000000        0.099645         2    ;  uncertainty k = 1.147878
         1         2         5         3     9        0.000000        0.937069         3    ;  uncertainty k = 0.257052
         1         2         5         3     9      180.000000       -0.348700         4    ;  uncertainty k = 0.188482
         1         8         4         3     9        0.000000       -7.182169         1    ;  uncertainty k = 1.160296
         1         8         4         3     9      180.000000        0.651721         2    ;  uncertainty k = 0.689257
         1         8         4         3     9        0.000000        1.337200         3    ;  uncertainty k = 0.165866
         1         8         4         3     9      180.000000       -1.433187         4    ;  uncertainty k = 0.219126
         1         8         4        28     9        0.000000       -1.858871         1    ;  uncertainty k = 0.333669
         1         8         4        28     9      180.000000       -0.004379         2    ;  uncertainty k = 0.147655
         1         8         4        28     9        0.000000        0.298804         3    ;  uncertainty k = 0.155785
         1         8         4        28     9      180.000000       -0.141300         4    ;  uncertainty k = 0.079428
         1         8         4        29     9        0.000000       -1.858871         1    ;  uncertainty k = 0.333669
         1         8         4        29     9      180.000000       -0.004379         2    ;  uncertainty k = 0.147655
         1         8         4        29     9        0.000000        0.298804         3    ;  uncertainty k = 0.155785
         1         8         4        29     9      180.000000       -0.141300         4    ;  uncertainty k = 0.079428
         1         8        19         7     9        0.000000       -2.505165         1    ;  uncertainty k = 0.386990
         1         8        19         7     9      180.000000        0.497922         2    ;  uncertainty k = 0.198476
         1         8        19         7     9        0.000000        0.367322         3    ;  uncertainty k = 0.126648
         1         8        19         7     9      180.000000        0.361622         4    ;  uncertainty k = 0.081111
         1         8        19        34     9        0.000000        2.787690         1    ;  uncertainty k = 0.893880
         1         8        19        34     9      180.000000       -0.663636         2    ;  uncertainty k = 0.236090
         1         8        19        34     9        0.000000        0.218247         3    ;  uncertainty k = 0.119918
         1         8        19        34     9      180.000000        0.123443         4    ;  uncertainty k = 0.073280
         2         1         8         4     9        0.000000       -7.182169         1    ;  uncertainty k = 1.160296
         2         1         8         4     9      180.000000        0.651721         2    ;  uncertainty k = 0.689257
         2         1         8         4     9        0.000000        1.337200         3    ;  uncertainty k = 0.165866
         2         1         8         4     9      180.000000       -1.433187         4    ;  uncertainty k = 0.219126
         2         1         8        19     9        0.000000       -4.805353         1    ;  uncertainty k = 0.699431
         2         1         8        19     9      180.000000       -0.187719         2    ;  uncertainty k = 0.333371
         2         1         8        19     9        0.000000        1.016385         3    ;  uncertainty k = 0.162984
         2         1         8        19     9      180.000000       -0.078100         4    ;  uncertainty k = 0.195994
         2         1         8        30     9        0.000000       -1.687319         1    ;  uncertainty k = 0.555497
         2         1         8        30     9      180.000000       -0.643722         2    ;  uncertainty k = 0.388884
         2         1         8        30     9        0.000000        0.030461         3    ;  uncertainty k = 0.099396
         2         1         8        30     9      180.000000       -0.147535         4    ;  uncertainty k = 0.108263
         2         5         3         4     9        0.000000       -3.090920         1    ;  uncertainty k = 1.764723
         2         5         3         4     9      180.000000        0.099645         2    ;  uncertainty k = 1.147878
         2         5         3         4     9        0.000000        0.937069         3    ;  uncertainty k = 0.257052
         2         5         3         4     9      180.000000       -0.348700         4    ;  uncertainty k = 0.188482
         2         5         3        26     9        0.000000       -5.435409         1    ;  uncertainty k = 1.705293
         2         5         3        26     9      180.000000        0.309318         2    ;  uncertainty k = 0.194051
         2         5         3        26     9        0.000000        0.745836         3    ;  uncertainty k = 0.129776
         2         5         3        26     9      180.000000       -0.529315         4    ;  uncertainty k = 0.148432
         2         5         3        27     9        0.000000       -5.435409         1    ;  uncertainty k = 1.705293
         2         5         3        27     9      180.000000        0.309318         2    ;  uncertainty k = 0.194051
         2         5         3        27     9        0.000000        0.745836         3    ;  uncertainty k = 0.129776
         2         5         3        27     9      180.000000       -0.529315         4    ;  uncertainty k = 0.148432
         3         4         8        19     9        0.000000       -4.805353         1    ;  uncertainty k = 0.699431
         3         4         8        19     9      180.000000       -0.187719         2    ;  uncertainty k = 0.333371
         3         4         8        19     9        0.000000        1.016385         3    ;  uncertainty k = 0.162984
         3         4         8        19     9      180.000000       -0.078100         4    ;  uncertainty k = 0.195994
         3         4         8        30     9        0.000000       -1.687319         1    ;  uncertainty k = 0.555497
         3         4         8        30     9      180.000000       -0.643722         2    ;  uncertainty k = 0.388884
         3         4         8        30     9        0.000000        0.030461         3    ;  uncertainty k = 0.099396
         3         4         8        30     9      180.000000       -0.147535         4    ;  uncertainty k = 0.108263
         3         5         2        24     9        0.000000       -5.435409         1    ;  uncertainty k = 1.705293
         3         5         2        24     9      180.000000        0.309318         2    ;  uncertainty k = 0.194051
         3         5         2        24     9        0.000000        0.745836         3    ;  uncertainty k = 0.129776
         3         5         2        24     9      180.000000       -0.529315         4    ;  uncertainty k = 0.148432
         3         5         2        25     9        0.000000       -5.435409         1    ;  uncertainty k = 1.705293
         3         5         2        25     9      180.000000        0.309318         2    ;  uncertainty k = 0.194051
         3         5         2        25     9        0.000000        0.745836         3    ;  uncertainty k = 0.129776
         3         5         2        25     9      180.000000       -0.529315         4    ;  uncertainty k = 0.148432
         4         8         1        22     9        0.000000       -1.858871         1    ;  uncertainty k = 0.333669
         4         8         1        22     9      180.000000       -0.004379         2    ;  uncertainty k = 0.147655
         4         8         1        22     9        0.000000        0.298804         3    ;  uncertainty k = 0.155785
         4         8         1        22     9      180.000000       -0.141300         4    ;  uncertainty k = 0.079428
         4         8         1        23     9        0.000000       -1.858871         1    ;  uncertainty k = 0.333669
         4         8         1        23     9      180.000000       -0.004379         2    ;  uncertainty k = 0.147655
         4         8         1        23     9        0.000000        0.298804         3    ;  uncertainty k = 0.155785
         4         8         1        23     9      180.000000       -0.141300         4    ;  uncertainty k = 0.079428
         4         8        19         7     9        0.000000       -2.505165         1    ;  uncertainty k = 0.386990
         4         8        19         7     9      180.000000        0.497922         2    ;  uncertainty k = 0.198476
         4         8        19         7     9        0.000000        0.367322         3    ;  uncertainty k = 0.126648
         4         8        19         7     9      180.000000        0.361622         4    ;  uncertainty k = 0.081111
         4         8        19        34     9        0.000000        2.787690         1    ;  uncertainty k = 0.893880
         4         8        19        34     9      180.000000       -0.663636         2    ;  uncertainty k = 0.236090
         4         8        19        34     9        0.000000        0.218247         3    ;  uncertainty k = 0.119918
         4         8        19        34     9      180.000000        0.123443         4    ;  uncertainty k = 0.073280
         5         2         1         8     9        0.000000       -0.987582         1    ;  uncertainty k = 1.101439
         5         2         1         8     9      180.000000       -3.903899         2    ;  uncertainty k = 0.673250
         5         2         1         8     9        0.000000        1.869479         3    ;  uncertainty k = 0.389552
         5         2         1         8     9      180.000000       -0.727265         4    ;  uncertainty k = 0.139798
         5         2         1        22     9        0.000000       -1.784485         1    ;  uncertainty k = 0.521414
         5         2         1        22     9      180.000000       -0.100756         2    ;  uncertainty k = 0.269946
         5         2         1        22     9        0.000000        1.457848         3    ;  uncertainty k = 0.236776
         5         2         1        22     9      180.000000       -0.196225         4    ;  uncertainty k = 0.165688
         5         2         1        23     9        0.000000       -1.784485         1    ;  uncertainty k = 0.521414
         5         2         1        23     9      180.000000       -0.100756         2    ;  uncertainty k = 0.269946
         5         2         1        23     9        0.000000        1.457848         3    ;  uncertainty k = 0.236776
         5         2         1        23     9      180.000000       -0.196225         4    ;  uncertainty k = 0.165688
         5         3         4         8     9        0.000000       -0.987582         1    ;  uncertainty k = 1.101439
         5         3         4         8     9      180.000000       -3.903899         2    ;  uncertainty k = 0.673250
         5         3         4         8     9        0.000000        1.869479         3    ;  uncertainty k = 0.389552
         5         3         4         8     9      180.000000       -0.727265         4    ;  uncertainty k = 0.139798
         5         3         4        28     9        0.000000       -1.784485         1    ;  uncertainty k = 0.521414
         5         3         4        28     9      180.000000       -0.100756         2    ;  uncertainty k = 0.269946
         5         3         4        28     9        0.000000        1.457848         3    ;  uncertainty k = 0.236776
         5         3         4        28     9      180.000000       -0.196225         4    ;  uncertainty k = 0.165688
         5         3         4        29     9        0.000000       -1.784485         1    ;  uncertainty k = 0.521414
         5         3         4        29     9      180.000000       -0.100756         2    ;  uncertainty k = 0.269946
         5         3         4        29     9        0.000000        1.457848         3    ;  uncertainty k = 0.236776
         5         3         4        29     9      180.000000       -0.196225         4    ;  uncertainty k = 0.165688
         6        13        10         9     9        0.000000        0.143521         1    ;  uncertainty k = 0.614428
         6        13        10         9     9      180.000000       16.685678         2    ;  uncertainty k = 0.430318
         6        13        10         9     9        0.000000        1.558376         3    ;  uncertainty k = 0.169222
         6        13        10         9     9      180.000000        0.847512         4    ;  uncertainty k = 0.399142
         6        13        10        20     9        0.000000        0.106676         1    ;  uncertainty k = 0.504700
         6        13        10        20     9      180.000000       13.526810         2    ;  uncertainty k = 0.299008
         6        13        10        20     9        0.000000        1.637464         3    ;  uncertainty k = 0.467155
         6        13        10        20     9      180.000000        1.073028         4    ;  uncertainty k = 0.177649
         6        13        38        37     9        0.000000        1.516020         1    ;  uncertainty k = 1.426406
         6        13        38        37     9      180.000000        4.370831         2    ;  uncertainty k = 0.610089
         6        13        38        37     9        0.000000        1.594890         3    ;  uncertainty k = 0.278889
         6        13        38        37     9      180.000000        0.386427         4    ;  uncertainty k = 0.193010
         6        13        38        39     9        0.000000        0.254813         1    ;  uncertainty k = 1.012933
         6        13        38        39     9      180.000000        5.187518         2    ;  uncertainty k = 0.300452
         6        13        38        39     9        0.000000        0.512924         3    ;  uncertainty k = 0.228431
         6        13        38        39     9      180.000000        0.855132         4    ;  uncertainty k = 0.175875
         6        17        11         9     9        0.000000        0.586344         1    ;  uncertainty k = 1.627728
         6        17        11         9     9      180.000000        5.096811         2    ;  uncertainty k = 0.749081
         6        17        11         9     9        0.000000        0.242482         3    ;  uncertainty k = 0.553522
         6        17        11         9     9      180.000000        0.060621         4    ;  uncertainty k = 0.045053
         6        17        11        18     9        0.000000       -0.783585         1    ;  uncertainty k = 1.964414
         6        17        11        18     9      180.000000        8.144869         2    ;  uncertainty k = 0.388594
         6        17        11        18     9        0.000000        0.825376         3    ;  uncertainty k = 0.569471
         6        17        11        18     9      180.000000       -0.258335         4    ;  uncertainty k = 0.213058
         6        17        14        31     9        0.000000       -0.207669         1    ;  uncertainty k = 0.183037
         6        17        14        31     9      180.000000        0.817865         2    ;  uncertainty k = 0.234769
         6        17        14        31     9        0.000000        0.693168         3    ;  uncertainty k = 0.074908
         6        17        14        31     9      180.000000        0.487835         4    ;  uncertainty k = 0.104112
         6        17        14        32     9        0.000000       -0.207669         1    ;  uncertainty k = 0.183037
         6        17        14        32     9      180.000000        0.817865         2    ;  uncertainty k = 0.234769
         6        17        14        32     9        0.000000        0.693168         3    ;  uncertainty k = 0.074908
         6        17        14        32     9      180.000000        0.487835         4    ;  uncertainty k = 0.104112
         6        17        14        33     9        0.000000       -0.207669         1    ;  uncertainty k = 0.183037
         6        17        14        33     9      180.000000        0.817865         2    ;  uncertainty k = 0.234769
         6        17        14        33     9        0.000000        0.693168         3    ;  uncertainty k = 0.074908
         6        17        14        33     9      180.000000        0.487835         4    ;  uncertainty k = 0.104112
         7        15        12         9     9        0.000000       -0.146613         1    ;  uncertainty k = 0.810376
         7        15        12         9     9      180.000000       17.371040         2    ;  uncertainty k = 0.559909
         7        15        12         9     9        0.000000       -0.491118         3    ;  uncertainty k = 0.650903
         7        15        12         9     9      180.000000        1.638956         4    ;  uncertainty k = 0.599344
         7        15        12        21     9        0.000000        0.085025         1    ;  uncertainty k = 0.980075
         7        15        12        21     9      180.000000       17.995257         2    ;  uncertainty k = 0.666570
         7        15        12        21     9        0.000000        1.357721         3    ;  uncertainty k = 0.805235
         7        15        12        21     9      180.000000        1.124483         4    ;  uncertainty k = 0.489097
         7        18        11         9     9        0.000000        0.194402         1    ;  uncertainty k = 0.845247
         7        18        11         9     9      180.000000       12.660248         2    ;  uncertainty k = 0.690255
         7        18        11         9     9        0.000000        0.204454         3    ;  uncertainty k = 0.801872
         7        18        11         9     9      180.000000        0.963860         4    ;  uncertainty k = 0.423125
         7        18        11        17     9        0.000000        0.484040         1    ;  uncertainty k = 0.705785
         7        18        11        17     9      180.000000       15.937050         2    ;  uncertainty k = 0.999846
         7        18        11        17     9        0.000000        1.719908         3    ;  uncertainty k = 0.314318
         7        18        11        17     9      180.000000        1.109620         4    ;  uncertainty k = 0.422524
         7        19         8        30     9        0.000000       -0.140403         1    ;  uncertainty k = 0.458987
         7        19         8        30     9      180.000000       -0.299246         2    ;  uncertainty k = 0.132432
         7        19         8        30     9        0.000000        0.051471         3    ;  uncertainty k = 0.152476
         7        19         8        30     9      180.000000        0.288509         4    ;  uncertainty k = 0.067555
         8         1         2        24     9        0.000000        3.577617         1    ;  uncertainty k = 1.073611
         8         1         2        24     9      180.000000       -2.876486         2    ;  uncertainty k = 0.518010
         8         1         2        24     9        0.000000       -0.152945         3    ;  uncertainty k = 0.197941
         8         1         2        24     9      180.000000        0.397574         4    ;  uncertainty k = 0.144225
         8         1         2        25     9        0.000000        3.577617         1    ;  uncertainty k = 1.073611
         8         1         2        25     9      180.000000       -2.876486         2    ;  uncertainty k = 0.518010
         8         1         2        25     9        0.000000       -0.152945         3    ;  uncertainty k = 0.197941
         8         1         2        25     9      180.000000        0.397574         4    ;  uncertainty k = 0.144225
         8         4         3        26     9        0.000000        3.577617         1    ;  uncertainty k = 1.073611
         8         4         3        26     9      180.000000       -2.876486         2    ;  uncertainty k = 0.518010
         8         4         3        26     9        0.000000       -0.152945         3    ;  uncertainty k = 0.197941
         8         4         3        26     9      180.000000        0.397574         4    ;  uncertainty k = 0.144225
         8         4         3        27     9        0.000000        3.577617         1    ;  uncertainty k = 1.073611
         8         4         3        27     9      180.000000       -2.876486         2    ;  uncertainty k = 0.518010
         8         4         3        27     9        0.000000       -0.152945         3    ;  uncertainty k = 0.197941
         8         4         3        27     9      180.000000        0.397574         4    ;  uncertainty k = 0.144225
         8        19         7        15     9        0.000000        9.093945         1    ;  uncertainty k = 0.673524
         8        19         7        15     9      180.000000       11.328686         2    ;  uncertainty k = 0.246478
         8        19         7        15     9        0.000000        1.388656         3    ;  uncertainty k = 0.179740
         8        19         7        15     9      180.000000       -0.343204         4    ;  uncertainty k = 0.041612
         8        19         7        18     9        0.000000        9.938974         1    ;  uncertainty k = 0.713392
         8        19         7        18     9      180.000000       11.380040         2    ;  uncertainty k = 0.182529
         8        19         7        18     9        0.000000        1.267523         3    ;  uncertainty k = 0.207302
         8        19         7        18     9      180.000000       -0.373691         4    ;  uncertainty k = 0.056740
         9        10        13        38     9        0.000000        0.418941         1    ;  uncertainty k = 0.490026
         9        10        13        38     9      180.000000       18.669253         2    ;  uncertainty k = 0.644859
         9        10        13        38     9        0.000000        2.040737         3    ;  uncertainty k = 0.491165
         9        10        13        38     9      180.000000        0.822985         4    ;  uncertainty k = 0.488856
         9        11        17        14     9        0.000000        2.511881         1    ;  uncertainty k = 1.961493
         9        11        17        14     9      180.000000        8.948504         2    ;  uncertainty k = 0.440017
         9        11        17        14     9        0.000000        0.974942         3    ;  uncertainty k = 0.640770
         9        11        17        14     9      180.000000        0.176829         4    ;  uncertainty k = 0.378941
        10         9        11        17     9        0.000000        0.013522         1    ;  uncertainty k = 0.464031
        10         9        11        17     9      180.000000        7.759929         2    ;  uncertainty k = 0.798984
        10         9        11        17     9        0.000000        0.251956         3    ;  uncertainty k = 0.542229
        10         9        11        17     9      180.000000        1.002599         4    ;  uncertainty k = 0.278471
        10         9        11        18     9        0.000000        0.123616         1    ;  uncertainty k = 0.956247
        10         9        11        18     9      180.000000        7.885141         2    ;  uncertainty k = 1.346728
        10         9        11        18     9        0.000000        0.067652         3    ;  uncertainty k = 0.296323
        10         9        11        18     9      180.000000        1.345849         4    ;  uncertainty k = 0.433111
        10         9        12        15     9        0.000000        0.121974         1    ;  uncertainty k = 0.502608
        10         9        12        15     9      180.000000       10.544958         2    ;  uncertainty k = 0.620129
        10         9        12        15     9        0.000000        0.290838         3    ;  uncertainty k = 0.308781
        10         9        12        15     9      180.000000        1.209243         4    ;  uncertainty k = 0.328404
        10         9        12        21     9        0.000000       -0.496987         1    ;  uncertainty k = 0.468490
        10         9        12        21     9      180.000000        5.940463         2    ;  uncertainty k = 0.796887
        10         9        12        21     9        0.000000        0.810416         3    ;  uncertainty k = 0.368258
        10         9        12        21     9      180.000000        0.672668         4    ;  uncertainty k = 0.192285
        10        13         6        16     9        0.000000       -1.679911         1    ;  uncertainty k = 1.315711
        10        13         6        16     9      180.000000        3.180845         2    ;  uncertainty k = 0.598243
        10        13         6        16     9        0.000000        0.020128         3    ;  uncertainty k = 0.226328
        10        13         6        16     9      180.000000       -0.049441         4    ;  uncertainty k = 0.131552
        10        13         6        17     9        0.000000        1.684229         1    ;  uncertainty k = 0.934793
        10        13         6        17     9      180.000000        0.796045         2    ;  uncertainty k = 0.813864
        10        13         6        17     9        0.000000        0.403499         3    ;  uncertainty k = 0.171034
        10        13         6        17     9      180.000000        0.399942         4    ;  uncertainty k = 0.203476
        10        13        38        37     9        0.000000        2.133434         1    ;  uncertainty k = 0.774745
        10        13        38        37     9      180.000000        4.491317         2    ;  uncertainty k = 0.364716
        10        13        38        37     9        0.000000        0.067789         3    ;  uncertainty k = 0.375815
        10        13        38        37     9      180.000000        0.310016         4    ;  uncertainty k = 0.207991
        10        13        38        39     9        0.000000       -0.209024         1    ;  uncertainty k = 0.789203
        10        13        38        39     9      180.000000        5.827812         2    ;  uncertainty k = 0.175671
        10        13        38        39     9        0.000000        1.357992         3    ;  uncertainty k = 0.441040
        10        13        38        39     9      180.000000        0.262567         4    ;  uncertainty k = 0.257186
        11         9        10        13     9        0.000000        0.108942         1    ;  uncertainty k = 0.975784
        11         9        10        13     9      180.000000        6.007729         2    ;  uncertainty k = 0.228823
        11         9        10        13     9        0.000000        0.193995         3    ;  uncertainty k = 0.574682
        11         9        10        13     9      180.000000        0.526020         4    ;  uncertainty k = 0.361854
        11         9        10        20     9        0.000000        0.948149         1    ;  uncertainty k = 1.436170
        11         9        10        20     9      180.000000        6.612606         2    ;  uncertainty k = 0.699528
        11         9        10        20     9        0.000000        0.883977         3    ;  uncertainty k = 0.347757
        11         9        10        20     9      180.000000        0.267320         4    ;  uncertainty k = 0.091267
        11         9        12        15     9        0.000000        0.058161         1    ;  uncertainty k = 0.550714
        11         9        12        15     9      180.000000       12.138017         2    ;  uncertainty k = 0.413485
        11         9        12        15     9        0.000000       -0.925055         3    ;  uncertainty k = 0.775195
        11         9        12        15     9      180.000000        0.806025         4    ;  uncertainty k = 0.184873
        11         9        12        21     9        0.000000       -0.116233         1    ;  uncertainty k = 0.802834
        11         9        12        21     9      180.000000        6.521099         2    ;  uncertainty k = 0.856802
        11         9        12        21     9        0.000000        0.648324         3    ;  uncertainty k = 0.041640
        11         9        12        21     9      180.000000        0.761755         4    ;  uncertainty k = 0.271996
        11        17         6        13     9        0.000000        1.229311         1    ;  uncertainty k = 2.495300
        11        17         6        13     9      180.000000        1.955677         2    ;  uncertainty k = 1.600949
        11        17         6        13     9        0.000000        0.776464         3    ;  uncertainty k = 0.399391
        11        17         6        13     9      180.000000        0.522529         4    ;  uncertainty k = 0.304278
        11        17         6        16     9        0.000000        2.686644         1    ;  uncertainty k = 2.390583
        11        17         6        16     9      180.000000       13.192581         2    ;  uncertainty k = 0.566369
        11        17         6        16     9        0.000000        1.017000         3    ;  uncertainty k = 0.223191
        11        17         6        16     9      180.000000       -0.416116         4    ;  uncertainty k = 0.568205
        11        17        14        31     9        0.000000       -0.488435         1    ;  uncertainty k = 0.437813
        11        17        14        31     9      180.000000        1.097268         2    ;  uncertainty k = 0.184909
        11        17        14        31     9        0.000000        0.335949         3    ;  uncertainty k = 0.202381
        11        17        14        31     9      180.000000        0.467356         4    ;  uncertainty k = 0.154892
        11        17        14        32     9        0.000000       -0.488435         1    ;  uncertainty k = 0.437813
        11        17        14        32     9      180.000000        1.097268         2    ;  uncertainty k = 0.184909
        11        17        14        32     9        0.000000        0.335949         3    ;  uncertainty k = 0.202381
        11        17        14        32     9      180.000000        0.467356         4    ;  uncertainty k = 0.154892
        11        17        14        33     9        0.000000       -0.488435         1    ;  uncertainty k = 0.437813
        11        17        14        33     9      180.000000        1.097268         2    ;  uncertainty k = 0.184909
        11        17        14        33     9        0.000000        0.335949         3    ;  uncertainty k = 0.202381
        11        17        14        33     9      180.000000        0.467356         4    ;  uncertainty k = 0.154892
        11        18         7        15     9        0.000000       -0.036739         1    ;  uncertainty k = 1.501351
        11        18         7        15     9      180.000000        6.803880         2    ;  uncertainty k = 0.897961
        11        18         7        15     9        0.000000        1.244701         3    ;  uncertainty k = 0.708400
        11        18         7        15     9      180.000000        0.783453         4    ;  uncertainty k = 0.284366
        11        18         7        19     9        0.000000        0.543735         1    ;  uncertainty k = 1.717992
        11        18         7        19     9      180.000000        9.272817         2    ;  uncertainty k = 0.650639
        11        18         7        19     9        0.000000        2.011179         3    ;  uncertainty k = 0.558335
        11        18         7        19     9      180.000000        0.908852         4    ;  uncertainty k = 0.234874
        12         9        10        13     9        0.000000        0.277703         1    ;  uncertainty k = 0.823221
        12         9        10        13     9      180.000000        4.909486         2    ;  uncertainty k = 0.936651
        12         9        10        13     9        0.000000        0.928683         3    ;  uncertainty k = 0.389275
        12         9        10        13     9      180.000000        0.483797         4    ;  uncertainty k = 0.343913
        12         9        10        20     9        0.000000        0.421065         1    ;  uncertainty k = 1.095457
        12         9        10        20     9      180.000000        5.789474         2    ;  uncertainty k = 0.417646
        12         9        10        20     9        0.000000        0.858912         3    ;  uncertainty k = 0.224366
        12         9        10        20     9      180.000000        0.105282         4    ;  uncertainty k = 0.176739
        12         9        11        17     9        0.000000       -0.696992         1    ;  uncertainty k = 0.821716
        12         9        11        17     9      180.000000        6.232279         2    ;  uncertainty k = 0.895048
        12         9        11        17     9        0.000000        0.092415         3    ;  uncertainty k = 0.309404
        12         9        11        17     9      180.000000        1.016493         4    ;  uncertainty k = 0.304946
        12         9        11        18     9        0.000000       -0.065692         1    ;  uncertainty k = 0.521034
        12         9        11        18     9      180.000000        7.340364         2    ;  uncertainty k = 1.020132
        12         9        11        18     9        0.000000       -0.319701         3    ;  uncertainty k = 0.284347
        12         9        11        18     9      180.000000        1.193433         4    ;  uncertainty k = 0.590405
        12        15         7        18     9        0.000000        0.015595         1    ;  uncertainty k = 0.912965
        12        15         7        18     9      180.000000        6.487569         2    ;  uncertainty k = 1.323344
        12        15         7        18     9        0.000000        0.800734         3    ;  uncertainty k = 0.564469
        12        15         7        18     9      180.000000        0.506891         4    ;  uncertainty k = 0.219069
        12        15         7        19     9        0.000000        0.361923         1    ;  uncertainty k = 0.788151
        12        15         7        19     9      180.000000        7.741369         2    ;  uncertainty k = 0.525805
        12        15         7        19     9        0.000000        1.819988         3    ;  uncertainty k = 0.695571
        12        15         7        19     9      180.000000        0.625463         4    ;  uncertainty k = 0.284256
        13         6        17        14     9        0.000000        0.966923         1    ;  uncertainty k = 1.531565
        13         6        17        14     9      180.000000        7.053222         2    ;  uncertainty k = 0.632238
        13         6        17        14     9        0.000000        1.618192         3    ;  uncertainty k = 0.249611
        13         6        17        14     9      180.000000        0.014550         4    ;  uncertainty k = 0.268961
        13        38        37        36     9        0.000000       -0.055734         1    ;  uncertainty k = 0.223071
        13        38        37        36     9      180.000000        6.420974         2    ;  uncertainty k = 0.431851
        13        38        37        36     9        0.000000        1.335061         3    ;  uncertainty k = 0.173862
        13        38        37        36     9      180.000000        1.661534         4    ;  uncertainty k = 0.195731
        13        38        37        43     9        0.000000       -0.541022         1    ;  uncertainty k = 0.818806
        13        38        37        43     9      180.000000        7.590474         2    ;  uncertainty k = 0.335529
        13        38        37        43     9        0.000000        1.083975         3    ;  uncertainty k = 0.411662
        13        38        37        43     9      180.000000        1.444208         4    ;  uncertainty k = 0.179079
        13        38        39        40     9        0.000000        0.023678         1    ;  uncertainty k = 0.301613
        13        38        39        40     9      180.000000        9.041831         2    ;  uncertainty k = 0.438347
        13        38        39        40     9        0.000000        1.277992         3    ;  uncertainty k = 0.213921
        13        38        39        40     9      180.000000        1.779709         4    ;  uncertainty k = 0.131072
        13        38        39        44     9        0.000000       -0.324692         1    ;  uncertainty k = 0.502432
        13        38        39        44     9      180.000000        7.383934         2    ;  uncertainty k = 0.271075
        13        38        39        44     9        0.000000        0.853684         3    ;  uncertainty k = 0.287965
        13        38        39        44     9      180.000000        1.228004         4    ;  uncertainty k = 0.321988
        14        17         6        16     9        0.000000        0.841183         1    ;  uncertainty k = 0.703861
        14        17         6        16     9      180.000000       13.174076         2    ;  uncertainty k = 0.221646
        14        17         6        16     9        0.000000        0.510857         3    ;  uncertainty k = 0.291271
        14        17         6        16     9      180.000000        0.027244         4    ;  uncertainty k = 0.120260
        14        17        11        18     9        0.000000        1.678899         1    ;  uncertainty k = 1.499232
        14        17        11        18     9      180.000000       10.855434         2    ;  uncertainty k = 0.677973
        14        17        11        18     9        0.000000        0.891767         3    ;  uncertainty k = 0.296392
        14        17        11        18     9      180.000000        0.246717         4    ;  uncertainty k = 0.504132
        15         7        19        34     9        0.000000       10.289718         1    ;  uncertainty k = 0.671473
        15         7        19        34     9      180.000000        9.708731         2    ;  uncertainty k = 0.263556
        15         7        19        34     9        0.000000        1.249260         3    ;  uncertainty k = 0.563999
        15         7        19        34     9      180.000000       -0.441153         4    ;  uncertainty k = 0.253050
        16         6        13        38     9        0.000000       -1.761655         1    ;  uncertainty k = 0.749150
        16         6        13        38     9      180.000000        7.289359         2    ;  uncertainty k = 0.340364
        16         6        13        38     9        0.000000        0.077919         3    ;  uncertainty k = 0.292090
        16         6        13        38     9      180.000000       -0.011812         4    ;  uncertainty k = 0.258063
        17         6        13        38     9        0.000000        1.293328         1    ;  uncertainty k = 1.581823
        17         6        13        38     9      180.000000        2.715439         2    ;  uncertainty k = 0.704425
        17         6        13        38     9        0.000000        0.476393         3    ;  uncertainty k = 0.434691
        17         6        13        38     9      180.000000        0.427177         4    ;  uncertainty k = 0.162264
        18         7        19        34     9        0.000000       12.329278         1    ;  uncertainty k = 0.748603
        18         7        19        34     9      180.000000       10.060158         2    ;  uncertainty k = 0.345762
        18         7        19        34     9        0.000000        1.224278         3    ;  uncertainty k = 0.555433
        18         7        19        34     9      180.000000       -0.524195         4    ;  uncertainty k = 0.158878
        19         8         1        22     9        0.000000       -0.664477         1    ;  uncertainty k = 0.439753
        19         8         1        22     9      180.000000       -0.719545         2    ;  uncertainty k = 0.206247
        19         8         1        22     9        0.000000        1.110830         3    ;  uncertainty k = 0.090613
        19         8         1        22     9      180.000000       -0.312617         4    ;  uncertainty k = 0.084156
        19         8         1        23     9        0.000000       -0.664477         1    ;  uncertainty k = 0.439753
        19         8         1        23     9      180.000000       -0.719545         2    ;  uncertainty k = 0.206247
        19         8         1        23     9        0.000000        1.110830         3    ;  uncertainty k = 0.090613
        19         8         1        23     9      180.000000       -0.312617         4    ;  uncertainty k = 0.084156
        19         8         4        28     9        0.000000       -0.664477         1    ;  uncertainty k = 0.439753
        19         8         4        28     9      180.000000       -0.719545         2    ;  uncertainty k = 0.206247
        19         8         4        28     9        0.000000        1.110830         3    ;  uncertainty k = 0.090613
        19         8         4        28     9      180.000000       -0.312617         4    ;  uncertainty k = 0.084156
        19         8         4        29     9        0.000000       -0.664477         1    ;  uncertainty k = 0.439753
        19         8         4        29     9      180.000000       -0.719545         2    ;  uncertainty k = 0.206247
        19         8         4        29     9        0.000000        1.110830         3    ;  uncertainty k = 0.090613
        19         8         4        29     9      180.000000       -0.312617         4    ;  uncertainty k = 0.084156
        20        10        13        38     9        0.000000       -0.201088         1    ;  uncertainty k = 0.563700
        20        10        13        38     9      180.000000       13.805367         2    ;  uncertainty k = 0.777736
        20        10        13        38     9        0.000000        1.647898         3    ;  uncertainty k = 0.092214
        20        10        13        38     9      180.000000        1.155921         4    ;  uncertainty k = 0.355066
        22         1         2        24     9        0.000000       -0.225271         1    ;  uncertainty k = 0.371621
        22         1         2        24     9      180.000000        0.719911         2    ;  uncertainty k = 0.314572
        22         1         2        24     9        0.000000        0.112053         3    ;  uncertainty k = 0.052184
        22         1         2        24     9      180.000000       -0.321413         4    ;  uncertainty k = 0.066104
        22         1         2        25     9        0.000000       -0.225271         1    ;  uncertainty k = 0.371621
        22         1         2        25     9      180.000000        0.719911         2    ;  uncertainty k = 0.314572
        22         1         2        25     9        0.000000        0.112053         3    ;  uncertainty k = 0.052184
        22         1         2        25     9      180.000000       -0.321413         4    ;  uncertainty k = 0.066104
        22         1         8        30     9        0.000000        1.333899         1    ;  uncertainty k = 0.470364
        22         1         8        30     9      180.000000       -0.346033         2    ;  uncertainty k = 0.220492
        22         1         8        30     9        0.000000        0.040957         3    ;  uncertainty k = 0.124052
        22         1         8        30     9      180.000000        0.039296         4    ;  uncertainty k = 0.035575
        23         1         2        24     9        0.000000       -0.225271         1    ;  uncertainty k = 0.371621
        23         1         2        24     9      180.000000        0.719911         2    ;  uncertainty k = 0.314572
        23         1         2        24     9        0.000000        0.112053         3    ;  uncertainty k = 0.052184
        23         1         2        24     9      180.000000       -0.321413         4    ;  uncertainty k = 0.066104
        23         1         2        25     9        0.000000       -0.225271         1    ;  uncertainty k = 0.371621
        23         1         2        25     9      180.000000        0.719911         2    ;  uncertainty k = 0.314572
        23         1         2        25     9        0.000000        0.112053         3    ;  uncertainty k = 0.052184
        23         1         2        25     9      180.000000       -0.321413         4    ;  uncertainty k = 0.066104
        23         1         8        30     9        0.000000        1.333899         1    ;  uncertainty k = 0.470364
        23         1         8        30     9      180.000000       -0.346033         2    ;  uncertainty k = 0.220492
        23         1         8        30     9        0.000000        0.040957         3    ;  uncertainty k = 0.124052
        23         1         8        30     9      180.000000        0.039296         4    ;  uncertainty k = 0.035575
        26         3         4        28     9        0.000000       -0.225271         1    ;  uncertainty k = 0.371621
        26         3         4        28     9      180.000000        0.719911         2    ;  uncertainty k = 0.314572
        26         3         4        28     9        0.000000        0.112053         3    ;  uncertainty k = 0.052184
        26         3         4        28     9      180.000000       -0.321413         4    ;  uncertainty k = 0.066104
        26         3         4        29     9        0.000000       -0.225271         1    ;  uncertainty k = 0.371621
        26         3         4        29     9      180.000000        0.719911         2    ;  uncertainty k = 0.314572
        26         3         4        29     9        0.000000        0.112053         3    ;  uncertainty k = 0.052184
        26         3         4        29     9      180.000000       -0.321413         4    ;  uncertainty k = 0.066104
        27         3         4        28     9        0.000000       -0.225271         1    ;  uncertainty k = 0.371621
        27         3         4        28     9      180.000000        0.719911         2    ;  uncertainty k = 0.314572
        27         3         4        28     9        0.000000        0.112053         3    ;  uncertainty k = 0.052184
        27         3         4        28     9      180.000000       -0.321413         4    ;  uncertainty k = 0.066104
        27         3         4        29     9        0.000000       -0.225271         1    ;  uncertainty k = 0.371621
        27         3         4        29     9      180.000000        0.719911         2    ;  uncertainty k = 0.314572
        27         3         4        29     9        0.000000        0.112053         3    ;  uncertainty k = 0.052184
        27         3         4        29     9      180.000000       -0.321413         4    ;  uncertainty k = 0.066104
        28         4         8        30     9        0.000000        1.333899         1    ;  uncertainty k = 0.470364
        28         4         8        30     9      180.000000       -0.346033         2    ;  uncertainty k = 0.220492
        28         4         8        30     9        0.000000        0.040957         3    ;  uncertainty k = 0.124052
        28         4         8        30     9      180.000000        0.039296         4    ;  uncertainty k = 0.035575
        29         4         8        30     9        0.000000        1.333899         1    ;  uncertainty k = 0.470364
        29         4         8        30     9      180.000000       -0.346033         2    ;  uncertainty k = 0.220492
        29         4         8        30     9        0.000000        0.040957         3    ;  uncertainty k = 0.124052
        29         4         8        30     9      180.000000        0.039296         4    ;  uncertainty k = 0.035575
        30         8        19        34     9        0.000000        0.976343         1    ;  uncertainty k = 0.742026
        30         8        19        34     9      180.000000       -1.754256         2    ;  uncertainty k = 0.294903
        30         8        19        34     9        0.000000       -0.016582         3    ;  uncertainty k = 0.098589
        30         8        19        34     9      180.000000        0.124158         4    ;  uncertainty k = 0.074181
        35        36        37        38     9        0.000000        0.027087         1    ;  uncertainty k = 0.139036
        35        36        37        38     9      180.000000        9.614095         2    ;  uncertainty k = 0.220797
        35        36        37        38     9        0.000000        0.024213         3    ;  uncertainty k = 0.307496
        35        36        37        38     9      180.000000        1.178855         4    ;  uncertainty k = 0.317618
        35        36        37        43     9        0.000000        0.026330         1    ;  uncertainty k = 0.218708
        35        36        37        43     9      180.000000        9.522096         2    ;  uncertainty k = 0.626210
        35        36        37        43     9        0.000000        1.438083         3    ;  uncertainty k = 0.369486
        35        36        37        43     9      180.000000        1.698345         4    ;  uncertainty k = 0.111407
        35        40        39        38     9        0.000000       -0.059994         1    ;  uncertainty k = 0.150828
        35        40        39        38     9      180.000000       14.129590         2    ;  uncertainty k = 0.277198
        35        40        39        38     9        0.000000       -0.957222         3    ;  uncertainty k = 0.467909
        35        40        39        38     9      180.000000        0.705854         4    ;  uncertainty k = 0.253718
        35        40        39        44     9        0.000000        0.075916         1    ;  uncertainty k = 0.089090
        35        40        39        44     9      180.000000        7.973796         2    ;  uncertainty k = 0.208221
        35        40        39        44     9        0.000000        1.375450         3    ;  uncertainty k = 0.293857
        35        40        39        44     9      180.000000        1.873976         4    ;  uncertainty k = 0.215400
        36        35        40        39     9        0.000000       -0.013120         1    ;  uncertainty k = 0.118120
        36        35        40        39     9      180.000000       14.998162         2    ;  uncertainty k = 0.330272
        36        35        40        39     9        0.000000       -1.220595         3    ;  uncertainty k = 0.465530
        36        35        40        39     9      180.000000        0.529040         4    ;  uncertainty k = 0.209184
        36        35        40        45     9        0.000000        0.088109         1    ;  uncertainty k = 0.075009
        36        35        40        45     9      180.000000        7.535556         2    ;  uncertainty k = 0.338447
        36        35        40        45     9        0.000000        1.477319         3    ;  uncertainty k = 0.290309
        36        35        40        45     9      180.000000        1.774694         4    ;  uncertainty k = 0.114461
        36        37        38        39     9        0.000000       -0.154253         1    ;  uncertainty k = 0.301200
        36        37        38        39     9      180.000000        7.212313         2    ;  uncertainty k = 0.604337
        36        37        38        39     9        0.000000        0.135331         3    ;  uncertainty k = 0.352254
        36        37        38        39     9      180.000000        1.223124         4    ;  uncertainty k = 0.333897
        37        36        35        40     9        0.000000       -0.049536         1    ;  uncertainty k = 0.110861
        37        36        35        40     9      180.000000       14.732728         2    ;  uncertainty k = 0.162291
        37        36        35        40     9        0.000000       -1.079303         3    ;  uncertainty k = 0.596448
        37        36        35        40     9      180.000000        0.702647         4    ;  uncertainty k = 0.194816
        37        36        35        41     9        0.000000        0.098597         1    ;  uncertainty k = 0.186603
        37        36        35        41     9      180.000000        7.482957         2    ;  uncertainty k = 0.285265
        37        36        35        41     9        0.000000        1.474020         3    ;  uncertainty k = 0.247722
        37        36        35        41     9      180.000000        1.872085         4    ;  uncertainty k = 0.175923
        37        38        39        40     9        0.000000       -0.080889         1    ;  uncertainty k = 0.206514
        37        38        39        40     9      180.000000       10.929260         2    ;  uncertainty k = 0.323199
        37        38        39        40     9        0.000000       -0.135388         3    ;  uncertainty k = 0.353385
        37        38        39        40     9      180.000000        1.145615         4    ;  uncertainty k = 0.362813
        37        38        39        44     9        0.000000        0.238438         1    ;  uncertainty k = 0.269795
        37        38        39        44     9      180.000000        7.157643         2    ;  uncertainty k = 0.398412
        37        38        39        44     9        0.000000        1.333954         3    ;  uncertainty k = 0.232315
        37        38        39        44     9      180.000000        1.682212         4    ;  uncertainty k = 0.214997
        38        37        36        42     9        0.000000        0.011876         1    ;  uncertainty k = 0.285242
        38        37        36        42     9      180.000000        6.032394         2    ;  uncertainty k = 0.710515
        38        37        36        42     9        0.000000        1.339798         3    ;  uncertainty k = 0.400150
        38        37        36        42     9      180.000000        1.620402         4    ;  uncertainty k = 0.183376
        38        39        40        45     9        0.000000        0.110524         1    ;  uncertainty k = 0.090616
        38        39        40        45     9      180.000000        7.588603         2    ;  uncertainty k = 0.193505
        38        39        40        45     9        0.000000        1.356804         3    ;  uncertainty k = 0.255845
        38        39        40        45     9      180.000000        1.842260         4    ;  uncertainty k = 0.125729
        39        38        37        43     9        0.000000       -0.011762         1    ;  uncertainty k = 0.316100
        39        38        37        43     9      180.000000        7.863741         2    ;  uncertainty k = 0.409507
        39        38        37        43     9        0.000000        1.423142         3    ;  uncertainty k = 0.377850
        39        38        37        43     9      180.000000        1.539552         4    ;  uncertainty k = 0.169963
        39        40        35        41     9        0.000000        0.132676         1    ;  uncertainty k = 0.117794
        39        40        35        41     9      180.000000        7.373963         2    ;  uncertainty k = 0.302488
        39        40        35        41     9        0.000000        1.465959         3    ;  uncertainty k = 0.286561
        39        40        35        41     9      180.000000        1.765216         4    ;  uncertainty k = 0.107625
        40        35        36        42     9        0.000000        0.064997         1    ;  uncertainty k = 0.070941
        40        35        36        42     9      180.000000        7.843998         2    ;  uncertainty k = 0.327286
        40        35        36        42     9        0.000000        1.450981         3    ;  uncertainty k = 0.308595
        40        35        36        42     9      180.000000        1.813532         4    ;  uncertainty k = 0.192168
        41        35        36        42     9        0.000000       -0.044369         1    ;  uncertainty k = 0.077999
        41        35        36        42     9      180.000000        7.831888         2    ;  uncertainty k = 0.425447
        41        35        36        42     9        0.000000       -0.458873         3    ;  uncertainty k = 0.234336
        41        35        36        42     9      180.000000        0.055049         4    ;  uncertainty k = 0.156488
        41        35        40        45     9        0.000000       -0.033640         1    ;  uncertainty k = 0.081749
        41        35        40        45     9      180.000000        7.671919         2    ;  uncertainty k = 0.462136
        41        35        40        45     9        0.000000       -0.412500         3    ;  uncertainty k = 0.307946
        41        35        40        45     9      180.000000        0.031128         4    ;  uncertainty k = 0.164375
        42        36        37        43     9        0.000000       -0.072406         1    ;  uncertainty k = 0.410348
        42        36        37        43     9      180.000000        7.688617         2    ;  uncertainty k = 0.439211
        42        36        37        43     9        0.000000        0.580479         3    ;  uncertainty k = 0.277270
        42        36        37        43     9      180.000000        1.085399         4    ;  uncertainty k = 0.289465
        44        39        40        45     9        0.000000       -0.044299         1    ;  uncertainty k = 0.196792
        44        39        40        45     9      180.000000        7.962718         2    ;  uncertainty k = 0.362966
        44        39        40        45     9        0.000000       -0.444094         3    ;  uncertainty k = 0.298229
        44        39        40        45     9      180.000000        0.169309         4    ;  uncertainty k = 0.168527

[ dihedrals ] ; impropers
;       ai        aj        ak        al funct           phase               k        pn
         6        13        16        17     4      180.000000       51.330734         2    ;  uncertainty k = 0.027223
         6        16        17        13     4      180.000000       51.330734         2    ;  uncertainty k = 0.027223
         6        17        13        16     4      180.000000       51.330734         2    ;  uncertainty k = 0.027223
         7        15        18        19     4      180.000000       45.856594         2    ;  uncertainty k = 0.099452
         7        18        19        15     4      180.000000       45.856594         2    ;  uncertainty k = 0.099452
         7        19        15        18     4      180.000000       45.856594         2    ;  uncertainty k = 0.099452
         9        10        11        12     4      180.000000        3.411082         2    ;  uncertainty k = 0.682166
         9        11        12        10     4      180.000000        3.411082         2    ;  uncertainty k = 0.682166
         9        12        10        11     4      180.000000        3.411082         2    ;  uncertainty k = 0.682166
        10         9        13        20     4      180.000000        9.635909         2    ;  uncertainty k = 0.336108
        10        13        20         9     4      180.000000        9.635909         2    ;  uncertainty k = 0.336108
        10        20         9        13     4      180.000000        9.635909         2    ;  uncertainty k = 0.336108
        11         9        17        18     4      180.000000       31.304905         2    ;  uncertainty k = 0.084542
        11        17        18         9     4      180.000000       31.304905         2    ;  uncertainty k = 0.084542
        11        18         9        17     4      180.000000       31.304905         2    ;  uncertainty k = 0.084542
        12         9        15        21     4      180.000000       17.214593         2    ;  uncertainty k = 0.063588
        12        15        21         9     4      180.000000       17.214593         2    ;  uncertainty k = 0.063588
        12        21         9        15     4      180.000000       17.214593         2    ;  uncertainty k = 0.063588
        13         6        10        38     4      180.000000       12.891292         2    ;  uncertainty k = 0.215273
        13        10        38         6     4      180.000000       12.891292         2    ;  uncertainty k = 0.215273
        13        38         6        10     4      180.000000       12.891292         2    ;  uncertainty k = 0.215273
        17         6        11        14     4      180.000000        2.982859         2    ;  uncertainty k = 0.864157
        17        11        14         6     4      180.000000        2.982859         2    ;  uncertainty k = 0.864157
        17        14         6        11     4      180.000000        2.982859         2    ;  uncertainty k = 0.864157
        19         7         8        34     4      180.000000        0.693580         2    ;  uncertainty k = 0.786577
        19         8        34         7     4      180.000000        0.693580         2    ;  uncertainty k = 0.786577
        19        34         7         8     4      180.000000        0.693580         2    ;  uncertainty k = 0.786577
        35        36        40        41     4      180.000000        4.424051         2    ;  uncertainty k = 0.145106
        35        40        41        36     4      180.000000        4.424051         2    ;  uncertainty k = 0.145106
        35        41        36        40     4      180.000000        4.424051         2    ;  uncertainty k = 0.145106
        36        35        37        42     4      180.000000        3.286729         2    ;  uncertainty k = 0.116910
        36        37        42        35     4      180.000000        3.286729         2    ;  uncertainty k = 0.116910
        36        42        35        37     4      180.000000        3.286729         2    ;  uncertainty k = 0.116910
        37        36        38        43     4      180.000000       13.485812         2    ;  uncertainty k = 0.103903
        37        38        43        36     4      180.000000       13.485812         2    ;  uncertainty k = 0.103903
        37        43        36        38     4      180.000000       13.485812         2    ;  uncertainty k = 0.103903
        38        13        37        39     4      180.000000       13.823636         2    ;  uncertainty k = 0.155040
        38        37        39        13     4      180.000000       13.823636         2    ;  uncertainty k = 0.155040
        38        39        13        37     4      180.000000       13.823636         2    ;  uncertainty k = 0.155040
        39        38        40        44     4      180.000000        3.983422         2    ;  uncertainty k = 0.161512
        39        40        44        38     4      180.000000        3.983422         2    ;  uncertainty k = 0.161512
        39        44        38        40     4      180.000000        3.983422         2    ;  uncertainty k = 0.161512
        40        35        39        45     4      180.000000        3.894941         2    ;  uncertainty k = 0.145507
        40        39        45        35     4      180.000000        3.894941         2    ;  uncertainty k = 0.145507
        40        45        35        39     4      180.000000        3.894941         2    ;  uncertainty k = 0.145507

[ pairs ]
;       ai        aj funct
         1         3     1
         1         7     1
         1        28     1
         1        29     1
         1        34     1
         2         4     1
         2        19     1
         2        26     1
         2        27     1
         2        30     1
         3        19     1
         3        24     1
         3        25     1
         3        30     1
         4         7     1
         4        22     1
         4        23     1
         4        34     1
         5         8     1
         5        22     1
         5        23     1
         5        28     1
         5        29     1
         6         9     1
         6        18     1
         6        20     1
         6        31     1
         6        32     1
         6        33     1
         6        37     1
         6        39     1
         7         9     1
         7        17     1
         7        21     1
         7        30     1
         8        15     1
         8        18     1
         8        24     1
         8        25     1
         8        26     1
         8        27     1
         9        14     1
         9        38     1
        10        15     1
        10        16     1
        10        17     1
        10        18     1
        10        21     1
        10        37     1
        10        39     1
        11        13     1
        11        15     1
        11        16     1
        11        19     1
        11        20     1
        11        21     1
        11        31     1
        11        32     1
        11        33     1
        12        13     1
        12        17     1
        12        18     1
        12        19     1
        12        20     1
        13        14     1
        13        36     1
        13        40     1
        13        43     1
        13        44     1
        14        16     1
        14        18     1
        15        34     1
        16        38     1
        17        38     1
        18        34     1
        19        22     1
        19        23     1
        19        28     1
        19        29     1
        20        38     1
        22        24     1
        22        25     1
        22        30     1
        23        24     1
        23        25     1
        23        30     1
        26        28     1
        26        29     1
        27        28     1
        27        29     1
        28        30     1
        29        30     1
        30        34     1
        35        38     1
        35        43     1
        35        44     1
        36        39     1
        36        45     1
        37        40     1
        37        41     1
        37        44     1
        38        42     1
        38        45     1
        39        41     1
        39        43     1
        40        42     1
        41        42     1
        41        45     1
        42        43     1
        44        45     1
