; ITP file created by ByteFF-joint-25, 2026-02-17 09:26:18.597796

[ atomtypes ]
;name           bonded.type        at.num        mass        charge   ptype           sigma         epsilon
 c0bf                                   6      0.0000       0.00000       A     3.39787e-01     4.51000e-01    ;  uncertainty sigma = 0.000007, epsilon = 0.000697
 c1bf                                   6      0.0000       0.00000       A     3.39778e-01     4.50893e-01    ;  uncertainty sigma = 0.000003, epsilon = 0.000829
 c2bf                                   6      0.0000       0.00000       A     3.39778e-01     4.50893e-01    ;  uncertainty sigma = 0.000003, epsilon = 0.000829
 c3bf                                   6      0.0000       0.00000       A     3.39787e-01     4.51000e-01    ;  uncertainty sigma = 0.000007, epsilon = 0.000697
 c4bf                                   6      0.0000       0.00000       A     3.31512e-01     4.13287e-01    ;  uncertainty sigma = 0.000006, epsilon = 0.000468
 o5bf                                   8      0.0000       0.00000       A     3.15613e-01     3.03556e-01    ;  uncertainty sigma = 0.000019, epsilon = 0.001085
 c6bf                                   6      0.0000       0.00000       A     3.31559e-01     4.13635e-01    ;  uncertainty sigma = 0.000021, epsilon = 0.001225
 c7bf                                   6      0.0000       0.00000       A     3.31519e-01     4.13575e-01    ;  uncertainty sigma = 0.000004, epsilon = 0.000813
 c8bf                                   6      0.0000       0.00000       A     3.31531e-01     4.13819e-01    ;  uncertainty sigma = 0.000011, epsilon = 0.000840
 c9bf                                   6      0.0000       0.00000       A     3.39779e-01     4.51067e-01    ;  uncertainty sigma = 0.000013, epsilon = 0.000925
 c10bf                                  6      0.0000       0.00000       A     3.31556e-01     4.13425e-01    ;  uncertainty sigma = 0.000018, epsilon = 0.000830
 c11bf                                  6      0.0000       0.00000       A     3.31522e-01     4.12958e-01    ;  uncertainty sigma = 0.000012, epsilon = 0.001253
 c12bf                                  6      0.0000       0.00000       A     3.31522e-01     4.13429e-01    ;  uncertainty sigma = 0.000004, epsilon = 0.000602
 c13bf                                  6      0.0000       0.00000       A     3.31526e-01     4.13592e-01    ;  uncertainty sigma = 0.000005, epsilon = 0.000647
 c14bf                                  6      0.0000       0.00000       A     3.31510e-01     4.13490e-01    ;  uncertainty sigma = 0.000003, epsilon = 0.000615
 c15bf                                  6      0.0000       0.00000       A     3.31528e-01     4.12880e-01    ;  uncertainty sigma = 0.000017, epsilon = 0.001797
 c16bf                                  6      0.0000       0.00000       A     3.31541e-01     4.13611e-01    ;  uncertainty sigma = 0.000007, epsilon = 0.001414
 c17bf                                  6      0.0000       0.00000       A     3.31523e-01     4.13623e-01    ;  uncertainty sigma = 0.000022, epsilon = 0.001127
 c18bf                                  6      0.0000       0.00000       A     3.31520e-01     4.13505e-01    ;  uncertainty sigma = 0.000010, epsilon = 0.000817
 c19bf                                  6      0.0000       0.00000       A     3.39766e-01     4.51313e-01    ;  uncertainty sigma = 0.000006, epsilon = 0.000602
 o20bf                                  8      0.0000       0.00000       A     3.15665e-01     3.03374e-01    ;  uncertainty sigma = 0.000057, epsilon = 0.002936
 n21bf                                  7      0.0000       0.00000       A     3.38435e-01     3.93631e-01    ;  uncertainty sigma = 0.000019, epsilon = 0.001026
 o22bf                                  8      0.0000       0.00000       A     3.04803e-01     6.11515e-01    ;  uncertainty sigma = 0.000019, epsilon = 0.000440
 n23bf                                  7      0.0000       0.00000       A     3.18128e-01     6.83563e-01    ;  uncertainty sigma = 0.000031, epsilon = 0.001981
 n24bf                                  7      0.0000       0.00000       A     3.38438e-01     3.93028e-01    ;  uncertainty sigma = 0.000048, epsilon = 0.001683
 n25bf                                  7      0.0000       0.00000       A     3.27898e-01     6.46446e-01    ;  uncertainty sigma = 0.000031, epsilon = 0.005668
 h26bf                                  1      0.0000       0.00000       A     2.62571e-01     6.69632e-02    ;  uncertainty sigma = 0.000011, epsilon = 0.000542
 h27bf                                  1      0.0000       0.00000       A     2.62561e-01     6.71298e-02    ;  uncertainty sigma = 0.000006, epsilon = 0.000455
 f28bf                                  9      0.0000       0.00000       A     3.03414e-01     3.47947e-01    ;  uncertainty sigma = 0.000008, epsilon = 0.000779
 h29bf                                  1      0.0000       0.00000       A     2.62521e-01     6.67593e-02    ;  uncertainty sigma = 0.000018, epsilon = 0.000881
 h30bf                                  1      0.0000       0.00000       A     2.53663e-01     6.71784e-02    ;  uncertainty sigma = 0.000041, epsilon = 0.000925
 h31bf                                  1      0.0000       0.00000       A     2.60021e-01     8.67662e-02    ;  uncertainty sigma = 0.000009, epsilon = 0.000445
 h32bf                                  1      0.0000       0.00000       A     2.60021e-01     8.67662e-02    ;  uncertainty sigma = 0.000009, epsilon = 0.000445
 h33bf                                  1      0.0000       0.00000       A     2.42188e-01     8.67182e-02    ;  uncertainty sigma = 0.000018, epsilon = 0.000739
 h34bf                                  1      0.0000       0.00000       A     2.42188e-01     8.67182e-02    ;  uncertainty sigma = 0.000018, epsilon = 0.000739
 h35bf                                  1      0.0000       0.00000       A     2.42188e-01     8.67182e-02    ;  uncertainty sigma = 0.000018, epsilon = 0.000739
 h36bf                                  1      0.0000       0.00000       A     2.42188e-01     8.67182e-02    ;  uncertainty sigma = 0.000018, epsilon = 0.000739
 h37bf                                  1      0.0000       0.00000       A     2.60021e-01     8.67662e-02    ;  uncertainty sigma = 0.000009, epsilon = 0.000445
 h38bf                                  1      0.0000       0.00000       A     2.60021e-01     8.67662e-02    ;  uncertainty sigma = 0.000009, epsilon = 0.000445
 h39bf                                  1      0.0000       0.00000       A     2.42212e-01     8.65673e-02    ;  uncertainty sigma = 0.000016, epsilon = 0.000625
 h40bf                                  1      0.0000       0.00000       A     2.42206e-01     8.67704e-02    ;  uncertainty sigma = 0.000014, epsilon = 0.000617
 h41bf                                  1      0.0000       0.00000       A     2.42206e-01     8.67704e-02    ;  uncertainty sigma = 0.000014, epsilon = 0.000617
 h42bf                                  1      0.0000       0.00000       A     2.42206e-01     8.67704e-02    ;  uncertainty sigma = 0.000014, epsilon = 0.000617
 h43bf                                  1      0.0000       0.00000       A     1.10703e-01     4.14050e-02    ;  uncertainty sigma = 0.000035, epsilon = 0.000993
 h44bf                                  1      0.0000       0.00000       A     2.62552e-01     6.72489e-02    ;  uncertainty sigma = 0.000007, epsilon = 0.000350
 h45bf                                  1      0.0000       0.00000       A     2.62565e-01     6.71043e-02    ;  uncertainty sigma = 0.000012, epsilon = 0.000451

[ moleculetype ]
;name             nrexcl
 MOL                   3

[ atoms ]
;       nr            type      resi   res      atom      cgnr      charge          mass ; qtot
         1            c0bf         1   UNL        c0         1    -0.12711       12.0110 ; qtot   -0.127
         2            c1bf         1   UNL        c1         2     0.13209       12.0110 ; qtot    0.005
         3            c2bf         1   UNL        c2         3     0.13209       12.0110 ; qtot    0.137
         4            c3bf         1   UNL        c3         4    -0.12711       12.0110 ; qtot    0.010
         5            c4bf         1   UNL        c4         5     0.15104       12.0110 ; qtot    0.161
         6            o5bf         1   UNL        o5         6    -0.41527       15.9990 ; qtot   -0.254
         7            c6bf         1   UNL        c6         7     0.70115       12.0110 ; qtot    0.447
         8            c7bf         1   UNL        c7         8    -0.19615       12.0110 ; qtot    0.251
         9            c8bf         1   UNL        c8         9     0.92634       12.0110 ; qtot    1.177
        10            c9bf         1   UNL        c9        10     0.24784       12.0110 ; qtot    1.425
        11           c10bf         1   UNL       c10        11    -0.40701       12.0110 ; qtot    1.018
        12           c11bf         1   UNL       c11        12    -0.05265       12.0110 ; qtot    0.965
        13           c12bf         1   UNL       c12        13    -0.18237       12.0110 ; qtot    0.783
        14           c13bf         1   UNL       c13        14    -0.08032       12.0110 ; qtot    0.703
        15           c14bf         1   UNL       c14        15    -0.16794       12.0110 ; qtot    0.535
        16           c15bf         1   UNL       c15        16     0.63881       12.0110 ; qtot    1.173
        17           c16bf         1   UNL       c16        17     0.52122       12.0110 ; qtot    1.695
        18           c17bf         1   UNL       c17        18     0.00398       12.0110 ; qtot    1.699
        19           c18bf         1   UNL       c18        19     0.14123       12.0110 ; qtot    1.840
        20           c19bf         1   UNL       c19        20     0.08273       12.0110 ; qtot    1.923
        21           o20bf         1   UNL       o20        21    -0.22162       15.9990 ; qtot    1.701
        22           n21bf         1   UNL       n21        22    -0.77257       14.0070 ; qtot    0.928
        23           o22bf         1   UNL       o22        23    -0.58915       15.9990 ; qtot    0.339
        24           n23bf         1   UNL       n23        24    -0.44095       14.0070 ; qtot   -0.102
        25           n24bf         1   UNL       n24        25    -0.83085       14.0070 ; qtot   -0.933
        26           n25bf         1   UNL       n25        26    -0.86394       14.0070 ; qtot   -1.796
        27           h26bf         1   UNL       h26        27     0.14187        1.0080 ; qtot   -1.655
        28           h27bf         1   UNL       h27        28     0.15220        1.0080 ; qtot   -1.502
        29           f28bf         1   UNL       f28        29    -0.14256       18.9980 ; qtot   -1.645
        30           h29bf         1   UNL       h29        30     0.16397        1.0080 ; qtot   -1.481
        31           h30bf         1   UNL       h30        31     0.02960        1.0080 ; qtot   -1.451
        32           h31bf         1   UNL       h31        32     0.05892        1.0080 ; qtot   -1.392
        33           h32bf         1   UNL       h32        33     0.05892        1.0080 ; qtot   -1.334
        34           h33bf         1   UNL       h33        34     0.04655        1.0080 ; qtot   -1.287
        35           h34bf         1   UNL       h34        35     0.04655        1.0080 ; qtot   -1.240
        36           h35bf         1   UNL       h35        36     0.04655        1.0080 ; qtot   -1.194
        37           h36bf         1   UNL       h36        37     0.04655        1.0080 ; qtot   -1.147
        38           h37bf         1   UNL       h37        38     0.05892        1.0080 ; qtot   -1.088
        39           h38bf         1   UNL       h38        39     0.05892        1.0080 ; qtot   -1.030
        40           h39bf         1   UNL       h39        40     0.07162        1.0080 ; qtot   -0.958
        41           h40bf         1   UNL       h40        41     0.06256        1.0080 ; qtot   -0.895
        42           h41bf         1   UNL       h41        42     0.06256        1.0080 ; qtot   -0.833
        43           h42bf         1   UNL       h42        43     0.06256        1.0080 ; qtot   -0.770
        44           h43bf         1   UNL       h43        44     0.44845        1.0080 ; qtot   -0.322
        45           h44bf         1   UNL       h44        45     0.16733        1.0080 ; qtot   -0.154
        46           h45bf         1   UNL       h45        46     0.15445        1.0080 ; qtot    0.000

[ bonds ]
;       ai        aj funct               r               k
         1         2     1        0.153564   209800.351904    ;  uncertainty r = 0.000030, k = 4.398851
         1        10     1        0.153800   204926.313672    ;  uncertainty r = 0.000079, k = 2.875810
         1        32     1        0.109644   310935.400293    ;  uncertainty r = 0.000023, k = 1.135255
         1        33     1        0.109644   310935.400293    ;  uncertainty r = 0.000023, k = 1.135255
         2         6     1        0.142789   254488.480176    ;  uncertainty r = 0.000039, k = 2.801926
         2        34     1        0.109818   309244.843652    ;  uncertainty r = 0.000020, k = 0.854845
         2        35     1        0.109818   309244.843652    ;  uncertainty r = 0.000020, k = 0.854845
         3         4     1        0.153564   209800.351904    ;  uncertainty r = 0.000030, k = 4.398851
         3         6     1        0.142789   254488.480176    ;  uncertainty r = 0.000039, k = 2.801926
         3        36     1        0.109818   309244.843652    ;  uncertainty r = 0.000020, k = 0.854845
         3        37     1        0.109818   309244.843652    ;  uncertainty r = 0.000020, k = 0.854845
         4        10     1        0.153800   204926.313672    ;  uncertainty r = 0.000079, k = 2.875810
         4        38     1        0.109644   310935.400293    ;  uncertainty r = 0.000023, k = 1.135255
         4        39     1        0.109644   310935.400293    ;  uncertainty r = 0.000023, k = 1.135255
         5         8     1        0.138924   362342.010059    ;  uncertainty r = 0.000023, k = 2.435684
         5        13     1        0.139031   359461.934863    ;  uncertainty r = 0.000022, k = 2.407153
         5        29     1        0.135591   339867.693896    ;  uncertainty r = 0.000037, k = 2.134475
         7        18     1        0.146572   257075.823486    ;  uncertainty r = 0.000079, k = 25.526105
         7        23     1        0.123258   653165.506641    ;  uncertainty r = 0.000088, k = 12.275836
         7        24     1        0.140996   234604.673926    ;  uncertainty r = 0.000190, k = 47.108476
         8        19     1        0.139412   360353.409814    ;  uncertainty r = 0.000052, k = 1.510798
         8        45     1        0.108814   339792.640332    ;  uncertainty r = 0.000021, k = 1.506901
         9        22     1        0.136645   531258.701172    ;  uncertainty r = 0.000130, k = 16.870211
         9        25     1        0.135678   614123.250195    ;  uncertainty r = 0.000161, k = 23.470429
         9        26     1        0.138336   585582.108496    ;  uncertainty r = 0.000160, k = 23.152169
        10        26     1        0.145807   240009.066846    ;  uncertainty r = 0.000132, k = 9.981095
        10        40     1        0.109351   304415.163379    ;  uncertainty r = 0.000015, k = 2.578074
        11        12     1        0.142625   274730.520996    ;  uncertainty r = 0.000027, k = 25.477082
        11        16     1        0.142292   412217.772266    ;  uncertainty r = 0.000148, k = 17.894615
        11        17     1        0.140398   402383.865576    ;  uncertainty r = 0.000182, k = 16.455971
        12        18     1        0.135495   408407.712158    ;  uncertainty r = 0.000062, k = 14.225984
        12        30     1        0.108670   334774.368506    ;  uncertainty r = 0.000042, k = 1.864898
        13        14     1        0.139611   373770.887988    ;  uncertainty r = 0.000024, k = 1.782567
        13        46     1        0.108753   336775.303174    ;  uncertainty r = 0.000010, k = 0.693129
        14        15     1        0.139417   368588.208252    ;  uncertainty r = 0.000036, k = 2.072994
        14        27     1        0.108713   333193.902344    ;  uncertainty r = 0.000012, k = 1.510110
        15        19     1        0.139404   354927.821094    ;  uncertainty r = 0.000054, k = 2.154255
        15        28     1        0.108799   336772.315332    ;  uncertainty r = 0.000018, k = 0.967762
        16        24     1        0.137832   261538.893018    ;  uncertainty r = 0.000169, k = 8.150192
        16        25     1        0.134034   454950.702832    ;  uncertainty r = 0.000165, k = 17.344911
        17        22     1        0.133415   406678.620020    ;  uncertainty r = 0.000077, k = 10.237136
        17        31     1        0.108927   329046.139502    ;  uncertainty r = 0.000030, k = 1.909605
        18        21     1        0.136018   321292.077148    ;  uncertainty r = 0.000164, k = 11.615236
        19        21     1        0.138549   318105.275732    ;  uncertainty r = 0.000114, k = 2.562312
        20        24     1        0.146434   260871.327441    ;  uncertainty r = 0.000086, k = 13.117193
        20        41     1        0.109141   308405.898535    ;  uncertainty r = 0.000010, k = 1.505453
        20        42     1        0.109141   308405.898535    ;  uncertainty r = 0.000010, k = 1.505453
        20        43     1        0.109141   308405.898535    ;  uncertainty r = 0.000010, k = 1.505453
        26        44     1        0.102176   435698.173926    ;  uncertainty r = 0.000065, k = 4.933124

[ angles ]
;       ai        aj        ak funct           theta             cth
         1         2         6     1      111.446632      714.965579    ;  uncertainty theta = 0.001347, k = 0.063500
         1         2        34     1      109.920456      408.541080    ;  uncertainty theta = 0.002019, k = 0.035643
         1         2        35     1      109.920456      408.541080    ;  uncertainty theta = 0.002019, k = 0.035643
         1        10         4     1      108.571205      585.454959    ;  uncertainty theta = 0.002684, k = 0.080004
         1        10        26     1      110.695145      629.201113    ;  uncertainty theta = 0.003363, k = 0.060631
         1        10        40     1      108.629013      407.998416    ;  uncertainty theta = 0.002420, k = 0.060827
         2         1        10     1      109.739159      566.930979    ;  uncertainty theta = 0.002556, k = 0.101379
         2         1        32     1      108.721451      397.694448    ;  uncertainty theta = 0.000995, k = 0.058468
         2         1        33     1      108.721451      397.694448    ;  uncertainty theta = 0.000995, k = 0.058468
         2         6         3     1      109.309448      562.168308    ;  uncertainty theta = 0.002274, k = 0.150711
         3         4        10     1      109.739159      566.930979    ;  uncertainty theta = 0.002556, k = 0.101379
         3         4        38     1      108.721451      397.694448    ;  uncertainty theta = 0.000995, k = 0.058468
         3         4        39     1      108.721451      397.694448    ;  uncertainty theta = 0.000995, k = 0.058468
         4         3         6     1      111.446632      714.965579    ;  uncertainty theta = 0.001347, k = 0.063500
         4         3        36     1      109.920456      408.541080    ;  uncertainty theta = 0.002019, k = 0.035643
         4         3        37     1      109.920456      408.541080    ;  uncertainty theta = 0.002019, k = 0.035643
         4        10        26     1      110.695145      629.201113    ;  uncertainty theta = 0.003363, k = 0.060631
         4        10        40     1      108.629013      407.998416    ;  uncertainty theta = 0.002420, k = 0.060827
         5         8        19     1      116.988953      495.182746    ;  uncertainty theta = 0.003121, k = 0.131181
         5         8        45     1      121.688576      283.214874    ;  uncertainty theta = 0.002296, k = 0.029463
         5        13        14     1      116.726151      497.539406    ;  uncertainty theta = 0.001581, k = 0.063863
         5        13        46     1      120.931015      283.053065    ;  uncertainty theta = 0.001450, k = 0.052195
         6         2        34     1      107.077614      463.773059    ;  uncertainty theta = 0.001757, k = 0.022995
         6         2        35     1      107.077614      463.773059    ;  uncertainty theta = 0.001757, k = 0.022995
         6         3        36     1      107.077614      463.773059    ;  uncertainty theta = 0.001757, k = 0.022995
         6         3        37     1      107.077614      463.773059    ;  uncertainty theta = 0.001757, k = 0.022995
         7        18        12     1      124.577538      440.962547    ;  uncertainty theta = 0.006714, k = 0.169488
         7        18        21     1      108.899315      379.590074    ;  uncertainty theta = 0.008611, k = 0.137491
         7        24        16     1      122.139503      482.866453    ;  uncertainty theta = 0.009667, k = 0.113170
         7        24        20     1      115.396751      421.229959    ;  uncertainty theta = 0.004034, k = 0.268490
         8         5        13     1      123.110733      362.711800    ;  uncertainty theta = 0.005056, k = 0.156799
         8         5        29     1      118.305275      494.831643    ;  uncertainty theta = 0.001568, k = 0.031567
         8        19        15     1      122.227699      385.012528    ;  uncertainty theta = 0.004922, k = 0.141936
         8        19        21     1      118.576370      415.182260    ;  uncertainty theta = 0.004740, k = 0.082178
         9        22        17     1      116.430397      408.139285    ;  uncertainty theta = 0.008084, k = 0.292187
         9        25        16     1      117.361549      450.859549    ;  uncertainty theta = 0.007752, k = 0.203830
         9        26        10     1      115.769875      413.653066    ;  uncertainty theta = 0.005271, k = 0.143046
         9        26        44     1      116.919144      444.716566    ;  uncertainty theta = 0.004236, k = 0.155196
        10         1        32     1      108.113968      386.815958    ;  uncertainty theta = 0.001236, k = 0.022845
        10         1        33     1      108.113968      386.815958    ;  uncertainty theta = 0.001236, k = 0.022845
        10         4        38     1      108.113968      386.815958    ;  uncertainty theta = 0.001236, k = 0.022845
        10         4        39     1      108.113968      386.815958    ;  uncertainty theta = 0.001236, k = 0.022845
        10        26        44     1      112.314087      333.078060    ;  uncertainty theta = 0.005154, k = 0.136963
        11        12        18     1      121.368919      512.749564    ;  uncertainty theta = 0.007020, k = 0.215084
        11        12        30     1      118.339821      255.619267    ;  uncertainty theta = 0.003231, k = 0.249698
        11        16        24     1      117.681435      482.338857    ;  uncertainty theta = 0.006416, k = 0.133319
        11        16        25     1      122.717102      546.835955    ;  uncertainty theta = 0.006239, k = 0.171770
        11        17        22     1      122.582458      739.538025    ;  uncertainty theta = 0.001322, k = 0.194233
        11        17        31     1      120.227554      259.894306    ;  uncertainty theta = 0.003837, k = 0.132008
        12        11        16     1      119.944412      443.083053    ;  uncertainty theta = 0.011475, k = 0.222962
        12        11        17     1      123.590012      408.173984    ;  uncertainty theta = 0.006741, k = 0.159112
        12        18        21     1      122.549332      426.684941    ;  uncertainty theta = 0.004896, k = 0.067578
        13         5        29     1      119.293419      514.343941    ;  uncertainty theta = 0.001877, k = 0.048350
        13        14        15     1      121.373886      519.748775    ;  uncertainty theta = 0.002823, k = 0.043726
        13        14        27     1      119.788490      281.738127    ;  uncertainty theta = 0.000707, k = 0.023658
        14        13        46     1      121.936203      281.959215    ;  uncertainty theta = 0.001316, k = 0.013785
        14        15        19     1      117.936729      525.191276    ;  uncertainty theta = 0.002303, k = 0.083109
        14        15        28     1      121.346336      290.996479    ;  uncertainty theta = 0.001330, k = 0.032449
        15        14        27     1      119.681580      280.982037    ;  uncertainty theta = 0.001151, k = 0.021968
        15        19        21     1      119.605362      413.216541    ;  uncertainty theta = 0.005199, k = 0.063705
        16        11        17     1      117.308609      431.286600    ;  uncertainty theta = 0.004742, k = 0.201449
        16        24        20     1      116.105141      434.029988    ;  uncertainty theta = 0.006238, k = 0.134169
        18         7        23     1      123.370323      468.502532    ;  uncertainty theta = 0.003313, k = 0.076247
        18         7        24     1      114.588638      324.638971    ;  uncertainty theta = 0.013436, k = 0.658320
        18        12        30     1      120.625931      278.018424    ;  uncertainty theta = 0.006134, k = 0.201365
        18        21        19     1      112.625504      461.598127    ;  uncertainty theta = 0.003909, k = 0.249485
        19         8        45     1      121.766945      271.579242    ;  uncertainty theta = 0.002526, k = 0.094035
        19        15        28     1      120.355507      276.172602    ;  uncertainty theta = 0.001164, k = 0.067047
        22         9        25     1      128.682663      742.959167    ;  uncertainty theta = 0.002344, k = 0.092422
        22         9        26     1      120.633926      828.446109    ;  uncertainty theta = 0.008794, k = 0.131219
        22        17        31     1      117.368210      318.255396    ;  uncertainty theta = 0.003552, k = 0.161159
        23         7        24     1      122.241714      693.873779    ;  uncertainty theta = 0.002201, k = 0.062599
        24        16        25     1      117.253708      579.084025    ;  uncertainty theta = 0.012486, k = 0.174674
        24        20        41     1      107.941574      486.865820    ;  uncertainty theta = 0.001912, k = 0.065460
        24        20        42     1      107.941574      486.865820    ;  uncertainty theta = 0.001912, k = 0.065460
        24        20        43     1      107.941574      486.865820    ;  uncertainty theta = 0.001912, k = 0.065460
        25         9        26     1      121.206215      911.423903    ;  uncertainty theta = 0.007564, k = 0.092378
        26        10        40     1      103.516525      447.268585    ;  uncertainty theta = 0.003472, k = 0.117225
        32         1        33     1      105.438766      311.403087    ;  uncertainty theta = 0.002031, k = 0.016795
        34         2        35     1      106.555054      320.242949    ;  uncertainty theta = 0.001313, k = 0.032691
        36         3        37     1      106.555054      320.242949    ;  uncertainty theta = 0.001313, k = 0.032691
        38         4        39     1      105.438766      311.403087    ;  uncertainty theta = 0.002031, k = 0.016795
        41        20        42     1      107.444313      326.050726    ;  uncertainty theta = 0.002153, k = 0.056618
        41        20        43     1      107.444313      326.050726    ;  uncertainty theta = 0.002153, k = 0.056618
        42        20        43     1      107.444313      326.050726    ;  uncertainty theta = 0.002153, k = 0.056617

[ dihedrals ] ; propers for gromacs 4.5 or higher, use funct 9
;       ai        aj        ak        al funct           phase               k        pn
         1         2         6         3     9        0.000000       -3.090920         1    ;  uncertainty k = 1.764724
         1         2         6         3     9      180.000000        0.099646         2    ;  uncertainty k = 1.147879
         1         2         6         3     9        0.000000        0.937069         3    ;  uncertainty k = 0.257053
         1         2         6         3     9      180.000000       -0.348700         4    ;  uncertainty k = 0.188482
         1        10         4         3     9        0.000000       -7.182169         1    ;  uncertainty k = 1.160296
         1        10         4         3     9      180.000000        0.651721         2    ;  uncertainty k = 0.689258
         1        10         4         3     9        0.000000        1.337200         3    ;  uncertainty k = 0.165866
         1        10         4         3     9      180.000000       -1.433186         4    ;  uncertainty k = 0.219126
         1        10         4        38     9        0.000000       -1.858871         1    ;  uncertainty k = 0.333669
         1        10         4        38     9      180.000000       -0.004379         2    ;  uncertainty k = 0.147655
         1        10         4        38     9        0.000000        0.298804         3    ;  uncertainty k = 0.155785
         1        10         4        38     9      180.000000       -0.141300         4    ;  uncertainty k = 0.079428
         1        10         4        39     9        0.000000       -1.858871         1    ;  uncertainty k = 0.333669
         1        10         4        39     9      180.000000       -0.004379         2    ;  uncertainty k = 0.147655
         1        10         4        39     9        0.000000        0.298804         3    ;  uncertainty k = 0.155785
         1        10         4        39     9      180.000000       -0.141300         4    ;  uncertainty k = 0.079428
         1        10        26         9     9        0.000000       -2.505166         1    ;  uncertainty k = 0.386991
         1        10        26         9     9      180.000000        0.497922         2    ;  uncertainty k = 0.198475
         1        10        26         9     9        0.000000        0.367323         3    ;  uncertainty k = 0.126648
         1        10        26         9     9      180.000000        0.361622         4    ;  uncertainty k = 0.081112
         1        10        26        44     9        0.000000        2.787690         1    ;  uncertainty k = 0.893880
         1        10        26        44     9      180.000000       -0.663636         2    ;  uncertainty k = 0.236091
         1        10        26        44     9        0.000000        0.218247         3    ;  uncertainty k = 0.119918
         1        10        26        44     9      180.000000        0.123444         4    ;  uncertainty k = 0.073281
         2         1        10         4     9        0.000000       -7.182169         1    ;  uncertainty k = 1.160296
         2         1        10         4     9      180.000000        0.651721         2    ;  uncertainty k = 0.689258
         2         1        10         4     9        0.000000        1.337200         3    ;  uncertainty k = 0.165866
         2         1        10         4     9      180.000000       -1.433186         4    ;  uncertainty k = 0.219126
         2         1        10        26     9        0.000000       -4.805352         1    ;  uncertainty k = 0.699431
         2         1        10        26     9      180.000000       -0.187719         2    ;  uncertainty k = 0.333371
         2         1        10        26     9        0.000000        1.016385         3    ;  uncertainty k = 0.162984
         2         1        10        26     9      180.000000       -0.078100         4    ;  uncertainty k = 0.195994
         2         1        10        40     9        0.000000       -1.687319         1    ;  uncertainty k = 0.555497
         2         1        10        40     9      180.000000       -0.643722         2    ;  uncertainty k = 0.388884
         2         1        10        40     9        0.000000        0.030461         3    ;  uncertainty k = 0.099395
         2         1        10        40     9      180.000000       -0.147535         4    ;  uncertainty k = 0.108264
         2         6         3         4     9        0.000000       -3.090920         1    ;  uncertainty k = 1.764724
         2         6         3         4     9      180.000000        0.099646         2    ;  uncertainty k = 1.147879
         2         6         3         4     9        0.000000        0.937069         3    ;  uncertainty k = 0.257053
         2         6         3         4     9      180.000000       -0.348700         4    ;  uncertainty k = 0.188482
         2         6         3        36     9        0.000000       -5.435409         1    ;  uncertainty k = 1.705293
         2         6         3        36     9      180.000000        0.309318         2    ;  uncertainty k = 0.194050
         2         6         3        36     9        0.000000        0.745836         3    ;  uncertainty k = 0.129776
         2         6         3        36     9      180.000000       -0.529315         4    ;  uncertainty k = 0.148432
         2         6         3        37     9        0.000000       -5.435409         1    ;  uncertainty k = 1.705293
         2         6         3        37     9      180.000000        0.309318         2    ;  uncertainty k = 0.194050
         2         6         3        37     9        0.000000        0.745836         3    ;  uncertainty k = 0.129776
         2         6         3        37     9      180.000000       -0.529315         4    ;  uncertainty k = 0.148432
         3         4        10        26     9        0.000000       -4.805352         1    ;  uncertainty k = 0.699431
         3         4        10        26     9      180.000000       -0.187719         2    ;  uncertainty k = 0.333371
         3         4        10        26     9        0.000000        1.016385         3    ;  uncertainty k = 0.162984
         3         4        10        26     9      180.000000       -0.078100         4    ;  uncertainty k = 0.195994
         3         4        10        40     9        0.000000       -1.687319         1    ;  uncertainty k = 0.555497
         3         4        10        40     9      180.000000       -0.643722         2    ;  uncertainty k = 0.388884
         3         4        10        40     9        0.000000        0.030461         3    ;  uncertainty k = 0.099395
         3         4        10        40     9      180.000000       -0.147535         4    ;  uncertainty k = 0.108264
         3         6         2        34     9        0.000000       -5.435409         1    ;  uncertainty k = 1.705293
         3         6         2        34     9      180.000000        0.309318         2    ;  uncertainty k = 0.194050
         3         6         2        34     9        0.000000        0.745836         3    ;  uncertainty k = 0.129776
         3         6         2        34     9      180.000000       -0.529315         4    ;  uncertainty k = 0.148432
         3         6         2        35     9        0.000000       -5.435409         1    ;  uncertainty k = 1.705293
         3         6         2        35     9      180.000000        0.309318         2    ;  uncertainty k = 0.194050
         3         6         2        35     9        0.000000        0.745836         3    ;  uncertainty k = 0.129776
         3         6         2        35     9      180.000000       -0.529315         4    ;  uncertainty k = 0.148432
         4        10         1        32     9        0.000000       -1.858871         1    ;  uncertainty k = 0.333669
         4        10         1        32     9      180.000000       -0.004379         2    ;  uncertainty k = 0.147655
         4        10         1        32     9        0.000000        0.298804         3    ;  uncertainty k = 0.155785
         4        10         1        32     9      180.000000       -0.141300         4    ;  uncertainty k = 0.079428
         4        10         1        33     9        0.000000       -1.858871         1    ;  uncertainty k = 0.333669
         4        10         1        33     9      180.000000       -0.004379         2    ;  uncertainty k = 0.147655
         4        10         1        33     9        0.000000        0.298804         3    ;  uncertainty k = 0.155785
         4        10         1        33     9      180.000000       -0.141300         4    ;  uncertainty k = 0.079428
         4        10        26         9     9        0.000000       -2.505166         1    ;  uncertainty k = 0.386991
         4        10        26         9     9      180.000000        0.497922         2    ;  uncertainty k = 0.198475
         4        10        26         9     9        0.000000        0.367323         3    ;  uncertainty k = 0.126648
         4        10        26         9     9      180.000000        0.361622         4    ;  uncertainty k = 0.081112
         4        10        26        44     9        0.000000        2.787690         1    ;  uncertainty k = 0.893880
         4        10        26        44     9      180.000000       -0.663636         2    ;  uncertainty k = 0.236091
         4        10        26        44     9        0.000000        0.218247         3    ;  uncertainty k = 0.119918
         4        10        26        44     9      180.000000        0.123444         4    ;  uncertainty k = 0.073281
         5         8        19        15     9        0.000000       -0.020919         1    ;  uncertainty k = 0.062231
         5         8        19        15     9      180.000000        9.575895         2    ;  uncertainty k = 0.503209
         5         8        19        15     9        0.000000       -0.143052         3    ;  uncertainty k = 0.453573
         5         8        19        15     9      180.000000        1.209524         4    ;  uncertainty k = 0.294239
         5         8        19        21     9        0.000000        0.115799         1    ;  uncertainty k = 0.140104
         5         8        19        21     9      180.000000       10.701752         2    ;  uncertainty k = 0.371230
         5         8        19        21     9        0.000000        1.300410         3    ;  uncertainty k = 0.156663
         5         8        19        21     9      180.000000        1.604754         4    ;  uncertainty k = 0.126471
         5        13        14        15     9        0.000000       -0.125009         1    ;  uncertainty k = 0.204013
         5        13        14        15     9      180.000000       14.925733         2    ;  uncertainty k = 0.262476
         5        13        14        15     9        0.000000       -1.038579         3    ;  uncertainty k = 0.499845
         5        13        14        15     9      180.000000        0.687258         4    ;  uncertainty k = 0.197300
         5        13        14        27     9        0.000000       -0.069795         1    ;  uncertainty k = 0.097584
         5        13        14        27     9      180.000000        7.542404         2    ;  uncertainty k = 0.327654
         5        13        14        27     9        0.000000        1.381121         3    ;  uncertainty k = 0.289098
         5        13        14        27     9      180.000000        1.713538         4    ;  uncertainty k = 0.207390
         6         2         1        10     9        0.000000       -0.987581         1    ;  uncertainty k = 1.101439
         6         2         1        10     9      180.000000       -3.903899         2    ;  uncertainty k = 0.673251
         6         2         1        10     9        0.000000        1.869479         3    ;  uncertainty k = 0.389552
         6         2         1        10     9      180.000000       -0.727265         4    ;  uncertainty k = 0.139798
         6         2         1        32     9        0.000000       -1.784485         1    ;  uncertainty k = 0.521415
         6         2         1        32     9      180.000000       -0.100756         2    ;  uncertainty k = 0.269946
         6         2         1        32     9        0.000000        1.457848         3    ;  uncertainty k = 0.236776
         6         2         1        32     9      180.000000       -0.196225         4    ;  uncertainty k = 0.165688
         6         2         1        33     9        0.000000       -1.784485         1    ;  uncertainty k = 0.521415
         6         2         1        33     9      180.000000       -0.100756         2    ;  uncertainty k = 0.269946
         6         2         1        33     9        0.000000        1.457848         3    ;  uncertainty k = 0.236776
         6         2         1        33     9      180.000000       -0.196225         4    ;  uncertainty k = 0.165688
         6         3         4        10     9        0.000000       -0.987581         1    ;  uncertainty k = 1.101439
         6         3         4        10     9      180.000000       -3.903899         2    ;  uncertainty k = 0.673251
         6         3         4        10     9        0.000000        1.869479         3    ;  uncertainty k = 0.389552
         6         3         4        10     9      180.000000       -0.727265         4    ;  uncertainty k = 0.139798
         6         3         4        38     9        0.000000       -1.784485         1    ;  uncertainty k = 0.521415
         6         3         4        38     9      180.000000       -0.100756         2    ;  uncertainty k = 0.269946
         6         3         4        38     9        0.000000        1.457848         3    ;  uncertainty k = 0.236776
         6         3         4        38     9      180.000000       -0.196225         4    ;  uncertainty k = 0.165688
         6         3         4        39     9        0.000000       -1.784485         1    ;  uncertainty k = 0.521415
         6         3         4        39     9      180.000000       -0.100756         2    ;  uncertainty k = 0.269946
         6         3         4        39     9        0.000000        1.457848         3    ;  uncertainty k = 0.236776
         6         3         4        39     9      180.000000       -0.196225         4    ;  uncertainty k = 0.165688
         7        18        12        11     9        0.000000        0.266279         1    ;  uncertainty k = 0.593572
         7        18        12        11     9      180.000000       13.253373         2    ;  uncertainty k = 0.373762
         7        18        12        11     9        0.000000        1.581324         3    ;  uncertainty k = 0.147578
         7        18        12        11     9      180.000000        1.151876         4    ;  uncertainty k = 0.263591
         7        18        12        30     9        0.000000        0.175942         1    ;  uncertainty k = 0.817672
         7        18        12        30     9      180.000000       10.885974         2    ;  uncertainty k = 0.590600
         7        18        12        30     9        0.000000        1.610162         3    ;  uncertainty k = 0.481784
         7        18        12        30     9      180.000000        1.220855         4    ;  uncertainty k = 0.072704
         7        18        21        19     9        0.000000        3.036971         1    ;  uncertainty k = 2.149369
         7        18        21        19     9      180.000000        3.200114         2    ;  uncertainty k = 0.542272
         7        18        21        19     9        0.000000        1.869039         3    ;  uncertainty k = 0.422917
         7        18        21        19     9      180.000000        0.226376         4    ;  uncertainty k = 0.136242
         7        24        16        11     9        0.000000        0.333348         1    ;  uncertainty k = 1.954271
         7        24        16        11     9      180.000000        4.783190         2    ;  uncertainty k = 0.771541
         7        24        16        11     9        0.000000        0.302506         3    ;  uncertainty k = 0.500519
         7        24        16        11     9      180.000000        0.065337         4    ;  uncertainty k = 0.080312
         7        24        16        25     9        0.000000       -0.186389         1    ;  uncertainty k = 1.484040
         7        24        16        25     9      180.000000        7.598971         2    ;  uncertainty k = 0.214150
         7        24        16        25     9        0.000000        0.847345         3    ;  uncertainty k = 0.579848
         7        24        16        25     9      180.000000       -0.217448         4    ;  uncertainty k = 0.164841
         7        24        20        41     9        0.000000       -0.140291         1    ;  uncertainty k = 0.225853
         7        24        20        41     9      180.000000        0.717668         2    ;  uncertainty k = 0.271079
         7        24        20        41     9        0.000000        0.702955         3    ;  uncertainty k = 0.095742
         7        24        20        41     9      180.000000        0.500419         4    ;  uncertainty k = 0.086324
         7        24        20        42     9        0.000000       -0.140291         1    ;  uncertainty k = 0.225853
         7        24        20        42     9      180.000000        0.717668         2    ;  uncertainty k = 0.271079
         7        24        20        42     9        0.000000        0.702955         3    ;  uncertainty k = 0.095742
         7        24        20        42     9      180.000000        0.500419         4    ;  uncertainty k = 0.086324
         7        24        20        43     9        0.000000       -0.140291         1    ;  uncertainty k = 0.225853
         7        24        20        43     9      180.000000        0.717668         2    ;  uncertainty k = 0.271079
         7        24        20        43     9        0.000000        0.702955         3    ;  uncertainty k = 0.095742
         7        24        20        43     9      180.000000        0.500419         4    ;  uncertainty k = 0.086324
         8         5        13        14     9        0.000000        0.071354         1    ;  uncertainty k = 0.230923
         8         5        13        14     9      180.000000        9.604301         2    ;  uncertainty k = 0.405796
         8         5        13        14     9        0.000000       -0.240547         3    ;  uncertainty k = 0.509703
         8         5        13        14     9      180.000000        1.133168         4    ;  uncertainty k = 0.273781
         8         5        13        46     9        0.000000       -0.042448         1    ;  uncertainty k = 0.171197
         8         5        13        46     9      180.000000        5.772453         2    ;  uncertainty k = 0.674930
         8         5        13        46     9        0.000000        1.334910         3    ;  uncertainty k = 0.337567
         8         5        13        46     9      180.000000        1.505417         4    ;  uncertainty k = 0.165270
         8        19        15        14     9        0.000000        0.003468         1    ;  uncertainty k = 0.116179
         8        19        15        14     9      180.000000        9.916912         2    ;  uncertainty k = 0.429495
         8        19        15        14     9        0.000000       -0.209437         3    ;  uncertainty k = 0.438397
         8        19        15        14     9      180.000000        1.147462         4    ;  uncertainty k = 0.322878
         8        19        15        28     9        0.000000        0.208655         1    ;  uncertainty k = 0.293643
         8        19        15        28     9      180.000000        6.220681         2    ;  uncertainty k = 0.751414
         8        19        15        28     9        0.000000        1.466607         3    ;  uncertainty k = 0.406233
         8        19        15        28     9      180.000000        1.589093         4    ;  uncertainty k = 0.178372
         8        19        21        18     9        0.000000        4.424318         1    ;  uncertainty k = 0.661690
         8        19        21        18     9      180.000000        4.712296         2    ;  uncertainty k = 0.276010
         8        19        21        18     9        0.000000        0.729690         3    ;  uncertainty k = 0.227226
         8        19        21        18     9      180.000000        0.119343         4    ;  uncertainty k = 0.091836
         9        22        17        11     9        0.000000       -0.104525         1    ;  uncertainty k = 0.767322
         9        22        17        11     9      180.000000       17.183536         2    ;  uncertainty k = 0.578997
         9        22        17        11     9        0.000000       -0.518418         3    ;  uncertainty k = 0.684749
         9        22        17        11     9      180.000000        1.636817         4    ;  uncertainty k = 0.610911
         9        22        17        31     9        0.000000        0.074307         1    ;  uncertainty k = 0.978394
         9        22        17        31     9      180.000000       17.919795         2    ;  uncertainty k = 0.668021
         9        22        17        31     9        0.000000        1.366389         3    ;  uncertainty k = 0.782182
         9        22        17        31     9      180.000000        1.132681         4    ;  uncertainty k = 0.479665
         9        25        16        11     9        0.000000        0.249813         1    ;  uncertainty k = 0.806620
         9        25        16        11     9      180.000000       12.639597         2    ;  uncertainty k = 0.670233
         9        25        16        11     9        0.000000        0.173407         3    ;  uncertainty k = 0.846506
         9        25        16        11     9      180.000000        0.944984         4    ;  uncertainty k = 0.425567
         9        25        16        24     9        0.000000        0.494014         1    ;  uncertainty k = 0.776412
         9        25        16        24     9      180.000000       16.014109         2    ;  uncertainty k = 1.041178
         9        25        16        24     9        0.000000        1.715046         3    ;  uncertainty k = 0.318991
         9        25        16        24     9      180.000000        1.130754         4    ;  uncertainty k = 0.421626
         9        26        10        40     9        0.000000       -0.140403         1    ;  uncertainty k = 0.458985
         9        26        10        40     9      180.000000       -0.299246         2    ;  uncertainty k = 0.132432
         9        26        10        40     9        0.000000        0.051472         3    ;  uncertainty k = 0.152476
         9        26        10        40     9      180.000000        0.288509         4    ;  uncertainty k = 0.067555
        10         1         2        34     9        0.000000        3.577618         1    ;  uncertainty k = 1.073611
        10         1         2        34     9      180.000000       -2.876486         2    ;  uncertainty k = 0.518010
        10         1         2        34     9        0.000000       -0.152945         3    ;  uncertainty k = 0.197941
        10         1         2        34     9      180.000000        0.397574         4    ;  uncertainty k = 0.144225
        10         1         2        35     9        0.000000        3.577618         1    ;  uncertainty k = 1.073611
        10         1         2        35     9      180.000000       -2.876486         2    ;  uncertainty k = 0.518010
        10         1         2        35     9        0.000000       -0.152945         3    ;  uncertainty k = 0.197941
        10         1         2        35     9      180.000000        0.397574         4    ;  uncertainty k = 0.144225
        10         4         3        36     9        0.000000        3.577618         1    ;  uncertainty k = 1.073611
        10         4         3        36     9      180.000000       -2.876486         2    ;  uncertainty k = 0.518010
        10         4         3        36     9        0.000000       -0.152945         3    ;  uncertainty k = 0.197941
        10         4         3        36     9      180.000000        0.397574         4    ;  uncertainty k = 0.144225
        10         4         3        37     9        0.000000        3.577618         1    ;  uncertainty k = 1.073611
        10         4         3        37     9      180.000000       -2.876486         2    ;  uncertainty k = 0.518010
        10         4         3        37     9        0.000000       -0.152945         3    ;  uncertainty k = 0.197941
        10         4         3        37     9      180.000000        0.397574         4    ;  uncertainty k = 0.144225
        10        26         9        22     9        0.000000        9.093944         1    ;  uncertainty k = 0.673525
        10        26         9        22     9      180.000000       11.328686         2    ;  uncertainty k = 0.246478
        10        26         9        22     9        0.000000        1.388656         3    ;  uncertainty k = 0.179739
        10        26         9        22     9      180.000000       -0.343204         4    ;  uncertainty k = 0.041612
        10        26         9        25     9        0.000000        9.938973         1    ;  uncertainty k = 0.713391
        10        26         9        25     9      180.000000       11.380040         2    ;  uncertainty k = 0.182529
        10        26         9        25     9        0.000000        1.267523         3    ;  uncertainty k = 0.207303
        10        26         9        25     9      180.000000       -0.373690         4    ;  uncertainty k = 0.056739
        11        12        18        21     9        0.000000        0.232255         1    ;  uncertainty k = 0.333842
        11        12        18        21     9      180.000000       20.927667         2    ;  uncertainty k = 0.641246
        11        12        18        21     9        0.000000        2.043211         3    ;  uncertainty k = 0.268768
        11        12        18        21     9      180.000000        0.670954         4    ;  uncertainty k = 0.534452
        11        16        24        20     9        0.000000        2.967921         1    ;  uncertainty k = 2.014747
        11        16        24        20     9      180.000000        9.109406         2    ;  uncertainty k = 0.521199
        11        16        24        20     9        0.000000        1.035250         3    ;  uncertainty k = 0.677163
        11        16        24        20     9      180.000000        0.106497         4    ;  uncertainty k = 0.313308
        12        11        16        24     9        0.000000       -0.062020         1    ;  uncertainty k = 0.339295
        12        11        16        24     9      180.000000        8.053652         2    ;  uncertainty k = 0.663531
        12        11        16        24     9        0.000000        0.285032         3    ;  uncertainty k = 0.537184
        12        11        16        24     9      180.000000        1.053518         4    ;  uncertainty k = 0.278439
        12        11        16        25     9        0.000000        0.157401         1    ;  uncertainty k = 0.957190
        12        11        16        25     9      180.000000        8.049863         2    ;  uncertainty k = 1.519812
        12        11        16        25     9        0.000000       -0.008364         3    ;  uncertainty k = 0.302824
        12        11        16        25     9      180.000000        1.287214         4    ;  uncertainty k = 0.556756
        12        11        17        22     9        0.000000        0.183285         1    ;  uncertainty k = 0.441327
        12        11        17        22     9      180.000000       10.754244         2    ;  uncertainty k = 0.627013
        12        11        17        22     9        0.000000        0.289908         3    ;  uncertainty k = 0.244961
        12        11        17        22     9      180.000000        1.233915         4    ;  uncertainty k = 0.374879
        12        11        17        31     9        0.000000       -0.445723         1    ;  uncertainty k = 0.532686
        12        11        17        31     9      180.000000        5.920296         2    ;  uncertainty k = 0.574460
        12        11        17        31     9        0.000000        0.826478         3    ;  uncertainty k = 0.279057
        12        11        17        31     9      180.000000        0.699414         4    ;  uncertainty k = 0.169023
        12        18         7        23     9        0.000000       -2.804007         1    ;  uncertainty k = 1.036735
        12        18         7        23     9      180.000000        2.748765         2    ;  uncertainty k = 0.699198
        12        18         7        23     9        0.000000       -0.147051         3    ;  uncertainty k = 0.412583
        12        18         7        23     9      180.000000       -0.006579         4    ;  uncertainty k = 0.184857
        12        18         7        24     9        0.000000        1.917905         1    ;  uncertainty k = 1.588677
        12        18         7        24     9      180.000000        0.630726         2    ;  uncertainty k = 0.853893
        12        18         7        24     9        0.000000        0.425754         3    ;  uncertainty k = 0.333340
        12        18         7        24     9      180.000000        0.359980         4    ;  uncertainty k = 0.165126
        12        18        21        19     9        0.000000        5.812092         1    ;  uncertainty k = 1.109691
        12        18        21        19     9      180.000000        6.423947         2    ;  uncertainty k = 0.211156
        12        18        21        19     9        0.000000       -1.089544         3    ;  uncertainty k = 0.489238
        12        18        21        19     9      180.000000        0.210750         4    ;  uncertainty k = 0.076356
        13         5         8        19     9        0.000000       -0.120011         1    ;  uncertainty k = 0.169693
        13         5         8        19     9      180.000000        9.261140         2    ;  uncertainty k = 0.470594
        13         5         8        19     9        0.000000       -0.001006         3    ;  uncertainty k = 0.493533
        13         5         8        19     9      180.000000        1.282585         4    ;  uncertainty k = 0.254066
        13         5         8        45     9        0.000000        0.161734         1    ;  uncertainty k = 0.083642
        13         5         8        45     9      180.000000        5.784470         2    ;  uncertainty k = 0.652409
        13         5         8        45     9        0.000000        1.386618         3    ;  uncertainty k = 0.322402
        13         5         8        45     9      180.000000        1.559280         4    ;  uncertainty k = 0.150951
        13        14        15        19     9        0.000000       -0.222744         1    ;  uncertainty k = 0.220815
        13        14        15        19     9      180.000000       14.596169         2    ;  uncertainty k = 0.263719
        13        14        15        19     9        0.000000       -0.917082         3    ;  uncertainty k = 0.531316
        13        14        15        19     9      180.000000        0.792800         4    ;  uncertainty k = 0.241009
        13        14        15        28     9        0.000000        0.135816         1    ;  uncertainty k = 0.046721
        13        14        15        28     9      180.000000        7.915236         2    ;  uncertainty k = 0.400917
        13        14        15        28     9        0.000000        1.533873         3    ;  uncertainty k = 0.310546
        13        14        15        28     9      180.000000        1.894534         4    ;  uncertainty k = 0.138510
        14        13         5        29     9        0.000000       -0.071508         1    ;  uncertainty k = 0.315648
        14        13         5        29     9      180.000000       12.309290         2    ;  uncertainty k = 0.633540
        14        13         5        29     9        0.000000        1.468296         3    ;  uncertainty k = 0.282259
        14        13         5        29     9      180.000000        1.490913         4    ;  uncertainty k = 0.242899
        14        15        19        21     9        0.000000        0.019319         1    ;  uncertainty k = 0.190943
        14        15        19        21     9      180.000000       10.497265         2    ;  uncertainty k = 0.549063
        14        15        19        21     9        0.000000        1.321453         3    ;  uncertainty k = 0.157285
        14        15        19        21     9      180.000000        1.697745         4    ;  uncertainty k = 0.180207
        15        14        13        46     9        0.000000        0.096917         1    ;  uncertainty k = 0.082243
        15        14        13        46     9      180.000000        7.608864         2    ;  uncertainty k = 0.414482
        15        14        13        46     9        0.000000        1.549582         3    ;  uncertainty k = 0.348834
        15        14        13        46     9      180.000000        1.834059         4    ;  uncertainty k = 0.157341
        15        19         8        45     9        0.000000        0.282049         1    ;  uncertainty k = 0.336444
        15        19         8        45     9      180.000000        6.106756         2    ;  uncertainty k = 0.771517
        15        19         8        45     9        0.000000        1.472620         3    ;  uncertainty k = 0.346868
        15        19         8        45     9      180.000000        1.574110         4    ;  uncertainty k = 0.169120
        15        19        21        18     9        0.000000        4.449361         1    ;  uncertainty k = 0.612930
        15        19        21        18     9      180.000000        4.877246         2    ;  uncertainty k = 0.191687
        15        19        21        18     9        0.000000        0.843154         3    ;  uncertainty k = 0.229842
        15        19        21        18     9      180.000000        0.114417         4    ;  uncertainty k = 0.068545
        16        11        12        18     9        0.000000       -0.028716         1    ;  uncertainty k = 1.068183
        16        11        12        18     9      180.000000        6.497571         2    ;  uncertainty k = 0.998015
        16        11        12        18     9        0.000000        0.273310         3    ;  uncertainty k = 0.413973
        16        11        12        18     9      180.000000        0.550372         4    ;  uncertainty k = 0.203736
        16        11        12        30     9        0.000000        0.695748         1    ;  uncertainty k = 1.086540
        16        11        12        30     9      180.000000        6.198333         2    ;  uncertainty k = 0.660735
        16        11        12        30     9        0.000000        1.069539         3    ;  uncertainty k = 0.314021
        16        11        12        30     9      180.000000        0.198280         4    ;  uncertainty k = 0.158231
        16        11        17        22     9        0.000000        0.095609         1    ;  uncertainty k = 0.587923
        16        11        17        22     9      180.000000       12.156769         2    ;  uncertainty k = 0.408624
        16        11        17        22     9        0.000000       -1.004838         3    ;  uncertainty k = 0.831375
        16        11        17        22     9      180.000000        0.812368         4    ;  uncertainty k = 0.182022
        16        11        17        31     9        0.000000       -0.160465         1    ;  uncertainty k = 0.870413
        16        11        17        31     9      180.000000        6.533188         2    ;  uncertainty k = 0.831900
        16        11        17        31     9        0.000000        0.667354         3    ;  uncertainty k = 0.056278
        16        11        17        31     9      180.000000        0.763221         4    ;  uncertainty k = 0.217113
        16        24         7        18     9        0.000000        1.692791         1    ;  uncertainty k = 2.254056
        16        24         7        18     9      180.000000        2.459534         2    ;  uncertainty k = 0.793579
        16        24         7        18     9        0.000000        0.921953         3    ;  uncertainty k = 0.285574
        16        24         7        18     9      180.000000        0.450241         4    ;  uncertainty k = 0.220632
        16        24         7        23     9        0.000000        2.570162         1    ;  uncertainty k = 2.607662
        16        24         7        23     9      180.000000       13.805431         2    ;  uncertainty k = 0.650630
        16        24         7        23     9        0.000000        0.924378         3    ;  uncertainty k = 0.100235
        16        24         7        23     9      180.000000       -0.446747         4    ;  uncertainty k = 0.520040
        16        24        20        41     9        0.000000       -0.513999         1    ;  uncertainty k = 0.421798
        16        24        20        41     9      180.000000        1.064222         2    ;  uncertainty k = 0.170920
        16        24        20        41     9        0.000000        0.337674         3    ;  uncertainty k = 0.203924
        16        24        20        41     9      180.000000        0.463464         4    ;  uncertainty k = 0.153804
        16        24        20        42     9        0.000000       -0.513999         1    ;  uncertainty k = 0.421798
        16        24        20        42     9      180.000000        1.064222         2    ;  uncertainty k = 0.170920
        16        24        20        42     9        0.000000        0.337674         3    ;  uncertainty k = 0.203924
        16        24        20        42     9      180.000000        0.463464         4    ;  uncertainty k = 0.153804
        16        24        20        43     9        0.000000       -0.513999         1    ;  uncertainty k = 0.421798
        16        24        20        43     9      180.000000        1.064222         2    ;  uncertainty k = 0.170920
        16        24        20        43     9        0.000000        0.337674         3    ;  uncertainty k = 0.203924
        16        24        20        43     9      180.000000        0.463464         4    ;  uncertainty k = 0.153804
        16        25         9        22     9        0.000000       -0.011775         1    ;  uncertainty k = 1.524920
        16        25         9        22     9      180.000000        6.821374         2    ;  uncertainty k = 0.898889
        16        25         9        22     9        0.000000        1.249123         3    ;  uncertainty k = 0.710005
        16        25         9        22     9      180.000000        0.792185         4    ;  uncertainty k = 0.299134
        16        25         9        26     9        0.000000        0.554608         1    ;  uncertainty k = 1.703229
        16        25         9        26     9      180.000000        9.310026         2    ;  uncertainty k = 0.657413
        16        25         9        26     9        0.000000        2.011422         3    ;  uncertainty k = 0.545697
        16        25         9        26     9      180.000000        0.922009         4    ;  uncertainty k = 0.235939
        17        11        12        18     9        0.000000        0.211208         1    ;  uncertainty k = 0.378419
        17        11        12        18     9      180.000000        5.218088         2    ;  uncertainty k = 1.083059
        17        11        12        18     9        0.000000        0.963139         3    ;  uncertainty k = 0.300561
        17        11        12        18     9      180.000000        0.385686         4    ;  uncertainty k = 0.218212
        17        11        12        30     9        0.000000        0.372916         1    ;  uncertainty k = 0.911275
        17        11        12        30     9      180.000000        5.415654         2    ;  uncertainty k = 0.333992
        17        11        12        30     9        0.000000        0.942646         3    ;  uncertainty k = 0.324936
        17        11        12        30     9      180.000000        0.088208         4    ;  uncertainty k = 0.129862
        17        11        16        24     9        0.000000       -0.730412         1    ;  uncertainty k = 0.839803
        17        11        16        24     9      180.000000        6.192495         2    ;  uncertainty k = 0.797667
        17        11        16        24     9        0.000000        0.123931         3    ;  uncertainty k = 0.246373
        17        11        16        24     9      180.000000        1.034343         4    ;  uncertainty k = 0.306402
        17        11        16        25     9        0.000000       -0.114074         1    ;  uncertainty k = 0.535657
        17        11        16        25     9      180.000000        7.382431         2    ;  uncertainty k = 1.014506
        17        11        16        25     9        0.000000       -0.340092         3    ;  uncertainty k = 0.305905
        17        11        16        25     9      180.000000        1.217933         4    ;  uncertainty k = 0.581078
        17        22         9        25     9        0.000000        0.006441         1    ;  uncertainty k = 0.909214
        17        22         9        25     9      180.000000        6.529173         2    ;  uncertainty k = 1.343490
        17        22         9        25     9        0.000000        0.792547         3    ;  uncertainty k = 0.550716
        17        22         9        25     9      180.000000        0.512996         4    ;  uncertainty k = 0.212874
        17        22         9        26     9        0.000000        0.345933         1    ;  uncertainty k = 0.780095
        17        22         9        26     9      180.000000        7.807502         2    ;  uncertainty k = 0.530631
        17        22         9        26     9        0.000000        1.834583         3    ;  uncertainty k = 0.693167
        17        22         9        26     9      180.000000        0.637103         4    ;  uncertainty k = 0.276027
        18         7        24        20     9        0.000000        1.098552         1    ;  uncertainty k = 2.068750
        18         7        24        20     9      180.000000        7.253364         2    ;  uncertainty k = 0.761525
        18         7        24        20     9        0.000000        1.506974         3    ;  uncertainty k = 0.211548
        18         7        24        20     9      180.000000       -0.048611         4    ;  uncertainty k = 0.186300
        19         8         5        29     9        0.000000        0.048207         1    ;  uncertainty k = 0.094692
        19         8         5        29     9      180.000000       12.683575         2    ;  uncertainty k = 0.576138
        19         8         5        29     9        0.000000        1.506876         3    ;  uncertainty k = 0.358133
        19         8         5        29     9      180.000000        1.473460         4    ;  uncertainty k = 0.256040
        19        15        14        27     9        0.000000       -0.022420         1    ;  uncertainty k = 0.149848
        19        15        14        27     9      180.000000        7.858346         2    ;  uncertainty k = 0.262150
        19        15        14        27     9        0.000000        1.310400         3    ;  uncertainty k = 0.211976
        19        15        14        27     9      180.000000        1.733777         4    ;  uncertainty k = 0.141000
        20        24         7        23     9        0.000000        0.943198         1    ;  uncertainty k = 0.953020
        20        24         7        23     9      180.000000       13.405514         2    ;  uncertainty k = 0.210551
        20        24         7        23     9        0.000000        0.437924         3    ;  uncertainty k = 0.356109
        20        24         7        23     9      180.000000       -0.037170         4    ;  uncertainty k = 0.148302
        20        24        16        25     9        0.000000        1.839415         1    ;  uncertainty k = 1.375652
        20        24        16        25     9      180.000000       10.595157         2    ;  uncertainty k = 0.797045
        20        24        16        25     9        0.000000        0.861485         3    ;  uncertainty k = 0.307083
        20        24        16        25     9      180.000000        0.212546         4    ;  uncertainty k = 0.455172
        21        18         7        23     9        0.000000       -1.804986         1    ;  uncertainty k = 1.457062
        21        18         7        23     9      180.000000        9.511163         2    ;  uncertainty k = 0.582019
        21        18         7        23     9        0.000000        0.214736         3    ;  uncertainty k = 0.588590
        21        18         7        23     9      180.000000       -0.304909         4    ;  uncertainty k = 0.463376
        21        18         7        24     9        0.000000        1.514116         1    ;  uncertainty k = 1.146078
        21        18         7        24     9      180.000000        3.378499         2    ;  uncertainty k = 0.574417
        21        18         7        24     9        0.000000        0.703486         3    ;  uncertainty k = 0.394115
        21        18         7        24     9      180.000000        0.525145         4    ;  uncertainty k = 0.158337
        21        18        12        30     9        0.000000        0.126600         1    ;  uncertainty k = 0.738360
        21        18        12        30     9      180.000000       16.198146         2    ;  uncertainty k = 0.422704
        21        18        12        30     9        0.000000        1.897609         3    ;  uncertainty k = 0.160029
        21        18        12        30     9      180.000000        0.943143         4    ;  uncertainty k = 0.584940
        21        19         8        45     9        0.000000       -0.032413         1    ;  uncertainty k = 0.133027
        21        19         8        45     9      180.000000        8.378584         2    ;  uncertainty k = 0.292786
        21        19         8        45     9        0.000000        0.815174         3    ;  uncertainty k = 0.253061
        21        19         8        45     9      180.000000        1.084811         4    ;  uncertainty k = 0.094050
        21        19        15        28     9        0.000000       -0.076483         1    ;  uncertainty k = 0.205127
        21        19        15        28     9      180.000000        8.595893         2    ;  uncertainty k = 0.234020
        21        19        15        28     9        0.000000        0.793466         3    ;  uncertainty k = 0.252173
        21        19        15        28     9      180.000000        1.073495         4    ;  uncertainty k = 0.087989
        22         9        26        44     9        0.000000       10.289713         1    ;  uncertainty k = 0.671474
        22         9        26        44     9      180.000000        9.708733         2    ;  uncertainty k = 0.263556
        22         9        26        44     9        0.000000        1.249260         3    ;  uncertainty k = 0.563999
        22         9        26        44     9      180.000000       -0.441153         4    ;  uncertainty k = 0.253050
        25         9        26        44     9        0.000000       12.329273         1    ;  uncertainty k = 0.748604
        25         9        26        44     9      180.000000       10.060159         2    ;  uncertainty k = 0.345763
        25         9        26        44     9        0.000000        1.224279         3    ;  uncertainty k = 0.555432
        25         9        26        44     9      180.000000       -0.524195         4    ;  uncertainty k = 0.158878
        26        10         1        32     9        0.000000       -0.664477         1    ;  uncertainty k = 0.439753
        26        10         1        32     9      180.000000       -0.719545         2    ;  uncertainty k = 0.206246
        26        10         1        32     9        0.000000        1.110830         3    ;  uncertainty k = 0.090613
        26        10         1        32     9      180.000000       -0.312617         4    ;  uncertainty k = 0.084156
        26        10         1        33     9        0.000000       -0.664477         1    ;  uncertainty k = 0.439753
        26        10         1        33     9      180.000000       -0.719545         2    ;  uncertainty k = 0.206246
        26        10         1        33     9        0.000000        1.110830         3    ;  uncertainty k = 0.090613
        26        10         1        33     9      180.000000       -0.312617         4    ;  uncertainty k = 0.084156
        26        10         4        38     9        0.000000       -0.664477         1    ;  uncertainty k = 0.439753
        26        10         4        38     9      180.000000       -0.719545         2    ;  uncertainty k = 0.206246
        26        10         4        38     9        0.000000        1.110830         3    ;  uncertainty k = 0.090613
        26        10         4        38     9      180.000000       -0.312617         4    ;  uncertainty k = 0.084156
        26        10         4        39     9        0.000000       -0.664477         1    ;  uncertainty k = 0.439753
        26        10         4        39     9      180.000000       -0.719545         2    ;  uncertainty k = 0.206246
        26        10         4        39     9        0.000000        1.110830         3    ;  uncertainty k = 0.090613
        26        10         4        39     9      180.000000       -0.312617         4    ;  uncertainty k = 0.084156
        27        14        13        46     9        0.000000       -0.007200         1    ;  uncertainty k = 0.133021
        27        14        13        46     9      180.000000        7.305936         2    ;  uncertainty k = 0.512119
        27        14        13        46     9        0.000000       -0.369000         3    ;  uncertainty k = 0.269782
        27        14        13        46     9      180.000000        0.036592         4    ;  uncertainty k = 0.155150
        27        14        15        28     9        0.000000       -0.041818         1    ;  uncertainty k = 0.138573
        27        14        15        28     9      180.000000        7.465290         2    ;  uncertainty k = 0.397875
        27        14        15        28     9        0.000000       -0.389455         3    ;  uncertainty k = 0.274253
        27        14        15        28     9      180.000000        0.101295         4    ;  uncertainty k = 0.116534
        29         5         8        45     9        0.000000       -0.302506         1    ;  uncertainty k = 0.258014
        29         5         8        45     9      180.000000        8.681742         2    ;  uncertainty k = 0.378537
        29         5         8        45     9        0.000000        0.834084         3    ;  uncertainty k = 0.280058
        29         5         8        45     9      180.000000        1.039583         4    ;  uncertainty k = 0.203903
        29         5        13        46     9        0.000000       -0.313551         1    ;  uncertainty k = 0.243395
        29         5        13        46     9      180.000000        8.831121         2    ;  uncertainty k = 0.288661
        29         5        13        46     9        0.000000        0.791611         3    ;  uncertainty k = 0.256452
        29         5        13        46     9      180.000000        0.911949         4    ;  uncertainty k = 0.172239
        32         1         2        34     9        0.000000       -0.225271         1    ;  uncertainty k = 0.371622
        32         1         2        34     9      180.000000        0.719911         2    ;  uncertainty k = 0.314571
        32         1         2        34     9        0.000000        0.112053         3    ;  uncertainty k = 0.052184
        32         1         2        34     9      180.000000       -0.321413         4    ;  uncertainty k = 0.066104
        32         1         2        35     9        0.000000       -0.225271         1    ;  uncertainty k = 0.371622
        32         1         2        35     9      180.000000        0.719911         2    ;  uncertainty k = 0.314571
        32         1         2        35     9        0.000000        0.112053         3    ;  uncertainty k = 0.052184
        32         1         2        35     9      180.000000       -0.321413         4    ;  uncertainty k = 0.066104
        32         1        10        40     9        0.000000        1.333899         1    ;  uncertainty k = 0.470364
        32         1        10        40     9      180.000000       -0.346033         2    ;  uncertainty k = 0.220492
        32         1        10        40     9        0.000000        0.040957         3    ;  uncertainty k = 0.124052
        32         1        10        40     9      180.000000        0.039296         4    ;  uncertainty k = 0.035575
        33         1         2        34     9        0.000000       -0.225271         1    ;  uncertainty k = 0.371622
        33         1         2        34     9      180.000000        0.719911         2    ;  uncertainty k = 0.314571
        33         1         2        34     9        0.000000        0.112053         3    ;  uncertainty k = 0.052184
        33         1         2        34     9      180.000000       -0.321413         4    ;  uncertainty k = 0.066104
        33         1         2        35     9        0.000000       -0.225271         1    ;  uncertainty k = 0.371622
        33         1         2        35     9      180.000000        0.719911         2    ;  uncertainty k = 0.314571
        33         1         2        35     9        0.000000        0.112053         3    ;  uncertainty k = 0.052184
        33         1         2        35     9      180.000000       -0.321413         4    ;  uncertainty k = 0.066104
        33         1        10        40     9        0.000000        1.333899         1    ;  uncertainty k = 0.470364
        33         1        10        40     9      180.000000       -0.346033         2    ;  uncertainty k = 0.220492
        33         1        10        40     9        0.000000        0.040957         3    ;  uncertainty k = 0.124052
        33         1        10        40     9      180.000000        0.039296         4    ;  uncertainty k = 0.035575
        36         3         4        38     9        0.000000       -0.225271         1    ;  uncertainty k = 0.371622
        36         3         4        38     9      180.000000        0.719911         2    ;  uncertainty k = 0.314571
        36         3         4        38     9        0.000000        0.112053         3    ;  uncertainty k = 0.052184
        36         3         4        38     9      180.000000       -0.321413         4    ;  uncertainty k = 0.066104
        36         3         4        39     9        0.000000       -0.225271         1    ;  uncertainty k = 0.371622
        36         3         4        39     9      180.000000        0.719911         2    ;  uncertainty k = 0.314571
        36         3         4        39     9        0.000000        0.112053         3    ;  uncertainty k = 0.052184
        36         3         4        39     9      180.000000       -0.321413         4    ;  uncertainty k = 0.066104
        37         3         4        38     9        0.000000       -0.225271         1    ;  uncertainty k = 0.371622
        37         3         4        38     9      180.000000        0.719911         2    ;  uncertainty k = 0.314571
        37         3         4        38     9        0.000000        0.112053         3    ;  uncertainty k = 0.052184
        37         3         4        38     9      180.000000       -0.321413         4    ;  uncertainty k = 0.066104
        37         3         4        39     9        0.000000       -0.225271         1    ;  uncertainty k = 0.371622
        37         3         4        39     9      180.000000        0.719911         2    ;  uncertainty k = 0.314571
        37         3         4        39     9        0.000000        0.112053         3    ;  uncertainty k = 0.052184
        37         3         4        39     9      180.000000       -0.321413         4    ;  uncertainty k = 0.066104
        38         4        10        40     9        0.000000        1.333899         1    ;  uncertainty k = 0.470364
        38         4        10        40     9      180.000000       -0.346033         2    ;  uncertainty k = 0.220492
        38         4        10        40     9        0.000000        0.040957         3    ;  uncertainty k = 0.124052
        38         4        10        40     9      180.000000        0.039296         4    ;  uncertainty k = 0.035575
        39         4        10        40     9        0.000000        1.333899         1    ;  uncertainty k = 0.470364
        39         4        10        40     9      180.000000       -0.346033         2    ;  uncertainty k = 0.220492
        39         4        10        40     9        0.000000        0.040957         3    ;  uncertainty k = 0.124052
        39         4        10        40     9      180.000000        0.039296         4    ;  uncertainty k = 0.035575
        40        10        26        44     9        0.000000        0.976343         1    ;  uncertainty k = 0.742026
        40        10        26        44     9      180.000000       -1.754256         2    ;  uncertainty k = 0.294904
        40        10        26        44     9        0.000000       -0.016582         3    ;  uncertainty k = 0.098589
        40        10        26        44     9      180.000000        0.124158         4    ;  uncertainty k = 0.074181

[ dihedrals ] ; impropers
;       ai        aj        ak        al funct           phase               k        pn
         5         8        13        29     4      180.000000       17.845085         2    ;  uncertainty k = 0.031328
         5        13        29         8     4      180.000000       17.845085         2    ;  uncertainty k = 0.031328
         5        29         8        13     4      180.000000       17.845085         2    ;  uncertainty k = 0.031328
         7        18        23        24     4      180.000000       48.299974         2    ;  uncertainty k = 0.047079
         7        23        24        18     4      180.000000       48.299974         2    ;  uncertainty k = 0.047079
         7        24        18        23     4      180.000000       48.299974         2    ;  uncertainty k = 0.047079
         8         5        19        45     4      180.000000        1.325310         2    ;  uncertainty k = 0.337134
         8        19        45         5     4      180.000000        1.325310         2    ;  uncertainty k = 0.337134
         8        45         5        19     4      180.000000        1.325310         2    ;  uncertainty k = 0.337134
         9        22        25        26     4      180.000000       45.856594         2    ;  uncertainty k = 0.099452
         9        25        26        22     4      180.000000       45.856594         2    ;  uncertainty k = 0.099452
         9        26        22        25     4      180.000000       45.856594         2    ;  uncertainty k = 0.099452
        11        12        16        17     4      180.000000        3.588200         2    ;  uncertainty k = 0.560293
        11        16        17        12     4      180.000000        3.588200         2    ;  uncertainty k = 0.560293
        11        17        12        16     4      180.000000        3.588200         2    ;  uncertainty k = 0.560293
        12        11        18        30     4      180.000000        7.483223         2    ;  uncertainty k = 0.362500
        12        18        30        11     4      180.000000        7.483223         2    ;  uncertainty k = 0.362500
        12        30        11        18     4      180.000000        7.483223         2    ;  uncertainty k = 0.362500
        13         5        14        46     4      180.000000        1.793473         2    ;  uncertainty k = 0.109454
        13        14        46         5     4      180.000000        1.793473         2    ;  uncertainty k = 0.109454
        13        46         5        14     4      180.000000        1.793473         2    ;  uncertainty k = 0.109454
        14        13        15        27     4      180.000000        4.978179         2    ;  uncertainty k = 0.108875
        14        15        27        13     4      180.000000        4.978179         2    ;  uncertainty k = 0.108875
        14        27        13        15     4      180.000000        4.978179         2    ;  uncertainty k = 0.108875
        15        14        19        28     4      180.000000        2.204730         2    ;  uncertainty k = 0.183938
        15        19        28        14     4      180.000000        2.204730         2    ;  uncertainty k = 0.183938
        15        28        14        19     4      180.000000        2.204730         2    ;  uncertainty k = 0.183938
        16        11        24        25     4      180.000000       30.939003         2    ;  uncertainty k = 0.078078
        16        24        25        11     4      180.000000       30.939003         2    ;  uncertainty k = 0.078078
        16        25        11        24     4      180.000000       30.939003         2    ;  uncertainty k = 0.078078
        17        11        22        31     4      180.000000       16.808059         2    ;  uncertainty k = 0.060652
        17        22        31        11     4      180.000000       16.808059         2    ;  uncertainty k = 0.060652
        17        31        11        22     4      180.000000       16.808059         2    ;  uncertainty k = 0.060652
        18         7        12        21     4      180.000000       13.729253         2    ;  uncertainty k = 0.309206
        18        12        21         7     4      180.000000       13.729253         2    ;  uncertainty k = 0.309206
        18        21         7        12     4      180.000000       13.729253         2    ;  uncertainty k = 0.309206
        19         8        15        21     4      180.000000       17.687478         2    ;  uncertainty k = 0.054696
        19        15        21         8     4      180.000000       17.687478         2    ;  uncertainty k = 0.054696
        19        21         8        15     4      180.000000       17.687478         2    ;  uncertainty k = 0.054696
        24         7        16        20     4      180.000000        3.524429         2    ;  uncertainty k = 0.779434
        24        16        20         7     4      180.000000        3.524429         2    ;  uncertainty k = 0.779434
        24        20         7        16     4      180.000000        3.524429         2    ;  uncertainty k = 0.779434
        26         9        10        44     4      180.000000        0.693580         2    ;  uncertainty k = 0.786577
        26        10        44         9     4      180.000000        0.693580         2    ;  uncertainty k = 0.786577
        26        44         9        10     4      180.000000        0.693580         2    ;  uncertainty k = 0.786577

[ pairs ]
;       ai        aj funct
         1         3     1
         1         9     1
         1        38     1
         1        39     1
         1        44     1
         2         4     1
         2        26     1
         2        36     1
         2        37     1
         2        40     1
         3        26     1
         3        34     1
         3        35     1
         3        40     1
         4         9     1
         4        32     1
         4        33     1
         4        44     1
         5        15     1
         5        21     1
         5        27     1
         6        10     1
         6        32     1
         6        33     1
         6        38     1
         6        39     1
         7        11     1
         7        19     1
         7        25     1
         7        30     1
         7        41     1
         7        42     1
         7        43     1
         8        14     1
         8        18     1
         8        28     1
         8        46     1
         9        11     1
         9        24     1
         9        31     1
         9        40     1
        10        22     1
        10        25     1
        10        34     1
        10        35     1
        10        36     1
        10        37     1
        11        20     1
        11        21     1
        12        19     1
        12        22     1
        12        23     1
        12        24     1
        12        25     1
        12        31     1
        13        19     1
        13        28     1
        13        45     1
        14        21     1
        14        29     1
        15        18     1
        15        45     1
        15        46     1
        16        18     1
        16        22     1
        16        23     1
        16        26     1
        16        30     1
        16        31     1
        16        41     1
        16        42     1
        16        43     1
        17        18     1
        17        24     1
        17        25     1
        17        26     1
        17        30     1
        18        20     1
        19        27     1
        19        29     1
        20        23     1
        20        25     1
        21        23     1
        21        24     1
        21        28     1
        21        30     1
        21        45     1
        22        44     1
        25        44     1
        26        32     1
        26        33     1
        26        38     1
        26        39     1
        27        28     1
        27        46     1
        29        45     1
        29        46     1
        32        34     1
        32        35     1
        32        40     1
        33        34     1
        33        35     1
        33        40     1
        36        38     1
        36        39     1
        37        38     1
        37        39     1
        38        40     1
        39        40     1
        40        44     1
