; ITP file created by ByteFF-joint-25, 2026-02-17 09:26:34.296845

[ atomtypes ]
;name           bonded.type        at.num        mass        charge   ptype           sigma         epsilon
 c0bf                                   6      0.0000       0.00000       A     3.39787e-01     4.51000e-01    ;  uncertainty sigma = 0.000007, epsilon = 0.000697
 c1bf                                   6      0.0000       0.00000       A     3.39778e-01     4.50893e-01    ;  uncertainty sigma = 0.000003, epsilon = 0.000829
 c2bf                                   6      0.0000       0.00000       A     3.39778e-01     4.50893e-01    ;  uncertainty sigma = 0.000003, epsilon = 0.000829
 c3bf                                   6      0.0000       0.00000       A     3.39787e-01     4.51000e-01    ;  uncertainty sigma = 0.000007, epsilon = 0.000697
 c4bf                                   6      0.0000       0.00000       A     3.31526e-01     4.13333e-01    ;  uncertainty sigma = 0.000004, epsilon = 0.000702
 o5bf                                   8      0.0000       0.00000       A     3.15613e-01     3.03556e-01    ;  uncertainty sigma = 0.000019, epsilon = 0.001085
 c6bf                                   6      0.0000       0.00000       A     3.31559e-01     4.13635e-01    ;  uncertainty sigma = 0.000021, epsilon = 0.001225
 c7bf                                   6      0.0000       0.00000       A     3.31524e-01     4.12819e-01    ;  uncertainty sigma = 0.000006, epsilon = 0.000490
 c8bf                                   6      0.0000       0.00000       A     3.31531e-01     4.13819e-01    ;  uncertainty sigma = 0.000011, epsilon = 0.000840
 c9bf                                   6      0.0000       0.00000       A     3.39779e-01     4.51067e-01    ;  uncertainty sigma = 0.000013, epsilon = 0.000925
 c10bf                                  6      0.0000       0.00000       A     3.31556e-01     4.13425e-01    ;  uncertainty sigma = 0.000018, epsilon = 0.000830
 c11bf                                  6      0.0000       0.00000       A     3.31522e-01     4.12958e-01    ;  uncertainty sigma = 0.000012, epsilon = 0.001253
 c12bf                                  6      0.0000       0.00000       A     3.31522e-01     4.13449e-01    ;  uncertainty sigma = 0.000004, epsilon = 0.000595
 c13bf                                  6      0.0000       0.00000       A     3.31520e-01     4.13498e-01    ;  uncertainty sigma = 0.000004, epsilon = 0.000571
 c14bf                                  6      0.0000       0.00000       A     3.31526e-01     4.13403e-01    ;  uncertainty sigma = 0.000005, epsilon = 0.000659
 c15bf                                  6      0.0000       0.00000       A     3.31528e-01     4.12880e-01    ;  uncertainty sigma = 0.000017, epsilon = 0.001797
 c16bf                                  6      0.0000       0.00000       A     3.31541e-01     4.13611e-01    ;  uncertainty sigma = 0.000007, epsilon = 0.001414
 c17bf                                  6      0.0000       0.00000       A     3.31529e-01     4.13581e-01    ;  uncertainty sigma = 0.000019, epsilon = 0.001027
 c18bf                                  6      0.0000       0.00000       A     3.31546e-01     4.13170e-01    ;  uncertainty sigma = 0.000012, epsilon = 0.001048
 c19bf                                  6      0.0000       0.00000       A     3.39766e-01     4.51313e-01    ;  uncertainty sigma = 0.000006, epsilon = 0.000602
 f20bf                                  9      0.0000       0.00000       A     3.03408e-01     3.48101e-01    ;  uncertainty sigma = 0.000015, epsilon = 0.000885
 o21bf                                  8      0.0000       0.00000       A     3.15661e-01     3.03543e-01    ;  uncertainty sigma = 0.000052, epsilon = 0.003674
 n22bf                                  7      0.0000       0.00000       A     3.38435e-01     3.93631e-01    ;  uncertainty sigma = 0.000019, epsilon = 0.001026
 o23bf                                  8      0.0000       0.00000       A     3.04803e-01     6.11515e-01    ;  uncertainty sigma = 0.000019, epsilon = 0.000440
 n24bf                                  7      0.0000       0.00000       A     3.18128e-01     6.83563e-01    ;  uncertainty sigma = 0.000031, epsilon = 0.001981
 n25bf                                  7      0.0000       0.00000       A     3.38438e-01     3.93028e-01    ;  uncertainty sigma = 0.000048, epsilon = 0.001683
 n26bf                                  7      0.0000       0.00000       A     3.27898e-01     6.46446e-01    ;  uncertainty sigma = 0.000031, epsilon = 0.005668
 h27bf                                  1      0.0000       0.00000       A     2.62562e-01     6.69705e-02    ;  uncertainty sigma = 0.000010, epsilon = 0.000501
 h28bf                                  1      0.0000       0.00000       A     2.62548e-01     6.71089e-02    ;  uncertainty sigma = 0.000006, epsilon = 0.000465
 h29bf                                  1      0.0000       0.00000       A     2.62567e-01     6.70495e-02    ;  uncertainty sigma = 0.000009, epsilon = 0.000415
 h30bf                                  1      0.0000       0.00000       A     2.62521e-01     6.67593e-02    ;  uncertainty sigma = 0.000018, epsilon = 0.000881
 h31bf                                  1      0.0000       0.00000       A     2.53663e-01     6.71784e-02    ;  uncertainty sigma = 0.000041, epsilon = 0.000925
 h32bf                                  1      0.0000       0.00000       A     2.60021e-01     8.67662e-02    ;  uncertainty sigma = 0.000009, epsilon = 0.000445
 h33bf                                  1      0.0000       0.00000       A     2.60021e-01     8.67662e-02    ;  uncertainty sigma = 0.000009, epsilon = 0.000445
 h34bf                                  1      0.0000       0.00000       A     2.42188e-01     8.67182e-02    ;  uncertainty sigma = 0.000018, epsilon = 0.000739
 h35bf                                  1      0.0000       0.00000       A     2.42188e-01     8.67182e-02    ;  uncertainty sigma = 0.000018, epsilon = 0.000739
 h36bf                                  1      0.0000       0.00000       A     2.42188e-01     8.67182e-02    ;  uncertainty sigma = 0.000018, epsilon = 0.000739
 h37bf                                  1      0.0000       0.00000       A     2.42188e-01     8.67182e-02    ;  uncertainty sigma = 0.000018, epsilon = 0.000739
 h38bf                                  1      0.0000       0.00000       A     2.60021e-01     8.67662e-02    ;  uncertainty sigma = 0.000009, epsilon = 0.000445
 h39bf                                  1      0.0000       0.00000       A     2.60021e-01     8.67662e-02    ;  uncertainty sigma = 0.000009, epsilon = 0.000445
 h40bf                                  1      0.0000       0.00000       A     2.42212e-01     8.65673e-02    ;  uncertainty sigma = 0.000016, epsilon = 0.000625
 h41bf                                  1      0.0000       0.00000       A     2.42206e-01     8.67704e-02    ;  uncertainty sigma = 0.000014, epsilon = 0.000617
 h42bf                                  1      0.0000       0.00000       A     2.42206e-01     8.67704e-02    ;  uncertainty sigma = 0.000014, epsilon = 0.000617
 h43bf                                  1      0.0000       0.00000       A     2.42206e-01     8.67704e-02    ;  uncertainty sigma = 0.000014, epsilon = 0.000617
 h44bf                                  1      0.0000       0.00000       A     1.10703e-01     4.14049e-02    ;  uncertainty sigma = 0.000035, epsilon = 0.000993
 h45bf                                  1      0.0000       0.00000       A     2.62560e-01     6.69792e-02    ;  uncertainty sigma = 0.000009, epsilon = 0.000524

[ moleculetype ]
;name             nrexcl
 MOL                   3

[ atoms ]
;       nr            type      resi   res      atom      cgnr      charge          mass ; qtot
         1            c0bf         1   UNL        c0         1    -0.12711       12.0110 ; qtot   -0.127
         2            c1bf         1   UNL        c1         2     0.13209       12.0110 ; qtot    0.005
         3            c2bf         1   UNL        c2         3     0.13209       12.0110 ; qtot    0.137
         4            c3bf         1   UNL        c3         4    -0.12711       12.0110 ; qtot    0.010
         5            c4bf         1   UNL        c4         5    -0.15070       12.0110 ; qtot   -0.141
         6            o5bf         1   UNL        o5         6    -0.41527       15.9990 ; qtot   -0.556
         7            c6bf         1   UNL        c6         7     0.70215       12.0110 ; qtot    0.146
         8            c7bf         1   UNL        c7         8     0.11604       12.0110 ; qtot    0.262
         9            c8bf         1   UNL        c8         9     0.92634       12.0110 ; qtot    1.189
        10            c9bf         1   UNL        c9        10     0.24784       12.0110 ; qtot    1.436
        11           c10bf         1   UNL       c10        11    -0.40701       12.0110 ; qtot    1.029
        12           c11bf         1   UNL       c11        12    -0.04643       12.0110 ; qtot    0.983
        13           c12bf         1   UNL       c12        13    -0.11551       12.0110 ; qtot    0.867
        14           c13bf         1   UNL       c13        14    -0.12589       12.0110 ; qtot    0.742
        15           c14bf         1   UNL       c14        15    -0.11993       12.0110 ; qtot    0.622
        16           c15bf         1   UNL       c15        16     0.63881       12.0110 ; qtot    1.260
        17           c16bf         1   UNL       c16        17     0.52122       12.0110 ; qtot    1.782
        18           c17bf         1   UNL       c17        18     0.00526       12.0110 ; qtot    1.787
        19           c18bf         1   UNL       c18        19     0.06284       12.0110 ; qtot    1.850
        20           c19bf         1   UNL       c19        20     0.08273       12.0110 ; qtot    1.932
        21           f20bf         1   UNL       f20        21    -0.13459       18.9980 ; qtot    1.798
        22           o21bf         1   UNL       o21        22    -0.21188       15.9990 ; qtot    1.586
        23           n22bf         1   UNL       n22        23    -0.77257       14.0070 ; qtot    0.813
        24           o23bf         1   UNL       o23        24    -0.58915       15.9990 ; qtot    0.224
        25           n24bf         1   UNL       n24        25    -0.44095       14.0070 ; qtot   -0.217
        26           n25bf         1   UNL       n25        26    -0.83085       14.0070 ; qtot   -1.048
        27           n26bf         1   UNL       n26        27    -0.86394       14.0070 ; qtot   -1.911
        28           h27bf         1   UNL       h27        28     0.14157        1.0080 ; qtot   -1.770
        29           h28bf         1   UNL       h28        29     0.15140        1.0080 ; qtot   -1.619
        30           h29bf         1   UNL       h29        30     0.15478        1.0080 ; qtot   -1.464
        31           h30bf         1   UNL       h30        31     0.16397        1.0080 ; qtot   -1.300
        32           h31bf         1   UNL       h31        32     0.02960        1.0080 ; qtot   -1.270
        33           h32bf         1   UNL       h32        33     0.05892        1.0080 ; qtot   -1.211
        34           h33bf         1   UNL       h33        34     0.05892        1.0080 ; qtot   -1.152
        35           h34bf         1   UNL       h34        35     0.04655        1.0080 ; qtot   -1.106
        36           h35bf         1   UNL       h35        36     0.04655        1.0080 ; qtot   -1.059
        37           h36bf         1   UNL       h36        37     0.04655        1.0080 ; qtot   -1.013
        38           h37bf         1   UNL       h37        38     0.04655        1.0080 ; qtot   -0.966
        39           h38bf         1   UNL       h38        39     0.05892        1.0080 ; qtot   -0.907
        40           h39bf         1   UNL       h39        40     0.05892        1.0080 ; qtot   -0.848
        41           h40bf         1   UNL       h40        41     0.07162        1.0080 ; qtot   -0.777
        42           h41bf         1   UNL       h41        42     0.06256        1.0080 ; qtot   -0.714
        43           h42bf         1   UNL       h42        43     0.06256        1.0080 ; qtot   -0.652
        44           h43bf         1   UNL       h43        44     0.06256        1.0080 ; qtot   -0.589
        45           h44bf         1   UNL       h44        45     0.44845        1.0080 ; qtot   -0.141
        46           h45bf         1   UNL       h45        46     0.14053        1.0080 ; qtot    0.000

[ bonds ]
;       ai        aj funct               r               k
         1         2     1        0.153564   209800.351904    ;  uncertainty r = 0.000030, k = 4.398851
         1        10     1        0.153800   204926.313672    ;  uncertainty r = 0.000079, k = 2.875810
         1        33     1        0.109644   310935.400293    ;  uncertainty r = 0.000023, k = 1.135255
         1        34     1        0.109644   310935.400293    ;  uncertainty r = 0.000023, k = 1.135255
         2         6     1        0.142789   254488.480176    ;  uncertainty r = 0.000039, k = 2.801926
         2        35     1        0.109818   309244.843652    ;  uncertainty r = 0.000020, k = 0.854845
         2        36     1        0.109818   309244.843652    ;  uncertainty r = 0.000020, k = 0.854845
         3         4     1        0.153564   209800.351904    ;  uncertainty r = 0.000030, k = 4.398851
         3         6     1        0.142789   254488.480176    ;  uncertainty r = 0.000039, k = 2.801926
         3        37     1        0.109818   309244.843652    ;  uncertainty r = 0.000020, k = 0.854845
         3        38     1        0.109818   309244.843652    ;  uncertainty r = 0.000020, k = 0.854845
         4        10     1        0.153800   204926.313672    ;  uncertainty r = 0.000079, k = 2.875810
         4        39     1        0.109644   310935.400293    ;  uncertainty r = 0.000023, k = 1.135255
         4        40     1        0.109644   310935.400293    ;  uncertainty r = 0.000023, k = 1.135255
         5         8     1        0.138793   356252.635254    ;  uncertainty r = 0.000032, k = 2.387330
         5        13     1        0.139538   376587.248096    ;  uncertainty r = 0.000027, k = 1.505341
         5        30     1        0.108762   336158.811816    ;  uncertainty r = 0.000014, k = 1.313220
         7        18     1        0.146503   257020.024902    ;  uncertainty r = 0.000082, k = 22.735486
         7        24     1        0.123258   653165.506641    ;  uncertainty r = 0.000088, k = 12.275836
         7        25     1        0.140996   234604.673926    ;  uncertainty r = 0.000190, k = 47.108476
         8        19     1        0.139177   358661.627393    ;  uncertainty r = 0.000045, k = 3.873558
         8        21     1        0.135187   338028.638965    ;  uncertainty r = 0.000039, k = 2.410148
         9        23     1        0.136645   531258.701172    ;  uncertainty r = 0.000130, k = 16.870211
         9        26     1        0.135678   614123.250195    ;  uncertainty r = 0.000161, k = 23.470429
         9        27     1        0.138336   585582.108496    ;  uncertainty r = 0.000160, k = 23.152169
        10        27     1        0.145807   240009.066846    ;  uncertainty r = 0.000132, k = 9.981095
        10        41     1        0.109351   304415.163379    ;  uncertainty r = 0.000015, k = 2.578074
        11        12     1        0.142625   274730.520996    ;  uncertainty r = 0.000027, k = 25.477082
        11        16     1        0.142292   412217.772266    ;  uncertainty r = 0.000148, k = 17.894615
        11        17     1        0.140398   402383.865576    ;  uncertainty r = 0.000182, k = 16.455971
        12        18     1        0.135447   409330.597754    ;  uncertainty r = 0.000069, k = 14.135389
        12        31     1        0.108670   334774.368506    ;  uncertainty r = 0.000042, k = 1.864898
        13        14     1        0.139605   371605.111279    ;  uncertainty r = 0.000024, k = 1.234590
        13        46     1        0.108739   334037.903809    ;  uncertainty r = 0.000008, k = 1.252384
        14        15     1        0.139402   372046.264844    ;  uncertainty r = 0.000036, k = 1.693888
        14        28     1        0.108754   333365.511719    ;  uncertainty r = 0.000016, k = 1.409453
        15        19     1        0.139296   353083.505518    ;  uncertainty r = 0.000049, k = 4.457227
        15        29     1        0.108765   336135.445361    ;  uncertainty r = 0.000020, k = 1.216359
        16        25     1        0.137832   261538.893018    ;  uncertainty r = 0.000169, k = 8.150192
        16        26     1        0.134034   454950.702832    ;  uncertainty r = 0.000165, k = 17.344911
        17        23     1        0.133415   406678.620020    ;  uncertainty r = 0.000077, k = 10.237136
        17        32     1        0.108927   329046.139502    ;  uncertainty r = 0.000030, k = 1.909605
        18        22     1        0.136126   317771.224805    ;  uncertainty r = 0.000057, k = 7.847731
        19        22     1        0.138320   313046.221143    ;  uncertainty r = 0.000098, k = 7.156636
        20        25     1        0.146434   260871.327441    ;  uncertainty r = 0.000086, k = 13.117193
        20        42     1        0.109141   308405.898535    ;  uncertainty r = 0.000010, k = 1.505453
        20        43     1        0.109141   308405.898535    ;  uncertainty r = 0.000010, k = 1.505453
        20        44     1        0.109141   308405.898535    ;  uncertainty r = 0.000010, k = 1.505453
        27        45     1        0.102176   435698.173926    ;  uncertainty r = 0.000065, k = 4.933124

[ angles ]
;       ai        aj        ak funct           theta             cth
         1         2         6     1      111.446632      714.965579    ;  uncertainty theta = 0.001347, k = 0.063500
         1         2        35     1      109.920456      408.541080    ;  uncertainty theta = 0.002019, k = 0.035643
         1         2        36     1      109.920456      408.541080    ;  uncertainty theta = 0.002019, k = 0.035643
         1        10         4     1      108.571205      585.454959    ;  uncertainty theta = 0.002684, k = 0.080004
         1        10        27     1      110.695145      629.201113    ;  uncertainty theta = 0.003363, k = 0.060631
         1        10        41     1      108.629013      407.998416    ;  uncertainty theta = 0.002420, k = 0.060827
         2         1        10     1      109.739159      566.930979    ;  uncertainty theta = 0.002556, k = 0.101379
         2         1        33     1      108.721451      397.694448    ;  uncertainty theta = 0.000995, k = 0.058468
         2         1        34     1      108.721451      397.694448    ;  uncertainty theta = 0.000995, k = 0.058468
         2         6         3     1      109.309448      562.168308    ;  uncertainty theta = 0.002274, k = 0.150711
         3         4        10     1      109.739159      566.930979    ;  uncertainty theta = 0.002556, k = 0.101379
         3         4        39     1      108.721451      397.694448    ;  uncertainty theta = 0.000995, k = 0.058468
         3         4        40     1      108.721451      397.694448    ;  uncertainty theta = 0.000995, k = 0.058468
         4         3         6     1      111.446632      714.965579    ;  uncertainty theta = 0.001347, k = 0.063500
         4         3        37     1      109.920456      408.541080    ;  uncertainty theta = 0.002019, k = 0.035643
         4         3        38     1      109.920456      408.541080    ;  uncertainty theta = 0.002019, k = 0.035643
         4        10        27     1      110.695145      629.201113    ;  uncertainty theta = 0.003363, k = 0.060631
         4        10        41     1      108.629013      407.998416    ;  uncertainty theta = 0.002420, k = 0.060827
         5         8        19     1      122.826279      352.772119    ;  uncertainty theta = 0.005037, k = 0.193051
         5         8        21     1      119.652855      525.394711    ;  uncertainty theta = 0.000916, k = 0.095762
         5        13        14     1      119.136131      521.876623    ;  uncertainty theta = 0.002508, k = 0.022233
         5        13        46     1      119.931839      285.149725    ;  uncertainty theta = 0.001192, k = 0.033362
         6         2        35     1      107.077614      463.773059    ;  uncertainty theta = 0.001757, k = 0.022995
         6         2        36     1      107.077614      463.773059    ;  uncertainty theta = 0.001757, k = 0.022995
         6         3        37     1      107.077614      463.773059    ;  uncertainty theta = 0.001757, k = 0.022995
         6         3        38     1      107.077614      463.773059    ;  uncertainty theta = 0.001757, k = 0.022995
         7        18        12     1      124.683006      439.719752    ;  uncertainty theta = 0.007537, k = 0.191394
         7        18        22     1      108.742836      385.835270    ;  uncertainty theta = 0.008747, k = 0.134414
         7        25        16     1      122.139503      482.866453    ;  uncertainty theta = 0.009667, k = 0.113170
         7        25        20     1      115.396751      421.229959    ;  uncertainty theta = 0.004034, k = 0.268490
         8         5        13     1      119.049194      483.943545    ;  uncertainty theta = 0.002718, k = 0.054449
         8         5        30     1      119.388206      279.656310    ;  uncertainty theta = 0.001625, k = 0.057865
         8        19        15     1      120.665421      340.465435    ;  uncertainty theta = 0.005400, k = 0.213744
         8        19        22     1      117.729019      376.908326    ;  uncertainty theta = 0.004035, k = 0.215130
         9        23        17     1      116.430397      408.139285    ;  uncertainty theta = 0.008084, k = 0.292187
         9        26        16     1      117.361549      450.859549    ;  uncertainty theta = 0.007752, k = 0.203830
         9        27        10     1      115.769875      413.653066    ;  uncertainty theta = 0.005271, k = 0.143046
         9        27        45     1      116.919144      444.716566    ;  uncertainty theta = 0.004236, k = 0.155196
        10         1        33     1      108.113968      386.815958    ;  uncertainty theta = 0.001236, k = 0.022845
        10         1        34     1      108.113968      386.815958    ;  uncertainty theta = 0.001236, k = 0.022845
        10         4        39     1      108.113968      386.815958    ;  uncertainty theta = 0.001236, k = 0.022845
        10         4        40     1      108.113968      386.815958    ;  uncertainty theta = 0.001236, k = 0.022845
        10        27        45     1      112.314087      333.078060    ;  uncertainty theta = 0.005154, k = 0.136963
        11        12        18     1      121.327866      511.776632    ;  uncertainty theta = 0.006720, k = 0.220926
        11        12        31     1      118.339821      255.619267    ;  uncertainty theta = 0.003231, k = 0.249698
        11        16        25     1      117.681435      482.338857    ;  uncertainty theta = 0.006416, k = 0.133319
        11        16        26     1      122.717102      546.835955    ;  uncertainty theta = 0.006239, k = 0.171770
        11        17        23     1      122.582458      739.538025    ;  uncertainty theta = 0.001322, k = 0.194233
        11        17        32     1      120.227554      259.894306    ;  uncertainty theta = 0.003837, k = 0.132008
        12        11        16     1      119.944412      443.083053    ;  uncertainty theta = 0.011475, k = 0.222962
        12        11        17     1      123.590012      408.173984    ;  uncertainty theta = 0.006741, k = 0.159112
        12        18        22     1      122.452477      425.672266    ;  uncertainty theta = 0.003057, k = 0.087983
        13         5        30     1      121.876205      280.689957    ;  uncertainty theta = 0.001416, k = 0.040579
        13        14        15     1      119.416809      520.367124    ;  uncertainty theta = 0.000922, k = 0.041518
        13        14        28     1      120.665138      285.698167    ;  uncertainty theta = 0.001391, k = 0.023134
        14        13        46     1      120.639305      286.410620    ;  uncertainty theta = 0.001306, k = 0.013185
        14        15        19     1      120.020737      510.615523    ;  uncertainty theta = 0.002170, k = 0.065415
        14        15        29     1      121.280861      287.838113    ;  uncertainty theta = 0.001771, k = 0.019139
        15        14        28     1      120.022911      285.329219    ;  uncertainty theta = 0.002019, k = 0.024482
        15        19        22     1      121.374718      422.828965    ;  uncertainty theta = 0.004462, k = 0.073291
        16        11        17     1      117.308609      431.286600    ;  uncertainty theta = 0.004742, k = 0.201449
        16        25        20     1      116.105141      434.029988    ;  uncertainty theta = 0.006238, k = 0.134169
        18         7        24     1      123.418716      471.104859    ;  uncertainty theta = 0.003206, k = 0.070384
        18         7        25     1      114.431885      323.457720    ;  uncertainty theta = 0.012880, k = 0.672027
        18        12        31     1      120.568748      277.351746    ;  uncertainty theta = 0.005819, k = 0.202769
        18        22        19     1      112.514816      459.715308    ;  uncertainty theta = 0.005011, k = 0.298028
        19         8        21     1      117.381508      488.565443    ;  uncertainty theta = 0.001777, k = 0.159499
        19        15        29     1      118.720642      276.975807    ;  uncertainty theta = 0.003062, k = 0.091000
        23         9        26     1      128.682663      742.959167    ;  uncertainty theta = 0.002344, k = 0.092422
        23         9        27     1      120.633926      828.446109    ;  uncertainty theta = 0.008794, k = 0.131219
        23        17        32     1      117.368210      318.255396    ;  uncertainty theta = 0.003552, k = 0.161159
        24         7        25     1      122.241714      693.873779    ;  uncertainty theta = 0.002201, k = 0.062599
        25        16        26     1      117.253708      579.084025    ;  uncertainty theta = 0.012486, k = 0.174674
        25        20        42     1      107.941574      486.865820    ;  uncertainty theta = 0.001912, k = 0.065460
        25        20        43     1      107.941574      486.865820    ;  uncertainty theta = 0.001912, k = 0.065460
        25        20        44     1      107.941574      486.865820    ;  uncertainty theta = 0.001912, k = 0.065460
        26         9        27     1      121.206215      911.423903    ;  uncertainty theta = 0.007564, k = 0.092378
        27        10        41     1      103.516525      447.268585    ;  uncertainty theta = 0.003472, k = 0.117225
        33         1        34     1      105.438766      311.403087    ;  uncertainty theta = 0.002031, k = 0.016795
        35         2        36     1      106.555054      320.242949    ;  uncertainty theta = 0.001313, k = 0.032691
        37         3        38     1      106.555054      320.242949    ;  uncertainty theta = 0.001313, k = 0.032691
        39         4        40     1      105.438766      311.403087    ;  uncertainty theta = 0.002031, k = 0.016795
        42        20        43     1      107.444313      326.050726    ;  uncertainty theta = 0.002153, k = 0.056618
        42        20        44     1      107.444313      326.050726    ;  uncertainty theta = 0.002153, k = 0.056618
        43        20        44     1      107.444313      326.050726    ;  uncertainty theta = 0.002153, k = 0.056617

[ dihedrals ] ; propers for gromacs 4.5 or higher, use funct 9
;       ai        aj        ak        al funct           phase               k        pn
         1         2         6         3     9        0.000000       -3.090920         1    ;  uncertainty k = 1.764724
         1         2         6         3     9      180.000000        0.099646         2    ;  uncertainty k = 1.147879
         1         2         6         3     9        0.000000        0.937069         3    ;  uncertainty k = 0.257053
         1         2         6         3     9      180.000000       -0.348700         4    ;  uncertainty k = 0.188482
         1        10         4         3     9        0.000000       -7.182169         1    ;  uncertainty k = 1.160296
         1        10         4         3     9      180.000000        0.651721         2    ;  uncertainty k = 0.689258
         1        10         4         3     9        0.000000        1.337200         3    ;  uncertainty k = 0.165866
         1        10         4         3     9      180.000000       -1.433186         4    ;  uncertainty k = 0.219126
         1        10         4        39     9        0.000000       -1.858871         1    ;  uncertainty k = 0.333669
         1        10         4        39     9      180.000000       -0.004379         2    ;  uncertainty k = 0.147655
         1        10         4        39     9        0.000000        0.298804         3    ;  uncertainty k = 0.155785
         1        10         4        39     9      180.000000       -0.141300         4    ;  uncertainty k = 0.079428
         1        10         4        40     9        0.000000       -1.858871         1    ;  uncertainty k = 0.333669
         1        10         4        40     9      180.000000       -0.004379         2    ;  uncertainty k = 0.147655
         1        10         4        40     9        0.000000        0.298804         3    ;  uncertainty k = 0.155785
         1        10         4        40     9      180.000000       -0.141300         4    ;  uncertainty k = 0.079428
         1        10        27         9     9        0.000000       -2.505166         1    ;  uncertainty k = 0.386991
         1        10        27         9     9      180.000000        0.497922         2    ;  uncertainty k = 0.198475
         1        10        27         9     9        0.000000        0.367323         3    ;  uncertainty k = 0.126648
         1        10        27         9     9      180.000000        0.361622         4    ;  uncertainty k = 0.081112
         1        10        27        45     9        0.000000        2.787690         1    ;  uncertainty k = 0.893880
         1        10        27        45     9      180.000000       -0.663636         2    ;  uncertainty k = 0.236091
         1        10        27        45     9        0.000000        0.218247         3    ;  uncertainty k = 0.119918
         1        10        27        45     9      180.000000        0.123444         4    ;  uncertainty k = 0.073281
         2         1        10         4     9        0.000000       -7.182169         1    ;  uncertainty k = 1.160296
         2         1        10         4     9      180.000000        0.651721         2    ;  uncertainty k = 0.689258
         2         1        10         4     9        0.000000        1.337200         3    ;  uncertainty k = 0.165866
         2         1        10         4     9      180.000000       -1.433186         4    ;  uncertainty k = 0.219126
         2         1        10        27     9        0.000000       -4.805352         1    ;  uncertainty k = 0.699431
         2         1        10        27     9      180.000000       -0.187719         2    ;  uncertainty k = 0.333371
         2         1        10        27     9        0.000000        1.016385         3    ;  uncertainty k = 0.162984
         2         1        10        27     9      180.000000       -0.078100         4    ;  uncertainty k = 0.195994
         2         1        10        41     9        0.000000       -1.687319         1    ;  uncertainty k = 0.555497
         2         1        10        41     9      180.000000       -0.643722         2    ;  uncertainty k = 0.388884
         2         1        10        41     9        0.000000        0.030461         3    ;  uncertainty k = 0.099395
         2         1        10        41     9      180.000000       -0.147535         4    ;  uncertainty k = 0.108264
         2         6         3         4     9        0.000000       -3.090920         1    ;  uncertainty k = 1.764724
         2         6         3         4     9      180.000000        0.099646         2    ;  uncertainty k = 1.147879
         2         6         3         4     9        0.000000        0.937069         3    ;  uncertainty k = 0.257053
         2         6         3         4     9      180.000000       -0.348700         4    ;  uncertainty k = 0.188482
         2         6         3        37     9        0.000000       -5.435409         1    ;  uncertainty k = 1.705293
         2         6         3        37     9      180.000000        0.309318         2    ;  uncertainty k = 0.194050
         2         6         3        37     9        0.000000        0.745836         3    ;  uncertainty k = 0.129776
         2         6         3        37     9      180.000000       -0.529315         4    ;  uncertainty k = 0.148432
         2         6         3        38     9        0.000000       -5.435409         1    ;  uncertainty k = 1.705293
         2         6         3        38     9      180.000000        0.309318         2    ;  uncertainty k = 0.194050
         2         6         3        38     9        0.000000        0.745836         3    ;  uncertainty k = 0.129776
         2         6         3        38     9      180.000000       -0.529315         4    ;  uncertainty k = 0.148432
         3         4        10        27     9        0.000000       -4.805352         1    ;  uncertainty k = 0.699431
         3         4        10        27     9      180.000000       -0.187719         2    ;  uncertainty k = 0.333371
         3         4        10        27     9        0.000000        1.016385         3    ;  uncertainty k = 0.162984
         3         4        10        27     9      180.000000       -0.078100         4    ;  uncertainty k = 0.195994
         3         4        10        41     9        0.000000       -1.687319         1    ;  uncertainty k = 0.555497
         3         4        10        41     9      180.000000       -0.643722         2    ;  uncertainty k = 0.388884
         3         4        10        41     9        0.000000        0.030461         3    ;  uncertainty k = 0.099395
         3         4        10        41     9      180.000000       -0.147535         4    ;  uncertainty k = 0.108264
         3         6         2        35     9        0.000000       -5.435409         1    ;  uncertainty k = 1.705293
         3         6         2        35     9      180.000000        0.309318         2    ;  uncertainty k = 0.194050
         3         6         2        35     9        0.000000        0.745836         3    ;  uncertainty k = 0.129776
         3         6         2        35     9      180.000000       -0.529315         4    ;  uncertainty k = 0.148432
         3         6         2        36     9        0.000000       -5.435409         1    ;  uncertainty k = 1.705293
         3         6         2        36     9      180.000000        0.309318         2    ;  uncertainty k = 0.194050
         3         6         2        36     9        0.000000        0.745836         3    ;  uncertainty k = 0.129776
         3         6         2        36     9      180.000000       -0.529315         4    ;  uncertainty k = 0.148432
         4        10         1        33     9        0.000000       -1.858871         1    ;  uncertainty k = 0.333669
         4        10         1        33     9      180.000000       -0.004379         2    ;  uncertainty k = 0.147655
         4        10         1        33     9        0.000000        0.298804         3    ;  uncertainty k = 0.155785
         4        10         1        33     9      180.000000       -0.141300         4    ;  uncertainty k = 0.079428
         4        10         1        34     9        0.000000       -1.858871         1    ;  uncertainty k = 0.333669
         4        10         1        34     9      180.000000       -0.004379         2    ;  uncertainty k = 0.147655
         4        10         1        34     9        0.000000        0.298804         3    ;  uncertainty k = 0.155785
         4        10         1        34     9      180.000000       -0.141300         4    ;  uncertainty k = 0.079428
         4        10        27         9     9        0.000000       -2.505166         1    ;  uncertainty k = 0.386991
         4        10        27         9     9      180.000000        0.497922         2    ;  uncertainty k = 0.198475
         4        10        27         9     9        0.000000        0.367323         3    ;  uncertainty k = 0.126648
         4        10        27         9     9      180.000000        0.361622         4    ;  uncertainty k = 0.081112
         4        10        27        45     9        0.000000        2.787690         1    ;  uncertainty k = 0.893880
         4        10        27        45     9      180.000000       -0.663636         2    ;  uncertainty k = 0.236091
         4        10        27        45     9        0.000000        0.218247         3    ;  uncertainty k = 0.119918
         4        10        27        45     9      180.000000        0.123444         4    ;  uncertainty k = 0.073281
         5         8        19        15     9        0.000000       -0.296230         1    ;  uncertainty k = 0.419253
         5         8        19        15     9      180.000000        5.665840         2    ;  uncertainty k = 1.097859
         5         8        19        15     9        0.000000        0.352000         3    ;  uncertainty k = 0.380618
         5         8        19        15     9      180.000000        1.280627         4    ;  uncertainty k = 0.309552
         5         8        19        22     9        0.000000        0.225659         1    ;  uncertainty k = 0.223846
         5         8        19        22     9      180.000000        7.938099         2    ;  uncertainty k = 0.404745
         5         8        19        22     9        0.000000        1.350608         3    ;  uncertainty k = 0.198639
         5         8        19        22     9      180.000000        1.715219         4    ;  uncertainty k = 0.092534
         5        13        14        15     9        0.000000       -0.085425         1    ;  uncertainty k = 0.171002
         5        13        14        15     9      180.000000       15.498068         2    ;  uncertainty k = 0.367786
         5        13        14        15     9        0.000000       -1.267078         3    ;  uncertainty k = 0.527105
         5        13        14        15     9      180.000000        0.499540         4    ;  uncertainty k = 0.251644
         5        13        14        28     9        0.000000        0.058483         1    ;  uncertainty k = 0.103234
         5        13        14        28     9      180.000000        7.688109         2    ;  uncertainty k = 0.322215
         5        13        14        28     9        0.000000        1.460478         3    ;  uncertainty k = 0.306875
         5        13        14        28     9      180.000000        1.782641         4    ;  uncertainty k = 0.163730
         6         2         1        10     9        0.000000       -0.987581         1    ;  uncertainty k = 1.101439
         6         2         1        10     9      180.000000       -3.903899         2    ;  uncertainty k = 0.673251
         6         2         1        10     9        0.000000        1.869479         3    ;  uncertainty k = 0.389552
         6         2         1        10     9      180.000000       -0.727265         4    ;  uncertainty k = 0.139798
         6         2         1        33     9        0.000000       -1.784485         1    ;  uncertainty k = 0.521415
         6         2         1        33     9      180.000000       -0.100756         2    ;  uncertainty k = 0.269946
         6         2         1        33     9        0.000000        1.457848         3    ;  uncertainty k = 0.236776
         6         2         1        33     9      180.000000       -0.196225         4    ;  uncertainty k = 0.165688
         6         2         1        34     9        0.000000       -1.784485         1    ;  uncertainty k = 0.521415
         6         2         1        34     9      180.000000       -0.100756         2    ;  uncertainty k = 0.269946
         6         2         1        34     9        0.000000        1.457848         3    ;  uncertainty k = 0.236776
         6         2         1        34     9      180.000000       -0.196225         4    ;  uncertainty k = 0.165688
         6         3         4        10     9        0.000000       -0.987581         1    ;  uncertainty k = 1.101439
         6         3         4        10     9      180.000000       -3.903899         2    ;  uncertainty k = 0.673251
         6         3         4        10     9        0.000000        1.869479         3    ;  uncertainty k = 0.389552
         6         3         4        10     9      180.000000       -0.727265         4    ;  uncertainty k = 0.139798
         6         3         4        39     9        0.000000       -1.784485         1    ;  uncertainty k = 0.521415
         6         3         4        39     9      180.000000       -0.100756         2    ;  uncertainty k = 0.269946
         6         3         4        39     9        0.000000        1.457848         3    ;  uncertainty k = 0.236776
         6         3         4        39     9      180.000000       -0.196225         4    ;  uncertainty k = 0.165688
         6         3         4        40     9        0.000000       -1.784485         1    ;  uncertainty k = 0.521415
         6         3         4        40     9      180.000000       -0.100756         2    ;  uncertainty k = 0.269946
         6         3         4        40     9        0.000000        1.457848         3    ;  uncertainty k = 0.236776
         6         3         4        40     9      180.000000       -0.196225         4    ;  uncertainty k = 0.165688
         7        18        12        11     9        0.000000        0.274724         1    ;  uncertainty k = 0.612444
         7        18        12        11     9      180.000000       13.265961         2    ;  uncertainty k = 0.390905
         7        18        12        11     9        0.000000        1.583088         3    ;  uncertainty k = 0.153381
         7        18        12        11     9      180.000000        1.156601         4    ;  uncertainty k = 0.264712
         7        18        12        31     9        0.000000        0.232027         1    ;  uncertainty k = 0.722469
         7        18        12        31     9      180.000000       10.868764         2    ;  uncertainty k = 0.621677
         7        18        12        31     9        0.000000        1.612121         3    ;  uncertainty k = 0.474367
         7        18        12        31     9      180.000000        1.226062         4    ;  uncertainty k = 0.063655
         7        18        22        19     9        0.000000        2.838681         1    ;  uncertainty k = 2.162697
         7        18        22        19     9      180.000000        3.019893         2    ;  uncertainty k = 0.419210
         7        18        22        19     9        0.000000        1.802043         3    ;  uncertainty k = 0.313688
         7        18        22        19     9      180.000000        0.192906         4    ;  uncertainty k = 0.191160
         7        25        16        11     9        0.000000        0.333348         1    ;  uncertainty k = 1.954271
         7        25        16        11     9      180.000000        4.783190         2    ;  uncertainty k = 0.771541
         7        25        16        11     9        0.000000        0.302506         3    ;  uncertainty k = 0.500519
         7        25        16        11     9      180.000000        0.065337         4    ;  uncertainty k = 0.080312
         7        25        16        26     9        0.000000       -0.186389         1    ;  uncertainty k = 1.484040
         7        25        16        26     9      180.000000        7.598971         2    ;  uncertainty k = 0.214150
         7        25        16        26     9        0.000000        0.847345         3    ;  uncertainty k = 0.579848
         7        25        16        26     9      180.000000       -0.217448         4    ;  uncertainty k = 0.164841
         7        25        20        42     9        0.000000       -0.140291         1    ;  uncertainty k = 0.225853
         7        25        20        42     9      180.000000        0.717668         2    ;  uncertainty k = 0.271079
         7        25        20        42     9        0.000000        0.702955         3    ;  uncertainty k = 0.095742
         7        25        20        42     9      180.000000        0.500419         4    ;  uncertainty k = 0.086324
         7        25        20        43     9        0.000000       -0.140291         1    ;  uncertainty k = 0.225853
         7        25        20        43     9      180.000000        0.717668         2    ;  uncertainty k = 0.271079
         7        25        20        43     9        0.000000        0.702955         3    ;  uncertainty k = 0.095742
         7        25        20        43     9      180.000000        0.500419         4    ;  uncertainty k = 0.086324
         7        25        20        44     9        0.000000       -0.140291         1    ;  uncertainty k = 0.225853
         7        25        20        44     9      180.000000        0.717668         2    ;  uncertainty k = 0.271079
         7        25        20        44     9        0.000000        0.702955         3    ;  uncertainty k = 0.095742
         7        25        20        44     9      180.000000        0.500419         4    ;  uncertainty k = 0.086324
         8         5        13        14     9        0.000000       -0.101299         1    ;  uncertainty k = 0.068066
         8         5        13        14     9      180.000000       14.434123         2    ;  uncertainty k = 0.297861
         8         5        13        14     9        0.000000       -1.086856         3    ;  uncertainty k = 0.511299
         8         5        13        14     9      180.000000        0.719246         4    ;  uncertainty k = 0.198878
         8         5        13        46     9        0.000000        0.062163         1    ;  uncertainty k = 0.153144
         8         5        13        46     9      180.000000        7.434805         2    ;  uncertainty k = 0.489416
         8         5        13        46     9        0.000000        1.416111         3    ;  uncertainty k = 0.277961
         8         5        13        46     9      180.000000        1.750459         4    ;  uncertainty k = 0.165728
         8        19        15        14     9        0.000000       -0.008820         1    ;  uncertainty k = 0.041900
         8        19        15        14     9      180.000000        9.182887         2    ;  uncertainty k = 0.419607
         8        19        15        14     9        0.000000        0.196771         3    ;  uncertainty k = 0.391896
         8        19        15        14     9      180.000000        1.293804         4    ;  uncertainty k = 0.359929
         8        19        15        29     9        0.000000        0.179508         1    ;  uncertainty k = 0.229591
         8        19        15        29     9      180.000000        6.166024         2    ;  uncertainty k = 0.718652
         8        19        15        29     9        0.000000        1.349534         3    ;  uncertainty k = 0.424645
         8        19        15        29     9      180.000000        1.603822         4    ;  uncertainty k = 0.140390
         8        19        22        18     9        0.000000        3.740484         1    ;  uncertainty k = 0.709072
         8        19        22        18     9      180.000000        3.241421         2    ;  uncertainty k = 0.332987
         8        19        22        18     9        0.000000        0.850594         3    ;  uncertainty k = 0.216714
         8        19        22        18     9      180.000000        0.060161         4    ;  uncertainty k = 0.172800
         9        23        17        11     9        0.000000       -0.104525         1    ;  uncertainty k = 0.767322
         9        23        17        11     9      180.000000       17.183536         2    ;  uncertainty k = 0.578997
         9        23        17        11     9        0.000000       -0.518418         3    ;  uncertainty k = 0.684749
         9        23        17        11     9      180.000000        1.636817         4    ;  uncertainty k = 0.610911
         9        23        17        32     9        0.000000        0.074307         1    ;  uncertainty k = 0.978394
         9        23        17        32     9      180.000000       17.919795         2    ;  uncertainty k = 0.668021
         9        23        17        32     9        0.000000        1.366389         3    ;  uncertainty k = 0.782182
         9        23        17        32     9      180.000000        1.132681         4    ;  uncertainty k = 0.479665
         9        26        16        11     9        0.000000        0.249813         1    ;  uncertainty k = 0.806620
         9        26        16        11     9      180.000000       12.639597         2    ;  uncertainty k = 0.670233
         9        26        16        11     9        0.000000        0.173407         3    ;  uncertainty k = 0.846506
         9        26        16        11     9      180.000000        0.944984         4    ;  uncertainty k = 0.425567
         9        26        16        25     9        0.000000        0.494014         1    ;  uncertainty k = 0.776412
         9        26        16        25     9      180.000000       16.014109         2    ;  uncertainty k = 1.041178
         9        26        16        25     9        0.000000        1.715046         3    ;  uncertainty k = 0.318991
         9        26        16        25     9      180.000000        1.130754         4    ;  uncertainty k = 0.421626
         9        27        10        41     9        0.000000       -0.140403         1    ;  uncertainty k = 0.458985
         9        27        10        41     9      180.000000       -0.299246         2    ;  uncertainty k = 0.132432
         9        27        10        41     9        0.000000        0.051472         3    ;  uncertainty k = 0.152476
         9        27        10        41     9      180.000000        0.288509         4    ;  uncertainty k = 0.067555
        10         1         2        35     9        0.000000        3.577618         1    ;  uncertainty k = 1.073611
        10         1         2        35     9      180.000000       -2.876486         2    ;  uncertainty k = 0.518010
        10         1         2        35     9        0.000000       -0.152945         3    ;  uncertainty k = 0.197941
        10         1         2        35     9      180.000000        0.397574         4    ;  uncertainty k = 0.144225
        10         1         2        36     9        0.000000        3.577618         1    ;  uncertainty k = 1.073611
        10         1         2        36     9      180.000000       -2.876486         2    ;  uncertainty k = 0.518010
        10         1         2        36     9        0.000000       -0.152945         3    ;  uncertainty k = 0.197941
        10         1         2        36     9      180.000000        0.397574         4    ;  uncertainty k = 0.144225
        10         4         3        37     9        0.000000        3.577618         1    ;  uncertainty k = 1.073611
        10         4         3        37     9      180.000000       -2.876486         2    ;  uncertainty k = 0.518010
        10         4         3        37     9        0.000000       -0.152945         3    ;  uncertainty k = 0.197941
        10         4         3        37     9      180.000000        0.397574         4    ;  uncertainty k = 0.144225
        10         4         3        38     9        0.000000        3.577618         1    ;  uncertainty k = 1.073611
        10         4         3        38     9      180.000000       -2.876486         2    ;  uncertainty k = 0.518010
        10         4         3        38     9        0.000000       -0.152945         3    ;  uncertainty k = 0.197941
        10         4         3        38     9      180.000000        0.397574         4    ;  uncertainty k = 0.144225
        10        27         9        23     9        0.000000        9.093944         1    ;  uncertainty k = 0.673525
        10        27         9        23     9      180.000000       11.328686         2    ;  uncertainty k = 0.246478
        10        27         9        23     9        0.000000        1.388656         3    ;  uncertainty k = 0.179739
        10        27         9        23     9      180.000000       -0.343204         4    ;  uncertainty k = 0.041612
        10        27         9        26     9        0.000000        9.938973         1    ;  uncertainty k = 0.713391
        10        27         9        26     9      180.000000       11.380040         2    ;  uncertainty k = 0.182529
        10        27         9        26     9        0.000000        1.267523         3    ;  uncertainty k = 0.207303
        10        27         9        26     9      180.000000       -0.373690         4    ;  uncertainty k = 0.056739
        11        12        18        22     9        0.000000        0.193042         1    ;  uncertainty k = 0.324392
        11        12        18        22     9      180.000000       21.054666         2    ;  uncertainty k = 0.625248
        11        12        18        22     9        0.000000        2.056947         3    ;  uncertainty k = 0.278840
        11        12        18        22     9      180.000000        0.671228         4    ;  uncertainty k = 0.565746
        11        16        25        20     9        0.000000        2.967921         1    ;  uncertainty k = 2.014747
        11        16        25        20     9      180.000000        9.109406         2    ;  uncertainty k = 0.521199
        11        16        25        20     9        0.000000        1.035250         3    ;  uncertainty k = 0.677163
        11        16        25        20     9      180.000000        0.106497         4    ;  uncertainty k = 0.313308
        12        11        16        25     9        0.000000       -0.062020         1    ;  uncertainty k = 0.339295
        12        11        16        25     9      180.000000        8.053652         2    ;  uncertainty k = 0.663531
        12        11        16        25     9        0.000000        0.285032         3    ;  uncertainty k = 0.537184
        12        11        16        25     9      180.000000        1.053518         4    ;  uncertainty k = 0.278439
        12        11        16        26     9        0.000000        0.157401         1    ;  uncertainty k = 0.957190
        12        11        16        26     9      180.000000        8.049863         2    ;  uncertainty k = 1.519812
        12        11        16        26     9        0.000000       -0.008364         3    ;  uncertainty k = 0.302824
        12        11        16        26     9      180.000000        1.287214         4    ;  uncertainty k = 0.556756
        12        11        17        23     9        0.000000        0.183285         1    ;  uncertainty k = 0.441327
        12        11        17        23     9      180.000000       10.754244         2    ;  uncertainty k = 0.627013
        12        11        17        23     9        0.000000        0.289908         3    ;  uncertainty k = 0.244961
        12        11        17        23     9      180.000000        1.233915         4    ;  uncertainty k = 0.374879
        12        11        17        32     9        0.000000       -0.445723         1    ;  uncertainty k = 0.532686
        12        11        17        32     9      180.000000        5.920296         2    ;  uncertainty k = 0.574460
        12        11        17        32     9        0.000000        0.826478         3    ;  uncertainty k = 0.279057
        12        11        17        32     9      180.000000        0.699414         4    ;  uncertainty k = 0.169023
        12        18         7        24     9        0.000000       -2.736884         1    ;  uncertainty k = 0.984088
        12        18         7        24     9      180.000000        2.829386         2    ;  uncertainty k = 0.722306
        12        18         7        24     9        0.000000       -0.148850         3    ;  uncertainty k = 0.456669
        12        18         7        24     9      180.000000       -0.018089         4    ;  uncertainty k = 0.178562
        12        18         7        25     9        0.000000        1.847981         1    ;  uncertainty k = 1.695058
        12        18         7        25     9      180.000000        0.676018         2    ;  uncertainty k = 0.840436
        12        18         7        25     9        0.000000        0.412450         3    ;  uncertainty k = 0.335419
        12        18         7        25     9      180.000000        0.361110         4    ;  uncertainty k = 0.179552
        12        18        22        19     9        0.000000        6.106307         1    ;  uncertainty k = 1.078163
        12        18        22        19     9      180.000000        6.398440         2    ;  uncertainty k = 0.153142
        12        18        22        19     9        0.000000       -0.850599         3    ;  uncertainty k = 0.341656
        12        18        22        19     9      180.000000        0.116416         4    ;  uncertainty k = 0.104243
        13         5         8        19     9        0.000000       -0.016486         1    ;  uncertainty k = 0.165271
        13         5         8        19     9      180.000000        8.955962         2    ;  uncertainty k = 0.384899
        13         5         8        19     9        0.000000        0.208727         3    ;  uncertainty k = 0.511730
        13         5         8        19     9      180.000000        1.288339         4    ;  uncertainty k = 0.270877
        13         5         8        21     9        0.000000       -0.038164         1    ;  uncertainty k = 0.449851
        13         5         8        21     9      180.000000       12.925654         2    ;  uncertainty k = 0.537571
        13         5         8        21     9        0.000000        1.376823         3    ;  uncertainty k = 0.229735
        13         5         8        21     9      180.000000        1.525071         4    ;  uncertainty k = 0.254870
        13        14        15        19     9        0.000000       -0.229684         1    ;  uncertainty k = 0.217619
        13        14        15        19     9      180.000000       14.008394         2    ;  uncertainty k = 0.255648
        13        14        15        19     9        0.000000       -0.937042         3    ;  uncertainty k = 0.623764
        13        14        15        19     9      180.000000        0.831522         4    ;  uncertainty k = 0.258428
        13        14        15        29     9        0.000000        0.141408         1    ;  uncertainty k = 0.108278
        13        14        15        29     9      180.000000        7.602690         2    ;  uncertainty k = 0.314271
        13        14        15        29     9        0.000000        1.449628         3    ;  uncertainty k = 0.291807
        13        14        15        29     9      180.000000        1.795242         4    ;  uncertainty k = 0.105533
        14        13         5        30     9        0.000000        0.102521         1    ;  uncertainty k = 0.020244
        14        13         5        30     9      180.000000        7.418831         2    ;  uncertainty k = 0.322125
        14        13         5        30     9        0.000000        1.507126         3    ;  uncertainty k = 0.305903
        14        13         5        30     9      180.000000        1.776047         4    ;  uncertainty k = 0.177230
        14        15        19        22     9        0.000000       -0.067429         1    ;  uncertainty k = 0.286242
        14        15        19        22     9      180.000000       11.007874         2    ;  uncertainty k = 0.489620
        14        15        19        22     9        0.000000        1.374726         3    ;  uncertainty k = 0.235663
        14        15        19        22     9      180.000000        1.743755         4    ;  uncertainty k = 0.166429
        15        14        13        46     9        0.000000        0.076566         1    ;  uncertainty k = 0.191960
        15        14        13        46     9      180.000000        7.539333         2    ;  uncertainty k = 0.345982
        15        14        13        46     9        0.000000        1.485452         3    ;  uncertainty k = 0.298673
        15        14        13        46     9      180.000000        1.818149         4    ;  uncertainty k = 0.162952
        15        19         8        21     9        0.000000        0.283342         1    ;  uncertainty k = 0.282372
        15        19         8        21     9      180.000000        8.572185         2    ;  uncertainty k = 0.282331
        15        19         8        21     9        0.000000        1.395334         3    ;  uncertainty k = 0.248972
        15        19         8        21     9      180.000000        1.668878         4    ;  uncertainty k = 0.158957
        15        19        22        18     9        0.000000        4.911443         1    ;  uncertainty k = 1.150089
        15        19        22        18     9      180.000000        4.265916         2    ;  uncertainty k = 0.191237
        15        19        22        18     9        0.000000        0.388634         3    ;  uncertainty k = 0.296544
        15        19        22        18     9      180.000000        0.138364         4    ;  uncertainty k = 0.067382
        16        11        12        18     9        0.000000       -0.032948         1    ;  uncertainty k = 1.093953
        16        11        12        18     9      180.000000        6.537519         2    ;  uncertainty k = 0.960907
        16        11        12        18     9        0.000000        0.251585         3    ;  uncertainty k = 0.388222
        16        11        12        18     9      180.000000        0.546006         4    ;  uncertainty k = 0.199842
        16        11        12        31     9        0.000000        0.695748         1    ;  uncertainty k = 1.086540
        16        11        12        31     9      180.000000        6.198333         2    ;  uncertainty k = 0.660735
        16        11        12        31     9        0.000000        1.069539         3    ;  uncertainty k = 0.314021
        16        11        12        31     9      180.000000        0.198280         4    ;  uncertainty k = 0.158231
        16        11        17        23     9        0.000000        0.095609         1    ;  uncertainty k = 0.587923
        16        11        17        23     9      180.000000       12.156769         2    ;  uncertainty k = 0.408624
        16        11        17        23     9        0.000000       -1.004838         3    ;  uncertainty k = 0.831375
        16        11        17        23     9      180.000000        0.812368         4    ;  uncertainty k = 0.182022
        16        11        17        32     9        0.000000       -0.160465         1    ;  uncertainty k = 0.870413
        16        11        17        32     9      180.000000        6.533188         2    ;  uncertainty k = 0.831900
        16        11        17        32     9        0.000000        0.667354         3    ;  uncertainty k = 0.056278
        16        11        17        32     9      180.000000        0.763221         4    ;  uncertainty k = 0.217113
        16        25         7        18     9        0.000000        1.627992         1    ;  uncertainty k = 2.264392
        16        25         7        18     9      180.000000        2.550374         2    ;  uncertainty k = 0.860485
        16        25         7        18     9        0.000000        0.937888         3    ;  uncertainty k = 0.270548
        16        25         7        18     9      180.000000        0.440531         4    ;  uncertainty k = 0.214002
        16        25         7        24     9        0.000000        2.570162         1    ;  uncertainty k = 2.607662
        16        25         7        24     9      180.000000       13.805431         2    ;  uncertainty k = 0.650630
        16        25         7        24     9        0.000000        0.924378         3    ;  uncertainty k = 0.100235
        16        25         7        24     9      180.000000       -0.446747         4    ;  uncertainty k = 0.520040
        16        25        20        42     9        0.000000       -0.513999         1    ;  uncertainty k = 0.421798
        16        25        20        42     9      180.000000        1.064222         2    ;  uncertainty k = 0.170920
        16        25        20        42     9        0.000000        0.337674         3    ;  uncertainty k = 0.203924
        16        25        20        42     9      180.000000        0.463464         4    ;  uncertainty k = 0.153804
        16        25        20        43     9        0.000000       -0.513999         1    ;  uncertainty k = 0.421798
        16        25        20        43     9      180.000000        1.064222         2    ;  uncertainty k = 0.170920
        16        25        20        43     9        0.000000        0.337674         3    ;  uncertainty k = 0.203924
        16        25        20        43     9      180.000000        0.463464         4    ;  uncertainty k = 0.153804
        16        25        20        44     9        0.000000       -0.513999         1    ;  uncertainty k = 0.421798
        16        25        20        44     9      180.000000        1.064222         2    ;  uncertainty k = 0.170920
        16        25        20        44     9        0.000000        0.337674         3    ;  uncertainty k = 0.203924
        16        25        20        44     9      180.000000        0.463464         4    ;  uncertainty k = 0.153804
        16        26         9        23     9        0.000000       -0.011775         1    ;  uncertainty k = 1.524920
        16        26         9        23     9      180.000000        6.821374         2    ;  uncertainty k = 0.898889
        16        26         9        23     9        0.000000        1.249123         3    ;  uncertainty k = 0.710005
        16        26         9        23     9      180.000000        0.792185         4    ;  uncertainty k = 0.299134
        16        26         9        27     9        0.000000        0.554608         1    ;  uncertainty k = 1.703229
        16        26         9        27     9      180.000000        9.310026         2    ;  uncertainty k = 0.657413
        16        26         9        27     9        0.000000        2.011422         3    ;  uncertainty k = 0.545697
        16        26         9        27     9      180.000000        0.922009         4    ;  uncertainty k = 0.235939
        17        11        12        18     9        0.000000        0.252925         1    ;  uncertainty k = 0.491054
        17        11        12        18     9      180.000000        5.225916         2    ;  uncertainty k = 1.034018
        17        11        12        18     9        0.000000        0.973909         3    ;  uncertainty k = 0.320059
        17        11        12        18     9      180.000000        0.379724         4    ;  uncertainty k = 0.231361
        17        11        12        31     9        0.000000        0.372916         1    ;  uncertainty k = 0.911275
        17        11        12        31     9      180.000000        5.415654         2    ;  uncertainty k = 0.333992
        17        11        12        31     9        0.000000        0.942646         3    ;  uncertainty k = 0.324936
        17        11        12        31     9      180.000000        0.088208         4    ;  uncertainty k = 0.129862
        17        11        16        25     9        0.000000       -0.730412         1    ;  uncertainty k = 0.839803
        17        11        16        25     9      180.000000        6.192495         2    ;  uncertainty k = 0.797667
        17        11        16        25     9        0.000000        0.123931         3    ;  uncertainty k = 0.246373
        17        11        16        25     9      180.000000        1.034343         4    ;  uncertainty k = 0.306402
        17        11        16        26     9        0.000000       -0.114074         1    ;  uncertainty k = 0.535657
        17        11        16        26     9      180.000000        7.382431         2    ;  uncertainty k = 1.014506
        17        11        16        26     9        0.000000       -0.340092         3    ;  uncertainty k = 0.305905
        17        11        16        26     9      180.000000        1.217933         4    ;  uncertainty k = 0.581078
        17        23         9        26     9        0.000000        0.006441         1    ;  uncertainty k = 0.909214
        17        23         9        26     9      180.000000        6.529173         2    ;  uncertainty k = 1.343490
        17        23         9        26     9        0.000000        0.792547         3    ;  uncertainty k = 0.550716
        17        23         9        26     9      180.000000        0.512996         4    ;  uncertainty k = 0.212874
        17        23         9        27     9        0.000000        0.345933         1    ;  uncertainty k = 0.780095
        17        23         9        27     9      180.000000        7.807502         2    ;  uncertainty k = 0.530631
        17        23         9        27     9        0.000000        1.834583         3    ;  uncertainty k = 0.693167
        17        23         9        27     9      180.000000        0.637103         4    ;  uncertainty k = 0.276027
        18         7        25        20     9        0.000000        1.056405         1    ;  uncertainty k = 2.053216
        18         7        25        20     9      180.000000        7.294410         2    ;  uncertainty k = 0.749750
        18         7        25        20     9        0.000000        1.508815         3    ;  uncertainty k = 0.227703
        18         7        25        20     9      180.000000       -0.038609         4    ;  uncertainty k = 0.195181
        19         8         5        30     9        0.000000       -0.018936         1    ;  uncertainty k = 0.195266
        19         8         5        30     9      180.000000        5.723315         2    ;  uncertainty k = 0.829711
        19         8         5        30     9        0.000000        1.257210         3    ;  uncertainty k = 0.322780
        19         8         5        30     9      180.000000        1.490364         4    ;  uncertainty k = 0.173168
        19        15        14        28     9        0.000000        0.034945         1    ;  uncertainty k = 0.156412
        19        15        14        28     9      180.000000        7.621052         2    ;  uncertainty k = 0.339207
        19        15        14        28     9        0.000000        1.350177         3    ;  uncertainty k = 0.198297
        19        15        14        28     9      180.000000        1.741713         4    ;  uncertainty k = 0.144886
        20        25         7        24     9        0.000000        0.943198         1    ;  uncertainty k = 0.953020
        20        25         7        24     9      180.000000       13.405514         2    ;  uncertainty k = 0.210551
        20        25         7        24     9        0.000000        0.437924         3    ;  uncertainty k = 0.356109
        20        25         7        24     9      180.000000       -0.037170         4    ;  uncertainty k = 0.148302
        20        25        16        26     9        0.000000        1.839415         1    ;  uncertainty k = 1.375652
        20        25        16        26     9      180.000000       10.595157         2    ;  uncertainty k = 0.797045
        20        25        16        26     9        0.000000        0.861485         3    ;  uncertainty k = 0.307083
        20        25        16        26     9      180.000000        0.212546         4    ;  uncertainty k = 0.455172
        21         8         5        30     9        0.000000       -0.259494         1    ;  uncertainty k = 0.270576
        21         8         5        30     9      180.000000        9.437395         2    ;  uncertainty k = 0.363165
        21         8         5        30     9        0.000000        0.822044         3    ;  uncertainty k = 0.231905
        21         8         5        30     9      180.000000        0.990619         4    ;  uncertainty k = 0.178946
        21         8        19        22     9        0.000000       -0.075591         1    ;  uncertainty k = 0.369335
        21         8        19        22     9      180.000000       12.225484         2    ;  uncertainty k = 0.201061
        21         8        19        22     9        0.000000        1.161396         3    ;  uncertainty k = 0.362069
        21         8        19        22     9      180.000000        1.273922         4    ;  uncertainty k = 0.219756
        22        18         7        24     9        0.000000       -2.044631         1    ;  uncertainty k = 1.471510
        22        18         7        24     9      180.000000        9.630819         2    ;  uncertainty k = 0.607857
        22        18         7        24     9        0.000000        0.236984         3    ;  uncertainty k = 0.528742
        22        18         7        24     9      180.000000       -0.331931         4    ;  uncertainty k = 0.518325
        22        18         7        25     9        0.000000        1.503141         1    ;  uncertainty k = 1.118683
        22        18         7        25     9      180.000000        3.516108         2    ;  uncertainty k = 0.667937
        22        18         7        25     9        0.000000        0.738546         3    ;  uncertainty k = 0.316488
        22        18         7        25     9      180.000000        0.529978         4    ;  uncertainty k = 0.123665
        22        18        12        31     9        0.000000        0.176467         1    ;  uncertainty k = 0.770344
        22        18        12        31     9      180.000000       16.282668         2    ;  uncertainty k = 0.417244
        22        18        12        31     9        0.000000        1.907448         3    ;  uncertainty k = 0.070637
        22        18        12        31     9      180.000000        0.957052         4    ;  uncertainty k = 0.581336
        22        19        15        29     9        0.000000       -0.036920         1    ;  uncertainty k = 0.209155
        22        19        15        29     9      180.000000        8.762394         2    ;  uncertainty k = 0.228117
        22        19        15        29     9        0.000000        0.845459         3    ;  uncertainty k = 0.256139
        22        19        15        29     9      180.000000        1.191085         4    ;  uncertainty k = 0.145549
        23         9        27        45     9        0.000000       10.289713         1    ;  uncertainty k = 0.671474
        23         9        27        45     9      180.000000        9.708733         2    ;  uncertainty k = 0.263556
        23         9        27        45     9        0.000000        1.249260         3    ;  uncertainty k = 0.563999
        23         9        27        45     9      180.000000       -0.441153         4    ;  uncertainty k = 0.253050
        26         9        27        45     9        0.000000       12.329273         1    ;  uncertainty k = 0.748604
        26         9        27        45     9      180.000000       10.060159         2    ;  uncertainty k = 0.345763
        26         9        27        45     9        0.000000        1.224279         3    ;  uncertainty k = 0.555432
        26         9        27        45     9      180.000000       -0.524195         4    ;  uncertainty k = 0.158878
        27        10         1        33     9        0.000000       -0.664477         1    ;  uncertainty k = 0.439753
        27        10         1        33     9      180.000000       -0.719545         2    ;  uncertainty k = 0.206246
        27        10         1        33     9        0.000000        1.110830         3    ;  uncertainty k = 0.090613
        27        10         1        33     9      180.000000       -0.312617         4    ;  uncertainty k = 0.084156
        27        10         1        34     9        0.000000       -0.664477         1    ;  uncertainty k = 0.439753
        27        10         1        34     9      180.000000       -0.719545         2    ;  uncertainty k = 0.206246
        27        10         1        34     9        0.000000        1.110830         3    ;  uncertainty k = 0.090613
        27        10         1        34     9      180.000000       -0.312617         4    ;  uncertainty k = 0.084156
        27        10         4        39     9        0.000000       -0.664477         1    ;  uncertainty k = 0.439753
        27        10         4        39     9      180.000000       -0.719545         2    ;  uncertainty k = 0.206246
        27        10         4        39     9        0.000000        1.110830         3    ;  uncertainty k = 0.090613
        27        10         4        39     9      180.000000       -0.312617         4    ;  uncertainty k = 0.084156
        27        10         4        40     9        0.000000       -0.664477         1    ;  uncertainty k = 0.439753
        27        10         4        40     9      180.000000       -0.719545         2    ;  uncertainty k = 0.206246
        27        10         4        40     9        0.000000        1.110830         3    ;  uncertainty k = 0.090613
        27        10         4        40     9      180.000000       -0.312617         4    ;  uncertainty k = 0.084156
        28        14        13        46     9        0.000000        0.073105         1    ;  uncertainty k = 0.063638
        28        14        13        46     9      180.000000        7.456103         2    ;  uncertainty k = 0.476275
        28        14        13        46     9        0.000000       -0.368287         3    ;  uncertainty k = 0.297777
        28        14        13        46     9      180.000000        0.017456         4    ;  uncertainty k = 0.207667
        28        14        15        29     9        0.000000       -0.028126         1    ;  uncertainty k = 0.077410
        28        14        15        29     9      180.000000        7.348197         2    ;  uncertainty k = 0.364803
        28        14        15        29     9        0.000000       -0.350239         3    ;  uncertainty k = 0.268530
        28        14        15        29     9      180.000000        0.111924         4    ;  uncertainty k = 0.108842
        30         5        13        46     9        0.000000        0.042981         1    ;  uncertainty k = 0.137169
        30         5        13        46     9      180.000000        7.360182         2    ;  uncertainty k = 0.506130
        30         5        13        46     9        0.000000       -0.379209         3    ;  uncertainty k = 0.279964
        30         5        13        46     9      180.000000        0.019645         4    ;  uncertainty k = 0.180314
        33         1         2        35     9        0.000000       -0.225271         1    ;  uncertainty k = 0.371622
        33         1         2        35     9      180.000000        0.719911         2    ;  uncertainty k = 0.314571
        33         1         2        35     9        0.000000        0.112053         3    ;  uncertainty k = 0.052184
        33         1         2        35     9      180.000000       -0.321413         4    ;  uncertainty k = 0.066104
        33         1         2        36     9        0.000000       -0.225271         1    ;  uncertainty k = 0.371622
        33         1         2        36     9      180.000000        0.719911         2    ;  uncertainty k = 0.314571
        33         1         2        36     9        0.000000        0.112053         3    ;  uncertainty k = 0.052184
        33         1         2        36     9      180.000000       -0.321413         4    ;  uncertainty k = 0.066104
        33         1        10        41     9        0.000000        1.333899         1    ;  uncertainty k = 0.470364
        33         1        10        41     9      180.000000       -0.346033         2    ;  uncertainty k = 0.220492
        33         1        10        41     9        0.000000        0.040957         3    ;  uncertainty k = 0.124052
        33         1        10        41     9      180.000000        0.039296         4    ;  uncertainty k = 0.035575
        34         1         2        35     9        0.000000       -0.225271         1    ;  uncertainty k = 0.371622
        34         1         2        35     9      180.000000        0.719911         2    ;  uncertainty k = 0.314571
        34         1         2        35     9        0.000000        0.112053         3    ;  uncertainty k = 0.052184
        34         1         2        35     9      180.000000       -0.321413         4    ;  uncertainty k = 0.066104
        34         1         2        36     9        0.000000       -0.225271         1    ;  uncertainty k = 0.371622
        34         1         2        36     9      180.000000        0.719911         2    ;  uncertainty k = 0.314571
        34         1         2        36     9        0.000000        0.112053         3    ;  uncertainty k = 0.052184
        34         1         2        36     9      180.000000       -0.321413         4    ;  uncertainty k = 0.066104
        34         1        10        41     9        0.000000        1.333899         1    ;  uncertainty k = 0.470364
        34         1        10        41     9      180.000000       -0.346033         2    ;  uncertainty k = 0.220492
        34         1        10        41     9        0.000000        0.040957         3    ;  uncertainty k = 0.124052
        34         1        10        41     9      180.000000        0.039296         4    ;  uncertainty k = 0.035575
        37         3         4        39     9        0.000000       -0.225271         1    ;  uncertainty k = 0.371622
        37         3         4        39     9      180.000000        0.719911         2    ;  uncertainty k = 0.314571
        37         3         4        39     9        0.000000        0.112053         3    ;  uncertainty k = 0.052184
        37         3         4        39     9      180.000000       -0.321413         4    ;  uncertainty k = 0.066104
        37         3         4        40     9        0.000000       -0.225271         1    ;  uncertainty k = 0.371622
        37         3         4        40     9      180.000000        0.719911         2    ;  uncertainty k = 0.314571
        37         3         4        40     9        0.000000        0.112053         3    ;  uncertainty k = 0.052184
        37         3         4        40     9      180.000000       -0.321413         4    ;  uncertainty k = 0.066104
        38         3         4        39     9        0.000000       -0.225271         1    ;  uncertainty k = 0.371622
        38         3         4        39     9      180.000000        0.719911         2    ;  uncertainty k = 0.314571
        38         3         4        39     9        0.000000        0.112053         3    ;  uncertainty k = 0.052184
        38         3         4        39     9      180.000000       -0.321413         4    ;  uncertainty k = 0.066104
        38         3         4        40     9        0.000000       -0.225271         1    ;  uncertainty k = 0.371622
        38         3         4        40     9      180.000000        0.719911         2    ;  uncertainty k = 0.314571
        38         3         4        40     9        0.000000        0.112053         3    ;  uncertainty k = 0.052184
        38         3         4        40     9      180.000000       -0.321413         4    ;  uncertainty k = 0.066104
        39         4        10        41     9        0.000000        1.333899         1    ;  uncertainty k = 0.470364
        39         4        10        41     9      180.000000       -0.346033         2    ;  uncertainty k = 0.220492
        39         4        10        41     9        0.000000        0.040957         3    ;  uncertainty k = 0.124052
        39         4        10        41     9      180.000000        0.039296         4    ;  uncertainty k = 0.035575
        40         4        10        41     9        0.000000        1.333899         1    ;  uncertainty k = 0.470364
        40         4        10        41     9      180.000000       -0.346033         2    ;  uncertainty k = 0.220492
        40         4        10        41     9        0.000000        0.040957         3    ;  uncertainty k = 0.124052
        40         4        10        41     9      180.000000        0.039296         4    ;  uncertainty k = 0.035575
        41        10        27        45     9        0.000000        0.976343         1    ;  uncertainty k = 0.742026
        41        10        27        45     9      180.000000       -1.754256         2    ;  uncertainty k = 0.294904
        41        10        27        45     9        0.000000       -0.016582         3    ;  uncertainty k = 0.098589
        41        10        27        45     9      180.000000        0.124158         4    ;  uncertainty k = 0.074181

[ dihedrals ] ; impropers
;       ai        aj        ak        al funct           phase               k        pn
         5         8        13        30     4      180.000000        2.162949         2    ;  uncertainty k = 0.171829
         5        13        30         8     4      180.000000        2.162949         2    ;  uncertainty k = 0.171829
         5        30         8        13     4      180.000000        2.162949         2    ;  uncertainty k = 0.171829
         7        18        24        25     4      180.000000       48.355208         2    ;  uncertainty k = 0.046756
         7        24        25        18     4      180.000000       48.355208         2    ;  uncertainty k = 0.046756
         7        25        18        24     4      180.000000       48.355208         2    ;  uncertainty k = 0.046756
         8         5        19        21     4      180.000000       13.156989         2    ;  uncertainty k = 0.049087
         8        19        21         5     4      180.000000       13.156989         2    ;  uncertainty k = 0.049087
         8        21         5        19     4      180.000000       13.156989         2    ;  uncertainty k = 0.049087
         9        23        26        27     4      180.000000       45.856594         2    ;  uncertainty k = 0.099452
         9        26        27        23     4      180.000000       45.856594         2    ;  uncertainty k = 0.099452
         9        27        23        26     4      180.000000       45.856594         2    ;  uncertainty k = 0.099452
        11        12        16        17     4      180.000000        3.588200         2    ;  uncertainty k = 0.560293
        11        16        17        12     4      180.000000        3.588200         2    ;  uncertainty k = 0.560293
        11        17        12        16     4      180.000000        3.588200         2    ;  uncertainty k = 0.560293
        12        11        18        31     4      180.000000        7.429066         2    ;  uncertainty k = 0.367060
        12        18        31        11     4      180.000000        7.429066         2    ;  uncertainty k = 0.367060
        12        31        11        18     4      180.000000        7.429066         2    ;  uncertainty k = 0.367060
        13         5        14        46     4      180.000000        4.314295         2    ;  uncertainty k = 0.148197
        13        14        46         5     4      180.000000        4.314295         2    ;  uncertainty k = 0.148197
        13        46         5        14     4      180.000000        4.314295         2    ;  uncertainty k = 0.148197
        14        13        15        28     4      180.000000        3.943203         2    ;  uncertainty k = 0.171769
        14        15        28        13     4      180.000000        3.943203         2    ;  uncertainty k = 0.171769
        14        28        13        15     4      180.000000        3.943203         2    ;  uncertainty k = 0.171769
        15        14        19        29     4      180.000000        2.958876         2    ;  uncertainty k = 0.142826
        15        19        29        14     4      180.000000        2.958876         2    ;  uncertainty k = 0.142826
        15        29        14        19     4      180.000000        2.958876         2    ;  uncertainty k = 0.142826
        16        11        25        26     4      180.000000       30.939003         2    ;  uncertainty k = 0.078078
        16        25        26        11     4      180.000000       30.939003         2    ;  uncertainty k = 0.078078
        16        26        11        25     4      180.000000       30.939003         2    ;  uncertainty k = 0.078078
        17        11        23        32     4      180.000000       16.808059         2    ;  uncertainty k = 0.060652
        17        23        32        11     4      180.000000       16.808059         2    ;  uncertainty k = 0.060652
        17        32        11        23     4      180.000000       16.808059         2    ;  uncertainty k = 0.060652
        18         7        12        22     4      180.000000       13.109837         2    ;  uncertainty k = 0.278814
        18        12        22         7     4      180.000000       13.109837         2    ;  uncertainty k = 0.278814
        18        22         7        12     4      180.000000       13.109837         2    ;  uncertainty k = 0.278814
        19         8        15        22     4      180.000000       12.905661         2    ;  uncertainty k = 0.160302
        19        15        22         8     4      180.000000       12.905661         2    ;  uncertainty k = 0.160302
        19        22         8        15     4      180.000000       12.905661         2    ;  uncertainty k = 0.160302
        25         7        16        20     4      180.000000        3.524429         2    ;  uncertainty k = 0.779434
        25        16        20         7     4      180.000000        3.524429         2    ;  uncertainty k = 0.779434
        25        20         7        16     4      180.000000        3.524429         2    ;  uncertainty k = 0.779434
        27         9        10        45     4      180.000000        0.693580         2    ;  uncertainty k = 0.786577
        27        10        45         9     4      180.000000        0.693580         2    ;  uncertainty k = 0.786577
        27        45         9        10     4      180.000000        0.693580         2    ;  uncertainty k = 0.786577

[ pairs ]
;       ai        aj funct
         1         3     1
         1         9     1
         1        39     1
         1        40     1
         1        45     1
         2         4     1
         2        27     1
         2        37     1
         2        38     1
         2        41     1
         3        27     1
         3        35     1
         3        36     1
         3        41     1
         4         9     1
         4        33     1
         4        34     1
         4        45     1
         5        15     1
         5        22     1
         5        28     1
         6        10     1
         6        33     1
         6        34     1
         6        39     1
         6        40     1
         7        11     1
         7        19     1
         7        26     1
         7        31     1
         7        42     1
         7        43     1
         7        44     1
         8        14     1
         8        18     1
         8        29     1
         8        46     1
         9        11     1
         9        25     1
         9        32     1
         9        41     1
        10        23     1
        10        26     1
        10        35     1
        10        36     1
        10        37     1
        10        38     1
        11        20     1
        11        22     1
        12        19     1
        12        23     1
        12        24     1
        12        25     1
        12        26     1
        12        32     1
        13        19     1
        13        21     1
        13        29     1
        14        22     1
        14        30     1
        15        18     1
        15        21     1
        15        46     1
        16        18     1
        16        23     1
        16        24     1
        16        27     1
        16        31     1
        16        32     1
        16        42     1
        16        43     1
        16        44     1
        17        18     1
        17        25     1
        17        26     1
        17        27     1
        17        31     1
        18        20     1
        19        28     1
        19        30     1
        20        24     1
        20        26     1
        21        22     1
        21        30     1
        22        24     1
        22        25     1
        22        29     1
        22        31     1
        23        45     1
        26        45     1
        27        33     1
        27        34     1
        27        39     1
        27        40     1
        28        29     1
        28        46     1
        30        46     1
        33        35     1
        33        36     1
        33        41     1
        34        35     1
        34        36     1
        34        41     1
        37        39     1
        37        40     1
        38        39     1
        38        40     1
        39        41     1
        40        41     1
        41        45     1
