; ITP file created by ByteFF-joint-25, 2026-02-17 09:23:29.898286

[ atomtypes ]
;name           bonded.type        at.num        mass        charge   ptype           sigma         epsilon
 c0bf                                   6      0.0000       0.00000       A     3.39750e-01     4.50695e-01    ;  uncertainty sigma = 0.000006, epsilon = 0.000646
 c1bf                                   6      0.0000       0.00000       A     3.39783e-01     4.51127e-01    ;  uncertainty sigma = 0.000009, epsilon = 0.001353
 c2bf                                   6      0.0000       0.00000       A     3.39783e-01     4.51127e-01    ;  uncertainty sigma = 0.000009, epsilon = 0.001353
 c3bf                                   6      0.0000       0.00000       A     3.39750e-01     4.50695e-01    ;  uncertainty sigma = 0.000006, epsilon = 0.000646
 c4bf                                   6      0.0000       0.00000       A     3.31526e-01     4.13477e-01    ;  uncertainty sigma = 0.000006, epsilon = 0.000754
 c5bf                                   6      0.0000       0.00000       A     3.31559e-01     4.13635e-01    ;  uncertainty sigma = 0.000021, epsilon = 0.001225
 c6bf                                   6      0.0000       0.00000       A     3.31525e-01     4.12996e-01    ;  uncertainty sigma = 0.000006, epsilon = 0.000558
 c7bf                                   6      0.0000       0.00000       A     3.31531e-01     4.13819e-01    ;  uncertainty sigma = 0.000011, epsilon = 0.000840
 c8bf                                   6      0.0000       0.00000       A     3.39761e-01     4.50815e-01    ;  uncertainty sigma = 0.000023, epsilon = 0.000728
 c9bf                                   6      0.0000       0.00000       A     3.31556e-01     4.13424e-01    ;  uncertainty sigma = 0.000018, epsilon = 0.000830
 c10bf                                  6      0.0000       0.00000       A     3.31522e-01     4.12958e-01    ;  uncertainty sigma = 0.000012, epsilon = 0.001253
 c11bf                                  6      0.0000       0.00000       A     3.31521e-01     4.13309e-01    ;  uncertainty sigma = 0.000005, epsilon = 0.000623
 c12bf                                  6      0.0000       0.00000       A     3.31522e-01     4.13402e-01    ;  uncertainty sigma = 0.000004, epsilon = 0.000568
 c13bf                                  6      0.0000       0.00000       A     3.31532e-01     4.13487e-01    ;  uncertainty sigma = 0.000005, epsilon = 0.000789
 c14bf                                  6      0.0000       0.00000       A     3.31528e-01     4.12881e-01    ;  uncertainty sigma = 0.000017, epsilon = 0.001797
 c15bf                                  6      0.0000       0.00000       A     3.31541e-01     4.13611e-01    ;  uncertainty sigma = 0.000007, epsilon = 0.001414
 c16bf                                  6      0.0000       0.00000       A     3.31529e-01     4.13581e-01    ;  uncertainty sigma = 0.000019, epsilon = 0.001027
 c17bf                                  6      0.0000       0.00000       A     3.31544e-01     4.13185e-01    ;  uncertainty sigma = 0.000012, epsilon = 0.000998
 c18bf                                  6      0.0000       0.00000       A     3.39766e-01     4.51313e-01    ;  uncertainty sigma = 0.000006, epsilon = 0.000601
 f19bf                                  9      0.0000       0.00000       A     3.03401e-01     3.48403e-01    ;  uncertainty sigma = 0.000015, epsilon = 0.000906
 f20bf                                  9      0.0000       0.00000       A     3.03426e-01     3.47978e-01    ;  uncertainty sigma = 0.000008, epsilon = 0.000768
 o21bf                                  8      0.0000       0.00000       A     3.15661e-01     3.03543e-01    ;  uncertainty sigma = 0.000052, epsilon = 0.003674
 n22bf                                  7      0.0000       0.00000       A     3.38435e-01     3.93631e-01    ;  uncertainty sigma = 0.000019, epsilon = 0.001026
 o23bf                                  8      0.0000       0.00000       A     3.04803e-01     6.11515e-01    ;  uncertainty sigma = 0.000019, epsilon = 0.000440
 n24bf                                  7      0.0000       0.00000       A     3.18128e-01     6.83563e-01    ;  uncertainty sigma = 0.000031, epsilon = 0.001981
 n25bf                                  7      0.0000       0.00000       A     3.38438e-01     3.93028e-01    ;  uncertainty sigma = 0.000048, epsilon = 0.001683
 n26bf                                  7      0.0000       0.00000       A     3.27916e-01     6.46248e-01    ;  uncertainty sigma = 0.000024, epsilon = 0.005322
 h27bf                                  1      0.0000       0.00000       A     2.62564e-01     6.70554e-02    ;  uncertainty sigma = 0.000012, epsilon = 0.000465
 h28bf                                  1      0.0000       0.00000       A     2.62548e-01     6.71486e-02    ;  uncertainty sigma = 0.000008, epsilon = 0.000492
 h29bf                                  1      0.0000       0.00000       A     2.62562e-01     6.73680e-02    ;  uncertainty sigma = 0.000008, epsilon = 0.000365
 h30bf                                  1      0.0000       0.00000       A     2.62521e-01     6.67593e-02    ;  uncertainty sigma = 0.000018, epsilon = 0.000881
 h31bf                                  1      0.0000       0.00000       A     2.53663e-01     6.71784e-02    ;  uncertainty sigma = 0.000041, epsilon = 0.000925
 h32bf                                  1      0.0000       0.00000       A     2.60063e-01     8.66829e-02    ;  uncertainty sigma = 0.000006, epsilon = 0.000586
 h33bf                                  1      0.0000       0.00000       A     2.60063e-01     8.66829e-02    ;  uncertainty sigma = 0.000006, epsilon = 0.000586
 h34bf                                  1      0.0000       0.00000       A     2.42220e-01     8.64801e-02    ;  uncertainty sigma = 0.000026, epsilon = 0.000791
 h35bf                                  1      0.0000       0.00000       A     2.42220e-01     8.64801e-02    ;  uncertainty sigma = 0.000026, epsilon = 0.000791
 h36bf                                  1      0.0000       0.00000       A     2.42220e-01     8.64801e-02    ;  uncertainty sigma = 0.000026, epsilon = 0.000791
 h37bf                                  1      0.0000       0.00000       A     2.42220e-01     8.64801e-02    ;  uncertainty sigma = 0.000026, epsilon = 0.000791
 h38bf                                  1      0.0000       0.00000       A     2.60063e-01     8.66829e-02    ;  uncertainty sigma = 0.000006, epsilon = 0.000586
 h39bf                                  1      0.0000       0.00000       A     2.60063e-01     8.66829e-02    ;  uncertainty sigma = 0.000006, epsilon = 0.000586
 h40bf                                  1      0.0000       0.00000       A     2.42209e-01     8.66218e-02    ;  uncertainty sigma = 0.000020, epsilon = 0.000886
 h41bf                                  1      0.0000       0.00000       A     2.42206e-01     8.67702e-02    ;  uncertainty sigma = 0.000014, epsilon = 0.000617
 h42bf                                  1      0.0000       0.00000       A     2.42206e-01     8.67702e-02    ;  uncertainty sigma = 0.000014, epsilon = 0.000617
 h43bf                                  1      0.0000       0.00000       A     2.42206e-01     8.67702e-02    ;  uncertainty sigma = 0.000014, epsilon = 0.000617
 h44bf                                  1      0.0000       0.00000       A     1.10703e-01     4.14050e-02    ;  uncertainty sigma = 0.000035, epsilon = 0.000993
 s45bf                                 16      0.0000       0.00000       A     4.05828e-01     2.56811e-01    ;  uncertainty sigma = 0.000015, epsilon = 0.001461
 o46bf                                  8      0.0000       0.00000       A     3.04832e-01     6.12123e-01    ;  uncertainty sigma = 0.000011, epsilon = 0.000850
 o47bf                                  8      0.0000       0.00000       A     3.04832e-01     6.12123e-01    ;  uncertainty sigma = 0.000011, epsilon = 0.000850

[ moleculetype ]
;name             nrexcl
 MOL                   3

[ atoms ]
;       nr            type      resi   res      atom      cgnr      charge          mass ; qtot
         1            c0bf         1   UNL        c0         1    -0.07198       12.0110 ; qtot   -0.072
         2            c1bf         1   UNL        c1         2    -0.14819       12.0110 ; qtot   -0.220
         3            c2bf         1   UNL        c2         3    -0.14819       12.0110 ; qtot   -0.368
         4            c3bf         1   UNL        c3         4    -0.07198       12.0110 ; qtot   -0.440
         5            c4bf         1   UNL        c4         5    -0.19164       12.0110 ; qtot   -0.632
         6            c5bf         1   UNL        c5         6     0.70215       12.0110 ; qtot    0.070
         7            c6bf         1   UNL        c6         7     0.14567       12.0110 ; qtot    0.216
         8            c7bf         1   UNL        c7         8     0.92685       12.0110 ; qtot    1.143
         9            c8bf         1   UNL        c8         9     0.24008       12.0110 ; qtot    1.383
        10            c9bf         1   UNL        c9        10    -0.40701       12.0110 ; qtot    0.976
        11           c10bf         1   UNL       c10        11    -0.04643       12.0110 ; qtot    0.929
        12           c11bf         1   UNL       c11        12     0.14413       12.0110 ; qtot    1.073
        13           c12bf         1   UNL       c12        13    -0.16248       12.0110 ; qtot    0.911
        14           c13bf         1   UNL       c13        14    -0.09069       12.0110 ; qtot    0.820
        15           c14bf         1   UNL       c14        15     0.63881       12.0110 ; qtot    1.459
        16           c15bf         1   UNL       c15        16     0.52122       12.0110 ; qtot    1.980
        17           c16bf         1   UNL       c16        17     0.00526       12.0110 ; qtot    1.986
        18           c17bf         1   UNL       c17        18     0.04787       12.0110 ; qtot    2.033
        19           c18bf         1   UNL       c18        19     0.08273       12.0110 ; qtot    2.116
        20           f19bf         1   UNL       f19        20    -0.12685       18.9980 ; qtot    1.989
        21           f20bf         1   UNL       f20        21    -0.13805       18.9980 ; qtot    1.851
        22           o21bf         1   UNL       o21        22    -0.21020       15.9990 ; qtot    1.641
        23           n22bf         1   UNL       n22        23    -0.77257       14.0070 ; qtot    0.869
        24           o23bf         1   UNL       o23        24    -0.58915       15.9990 ; qtot    0.279
        25           n24bf         1   UNL       n24        25    -0.44095       14.0070 ; qtot   -0.162
        26           n25bf         1   UNL       n25        26    -0.83085       14.0070 ; qtot   -0.992
        27           n26bf         1   UNL       n26        27    -0.86583       14.0070 ; qtot   -1.858
        28           h27bf         1   UNL       h27        28     0.16075        1.0080 ; qtot   -1.698
        29           h28bf         1   UNL       h28        29     0.15721        1.0080 ; qtot   -1.540
        30           h29bf         1   UNL       h29        30     0.17297        1.0080 ; qtot   -1.367
        31           h30bf         1   UNL       h30        31     0.16397        1.0080 ; qtot   -1.203
        32           h31bf         1   UNL       h31        32     0.02960        1.0080 ; qtot   -1.174
        33           h32bf         1   UNL       h32        33     0.06991        1.0080 ; qtot   -1.104
        34           h33bf         1   UNL       h33        34     0.06991        1.0080 ; qtot   -1.034
        35           h34bf         1   UNL       h34        35     0.10463        1.0080 ; qtot   -0.929
        36           h35bf         1   UNL       h35        36     0.10463        1.0080 ; qtot   -0.825
        37           h36bf         1   UNL       h36        37     0.10463        1.0080 ; qtot   -0.720
        38           h37bf         1   UNL       h37        38     0.10463        1.0080 ; qtot   -0.615
        39           h38bf         1   UNL       h38        39     0.06991        1.0080 ; qtot   -0.546
        40           h39bf         1   UNL       h39        40     0.06991        1.0080 ; qtot   -0.476
        41           h40bf         1   UNL       h40        41     0.08136        1.0080 ; qtot   -0.394
        42           h41bf         1   UNL       h41        42     0.06256        1.0080 ; qtot   -0.332
        43           h42bf         1   UNL       h42        43     0.06256        1.0080 ; qtot   -0.269
        44           h43bf         1   UNL       h43        44     0.06256        1.0080 ; qtot   -0.207
        45           h44bf         1   UNL       h44        45     0.44882        1.0080 ; qtot    0.242
        46           s45bf         1   UNL       s45        46     0.90997       32.0670 ; qtot    1.152
        47           o46bf         1   UNL       o46        47    -0.57609       15.9990 ; qtot    0.576
        48           o47bf         1   UNL       o47        48    -0.57613       15.9990 ; qtot    0.000

[ bonds ]
;       ai        aj funct               r               k
         1         2     1        0.153016   215875.400391    ;  uncertainty r = 0.000034, k = 8.116320
         1         9     1        0.154162   198835.138501    ;  uncertainty r = 0.000099, k = 2.124015
         1        33     1        0.109497   307185.199170    ;  uncertainty r = 0.000019, k = 2.228113
         1        34     1        0.109497   307185.199170    ;  uncertainty r = 0.000019, k = 2.228113
         2        35     1        0.109349   320457.907471    ;  uncertainty r = 0.000024, k = 2.929467
         2        36     1        0.109349   320457.907471    ;  uncertainty r = 0.000024, k = 2.929467
         2        46     1        0.182136   143315.930493    ;  uncertainty r = 0.000072, k = 14.733456
         3         4     1        0.153016   215875.400391    ;  uncertainty r = 0.000034, k = 8.116320
         3        37     1        0.109349   320457.907471    ;  uncertainty r = 0.000024, k = 2.929467
         3        38     1        0.109349   320457.907471    ;  uncertainty r = 0.000024, k = 2.929467
         3        46     1        0.182136   143315.930493    ;  uncertainty r = 0.000072, k = 14.733456
         4         9     1        0.154162   198835.138501    ;  uncertainty r = 0.000099, k = 2.124015
         4        39     1        0.109497   307185.199170    ;  uncertainty r = 0.000019, k = 2.228113
         4        40     1        0.109497   307185.199170    ;  uncertainty r = 0.000019, k = 2.228113
         5         7     1        0.138747   361176.981592    ;  uncertainty r = 0.000032, k = 2.643588
         5        12     1        0.139007   367691.396045    ;  uncertainty r = 0.000031, k = 2.749259
         5        30     1        0.108780   338576.282275    ;  uncertainty r = 0.000013, k = 1.210229
         6        17     1        0.146503   257020.024902    ;  uncertainty r = 0.000082, k = 22.735462
         6        24     1        0.123258   653165.404492    ;  uncertainty r = 0.000088, k = 12.275804
         6        25     1        0.140996   234604.673926    ;  uncertainty r = 0.000190, k = 47.108488
         7        18     1        0.139121   358077.006348    ;  uncertainty r = 0.000040, k = 4.650811
         7        20     1        0.134764   340072.935645    ;  uncertainty r = 0.000045, k = 2.589505
         8        23     1        0.136645   531258.650098    ;  uncertainty r = 0.000130, k = 16.870261
         8        26     1        0.135678   614123.250195    ;  uncertainty r = 0.000161, k = 23.470454
         8        27     1        0.138412   584431.559570    ;  uncertainty r = 0.000166, k = 23.316078
         9        27     1        0.145511   243272.275293    ;  uncertainty r = 0.000192, k = 16.138660
         9        41     1        0.109313   305003.589453    ;  uncertainty r = 0.000053, k = 2.349102
        10        11     1        0.142625   274730.546533    ;  uncertainty r = 0.000027, k = 25.477092
        10        15     1        0.142292   412217.721191    ;  uncertainty r = 0.000148, k = 17.894595
        10        16     1        0.140398   402383.865576    ;  uncertainty r = 0.000182, k = 16.455999
        11        17     1        0.135447   409330.648828    ;  uncertainty r = 0.000069, k = 14.135384
        11        31     1        0.108670   334774.368506    ;  uncertainty r = 0.000042, k = 1.864898
        12        13     1        0.138905   362175.303809    ;  uncertainty r = 0.000027, k = 1.862514
        12        21     1        0.135460   342148.081152    ;  uncertainty r = 0.000038, k = 2.796473
        13        14     1        0.139206   376188.256299    ;  uncertainty r = 0.000034, k = 0.837546
        13        28     1        0.108734   335618.242285    ;  uncertainty r = 0.000017, k = 1.062658
        14        18     1        0.139238   351219.066699    ;  uncertainty r = 0.000057, k = 2.910415
        14        29     1        0.108702   335466.041113    ;  uncertainty r = 0.000027, k = 2.133558
        15        25     1        0.137832   261538.893018    ;  uncertainty r = 0.000169, k = 8.150200
        15        26     1        0.134034   454950.651758    ;  uncertainty r = 0.000165, k = 17.344959
        16        23     1        0.133415   406678.594482    ;  uncertainty r = 0.000077, k = 10.237142
        16        32     1        0.108927   329046.113965    ;  uncertainty r = 0.000030, k = 1.909598
        17        22     1        0.136126   317771.224805    ;  uncertainty r = 0.000057, k = 7.847699
        18        22     1        0.138160   312130.434863    ;  uncertainty r = 0.000116, k = 5.846346
        19        25     1        0.146434   260871.378516    ;  uncertainty r = 0.000086, k = 13.117202
        19        42     1        0.109141   308405.949609    ;  uncertainty r = 0.000010, k = 1.505458
        19        43     1        0.109141   308405.949609    ;  uncertainty r = 0.000010, k = 1.505458
        19        44     1        0.109141   308405.949609    ;  uncertainty r = 0.000010, k = 1.505458
        27        45     1        0.102192   436041.341602    ;  uncertainty r = 0.000071, k = 5.071991
        46        47     1        0.147715   557662.999707    ;  uncertainty r = 0.000049, k = 6.537561
        46        48     1        0.147715   557663.050781    ;  uncertainty r = 0.000049, k = 6.537565

[ angles ]
;       ai        aj        ak funct           theta             cth
         1         2        35     1      110.872292      383.009812    ;  uncertainty theta = 0.002709, k = 0.093947
         1         2        36     1      110.872292      383.009812    ;  uncertainty theta = 0.002709, k = 0.093947
         1         2        46     1      108.618263      538.677742    ;  uncertainty theta = 0.001427, k = 0.106426
         1         9         4     1      111.000816      597.696173    ;  uncertainty theta = 0.004609, k = 0.078458
         1         9        27     1      109.928909      624.939352    ;  uncertainty theta = 0.003639, k = 0.069703
         1         9        41     1      107.659058      410.728078    ;  uncertainty theta = 0.002396, k = 0.073273
         2         1         9     1      110.990051      571.724677    ;  uncertainty theta = 0.002917, k = 0.119763
         2         1        33     1      107.445267      403.840847    ;  uncertainty theta = 0.001756, k = 0.040038
         2         1        34     1      107.445267      403.840847    ;  uncertainty theta = 0.001756, k = 0.040038
         2        46         3     1      100.848831      719.607268    ;  uncertainty theta = 0.002039, k = 0.064625
         2        46        47     1      111.875687      696.464263    ;  uncertainty theta = 0.003478, k = 0.076573
         2        46        48     1      111.875687      696.464263    ;  uncertainty theta = 0.003478, k = 0.076573
         3         4         9     1      110.990051      571.724677    ;  uncertainty theta = 0.002917, k = 0.119763
         3         4        39     1      107.445267      403.840847    ;  uncertainty theta = 0.001756, k = 0.040038
         3         4        40     1      107.445267      403.840847    ;  uncertainty theta = 0.001756, k = 0.040038
         3        46        47     1      111.875687      696.464263    ;  uncertainty theta = 0.003478, k = 0.076573
         3        46        48     1      111.875687      696.464263    ;  uncertainty theta = 0.003478, k = 0.076573
         4         3        37     1      110.872292      383.009812    ;  uncertainty theta = 0.002709, k = 0.093947
         4         3        38     1      110.872292      383.009812    ;  uncertainty theta = 0.002709, k = 0.093947
         4         3        46     1      108.618263      538.677742    ;  uncertainty theta = 0.001427, k = 0.106426
         4         9        27     1      109.928909      624.939352    ;  uncertainty theta = 0.003639, k = 0.069703
         4         9        41     1      107.659058      410.728078    ;  uncertainty theta = 0.002396, k = 0.073273
         5         7        18     1      123.443153      352.584549    ;  uncertainty theta = 0.005265, k = 0.202869
         5         7        20     1      118.916702      524.557093    ;  uncertainty theta = 0.000766, k = 0.063533
         5        12        13     1      122.203163      367.950291    ;  uncertainty theta = 0.004353, k = 0.037976
         5        12        21     1      118.416054      506.109309    ;  uncertainty theta = 0.002115, k = 0.044491
         6        17        11     1      124.683006      439.719752    ;  uncertainty theta = 0.007537, k = 0.191394
         6        17        22     1      108.742836      385.835270    ;  uncertainty theta = 0.008747, k = 0.134414
         6        25        15     1      122.139503      482.866485    ;  uncertainty theta = 0.009667, k = 0.113170
         6        25        19     1      115.396751      421.229959    ;  uncertainty theta = 0.004034, k = 0.268490
         7         5        12     1      117.873718      466.681991    ;  uncertainty theta = 0.002635, k = 0.148809
         7         5        30     1      120.885605      275.043414    ;  uncertainty theta = 0.003104, k = 0.026017
         7        18        14     1      120.438950      350.580333    ;  uncertainty theta = 0.005824, k = 0.197361
         7        18        22     1      117.649757      371.496917    ;  uncertainty theta = 0.004336, k = 0.212601
         8        23        16     1      116.430397      408.139285    ;  uncertainty theta = 0.008084, k = 0.292187
         8        26        15     1      117.361549      450.859549    ;  uncertainty theta = 0.007752, k = 0.203830
         8        27         9     1      114.967430      416.144499    ;  uncertainty theta = 0.005462, k = 0.158010
         8        27        45     1      116.972610      445.041845    ;  uncertainty theta = 0.004212, k = 0.150910
         9         1        33     1      107.717834      390.479959    ;  uncertainty theta = 0.001312, k = 0.041720
         9         1        34     1      107.717834      390.479959    ;  uncertainty theta = 0.001312, k = 0.041720
         9         4        39     1      107.717834      390.479959    ;  uncertainty theta = 0.001312, k = 0.041720
         9         4        40     1      107.717834      390.479959    ;  uncertainty theta = 0.001312, k = 0.041720
         9        27        45     1      112.069298      338.136450    ;  uncertainty theta = 0.006188, k = 0.125489
        10        11        17     1      121.327866      511.776632    ;  uncertainty theta = 0.006720, k = 0.220926
        10        11        31     1      118.339821      255.619267    ;  uncertainty theta = 0.003231, k = 0.249698
        10        15        25     1      117.681435      482.338793    ;  uncertainty theta = 0.006416, k = 0.133319
        10        15        26     1      122.717102      546.835827    ;  uncertainty theta = 0.006239, k = 0.171770
        10        16        23     1      122.582458      739.538025    ;  uncertainty theta = 0.001322, k = 0.194232
        10        16        32     1      120.227562      259.894274    ;  uncertainty theta = 0.003837, k = 0.132009
        11        10        15     1      119.944412      443.083053    ;  uncertainty theta = 0.011475, k = 0.222963
        11        10        16     1      123.590012      408.173984    ;  uncertainty theta = 0.006741, k = 0.159112
        11        17        22     1      122.452477      425.672203    ;  uncertainty theta = 0.003057, k = 0.087983
        12         5        30     1      122.167213      276.182816    ;  uncertainty theta = 0.001979, k = 0.047518
        12        13        14     1      117.679276      490.002065    ;  uncertainty theta = 0.001416, k = 0.046653
        12        13        28     1      120.978439      282.379204    ;  uncertainty theta = 0.000982, k = 0.023307
        13        12        21     1      119.340736      515.983168    ;  uncertainty theta = 0.001915, k = 0.014125
        13        14        18     1      121.214966      509.817585    ;  uncertainty theta = 0.002734, k = 0.081000
        13        14        29     1      120.371567      284.922126    ;  uncertainty theta = 0.002332, k = 0.030236
        14        13        28     1      121.389076      278.892591    ;  uncertainty theta = 0.001182, k = 0.028037
        14        18        22     1      121.313034      424.254318    ;  uncertainty theta = 0.004582, k = 0.111195
        15        10        16     1      117.308609      431.286632    ;  uncertainty theta = 0.004742, k = 0.201450
        15        25        19     1      116.105141      434.029988    ;  uncertainty theta = 0.006238, k = 0.134168
        17         6        24     1      123.418716      471.104859    ;  uncertainty theta = 0.003206, k = 0.070384
        17         6        25     1      114.431885      323.457720    ;  uncertainty theta = 0.012880, k = 0.672027
        17        11        31     1      120.568748      277.351746    ;  uncertainty theta = 0.005819, k = 0.202769
        17        22        18     1      112.425293      459.717702    ;  uncertainty theta = 0.005379, k = 0.299014
        18         7        20     1      117.525742      487.064754    ;  uncertainty theta = 0.002079, k = 0.147581
        18        14        29     1      118.610435      275.458648    ;  uncertainty theta = 0.003647, k = 0.058785
        23         8        26     1      128.682663      742.959167    ;  uncertainty theta = 0.002344, k = 0.092423
        23         8        27     1      120.631248      828.738892    ;  uncertainty theta = 0.008816, k = 0.135823
        23        16        32     1      117.368210      318.255364    ;  uncertainty theta = 0.003552, k = 0.161160
        24         6        25     1      122.241722      693.873779    ;  uncertainty theta = 0.002201, k = 0.062599
        25        15        26     1      117.253708      579.084089    ;  uncertainty theta = 0.012486, k = 0.174674
        25        19        42     1      107.941574      486.865820    ;  uncertainty theta = 0.001912, k = 0.065460
        25        19        43     1      107.941574      486.865820    ;  uncertainty theta = 0.001912, k = 0.065460
        25        19        44     1      107.941574      486.865820    ;  uncertainty theta = 0.001912, k = 0.065460
        26         8        27     1      121.203026      911.667463    ;  uncertainty theta = 0.007466, k = 0.096286
        27         9        41     1      103.869545      447.241356    ;  uncertainty theta = 0.004650, k = 0.117102
        33         1        34     1      105.633347      315.302923    ;  uncertainty theta = 0.002012, k = 0.047784
        35         2        36     1      108.047363      296.318636    ;  uncertainty theta = 0.001826, k = 0.100600
        35         2        46     1      105.646851      359.783907    ;  uncertainty theta = 0.001657, k = 0.111194
        36         2        46     1      105.646851      359.783907    ;  uncertainty theta = 0.001657, k = 0.111194
        37         3        38     1      108.047363      296.318636    ;  uncertainty theta = 0.001826, k = 0.100600
        37         3        46     1      105.646851      359.783907    ;  uncertainty theta = 0.001657, k = 0.111194
        38         3        46     1      105.646851      359.783907    ;  uncertainty theta = 0.001657, k = 0.111194
        39         4        40     1      105.633347      315.302923    ;  uncertainty theta = 0.002012, k = 0.047784
        42        19        43     1      107.444313      326.050726    ;  uncertainty theta = 0.002153, k = 0.056617
        42        19        44     1      107.444313      326.050726    ;  uncertainty theta = 0.002153, k = 0.056617
        43        19        44     1      107.444313      326.050726    ;  uncertainty theta = 0.002153, k = 0.056618
        47        46        48     1      121.280685      840.102331    ;  uncertainty theta = 0.003117, k = 0.072683

[ dihedrals ] ; propers for gromacs 4.5 or higher, use funct 9
;       ai        aj        ak        al funct           phase               k        pn
         1         2        46         3     9        0.000000       -5.734475         1    ;  uncertainty k = 1.028248
         1         2        46         3     9      180.000000       -0.260977         2    ;  uncertainty k = 0.282540
         1         2        46         3     9        0.000000       -0.018860         3    ;  uncertainty k = 0.113983
         1         2        46         3     9      180.000000       -0.296507         4    ;  uncertainty k = 0.120891
         1         2        46        47     9        0.000000       -4.100338         1    ;  uncertainty k = 1.453481
         1         2        46        47     9      180.000000        2.133568         2    ;  uncertainty k = 0.379082
         1         2        46        47     9        0.000000        0.942962         3    ;  uncertainty k = 0.296677
         1         2        46        47     9      180.000000        0.036208         4    ;  uncertainty k = 0.112231
         1         2        46        48     9        0.000000       -4.100338         1    ;  uncertainty k = 1.453481
         1         2        46        48     9      180.000000        2.133568         2    ;  uncertainty k = 0.379082
         1         2        46        48     9        0.000000        0.942962         3    ;  uncertainty k = 0.296677
         1         2        46        48     9      180.000000        0.036208         4    ;  uncertainty k = 0.112231
         1         9         4         3     9        0.000000       -1.892624         1    ;  uncertainty k = 1.069123
         1         9         4         3     9      180.000000       -0.411778         2    ;  uncertainty k = 0.355831
         1         9         4         3     9        0.000000        0.778329         3    ;  uncertainty k = 0.147137
         1         9         4         3     9      180.000000       -1.010039         4    ;  uncertainty k = 0.257326
         1         9         4        39     9        0.000000       -1.655592         1    ;  uncertainty k = 0.245787
         1         9         4        39     9      180.000000       -0.178589         2    ;  uncertainty k = 0.203495
         1         9         4        39     9        0.000000        0.210435         3    ;  uncertainty k = 0.162638
         1         9         4        39     9      180.000000       -0.127557         4    ;  uncertainty k = 0.052303
         1         9         4        40     9        0.000000       -1.655592         1    ;  uncertainty k = 0.245787
         1         9         4        40     9      180.000000       -0.178589         2    ;  uncertainty k = 0.203495
         1         9         4        40     9        0.000000        0.210435         3    ;  uncertainty k = 0.162638
         1         9         4        40     9      180.000000       -0.127557         4    ;  uncertainty k = 0.052303
         1         9        27         8     9        0.000000       -2.425851         1    ;  uncertainty k = 0.481387
         1         9        27         8     9      180.000000        0.485220         2    ;  uncertainty k = 0.357352
         1         9        27         8     9        0.000000        0.387068         3    ;  uncertainty k = 0.124910
         1         9        27         8     9      180.000000        0.332885         4    ;  uncertainty k = 0.097261
         1         9        27        45     9        0.000000        2.383614         1    ;  uncertainty k = 1.173155
         1         9        27        45     9      180.000000       -0.442979         2    ;  uncertainty k = 0.282680
         1         9        27        45     9        0.000000        0.213585         3    ;  uncertainty k = 0.131816
         1         9        27        45     9      180.000000        0.094431         4    ;  uncertainty k = 0.084703
         2         1         9         4     9        0.000000       -1.892624         1    ;  uncertainty k = 1.069123
         2         1         9         4     9      180.000000       -0.411778         2    ;  uncertainty k = 0.355831
         2         1         9         4     9        0.000000        0.778329         3    ;  uncertainty k = 0.147137
         2         1         9         4     9      180.000000       -1.010039         4    ;  uncertainty k = 0.257326
         2         1         9        27     9        0.000000       -1.701082         1    ;  uncertainty k = 1.086051
         2         1         9        27     9      180.000000       -0.515497         2    ;  uncertainty k = 0.408756
         2         1         9        27     9        0.000000        0.871336         3    ;  uncertainty k = 0.216758
         2         1         9        27     9      180.000000       -0.014214         4    ;  uncertainty k = 0.315353
         2         1         9        41     9        0.000000       -1.202391         1    ;  uncertainty k = 0.759285
         2         1         9        41     9      180.000000       -0.774827         2    ;  uncertainty k = 0.434485
         2         1         9        41     9        0.000000        0.072234         3    ;  uncertainty k = 0.141929
         2         1         9        41     9      180.000000       -0.220963         4    ;  uncertainty k = 0.070673
         2        46         3         4     9        0.000000       -5.734475         1    ;  uncertainty k = 1.028248
         2        46         3         4     9      180.000000       -0.260977         2    ;  uncertainty k = 0.282540
         2        46         3         4     9        0.000000       -0.018860         3    ;  uncertainty k = 0.113983
         2        46         3         4     9      180.000000       -0.296507         4    ;  uncertainty k = 0.120891
         2        46         3        37     9        0.000000       -0.357486         1    ;  uncertainty k = 0.553590
         2        46         3        37     9      180.000000       -3.266891         2    ;  uncertainty k = 0.520904
         2        46         3        37     9        0.000000       -0.389597         3    ;  uncertainty k = 0.151837
         2        46         3        37     9      180.000000       -0.185975         4    ;  uncertainty k = 0.158518
         2        46         3        38     9        0.000000       -0.357486         1    ;  uncertainty k = 0.553590
         2        46         3        38     9      180.000000       -3.266891         2    ;  uncertainty k = 0.520904
         2        46         3        38     9        0.000000       -0.389597         3    ;  uncertainty k = 0.151837
         2        46         3        38     9      180.000000       -0.185975         4    ;  uncertainty k = 0.158518
         3         4         9        27     9        0.000000       -1.701082         1    ;  uncertainty k = 1.086051
         3         4         9        27     9      180.000000       -0.515497         2    ;  uncertainty k = 0.408756
         3         4         9        27     9        0.000000        0.871336         3    ;  uncertainty k = 0.216758
         3         4         9        27     9      180.000000       -0.014214         4    ;  uncertainty k = 0.315353
         3         4         9        41     9        0.000000       -1.202391         1    ;  uncertainty k = 0.759285
         3         4         9        41     9      180.000000       -0.774827         2    ;  uncertainty k = 0.434485
         3         4         9        41     9        0.000000        0.072234         3    ;  uncertainty k = 0.141929
         3         4         9        41     9      180.000000       -0.220963         4    ;  uncertainty k = 0.070673
         3        46         2        35     9        0.000000       -0.357486         1    ;  uncertainty k = 0.553590
         3        46         2        35     9      180.000000       -3.266891         2    ;  uncertainty k = 0.520904
         3        46         2        35     9        0.000000       -0.389597         3    ;  uncertainty k = 0.151837
         3        46         2        35     9      180.000000       -0.185975         4    ;  uncertainty k = 0.158518
         3        46         2        36     9        0.000000       -0.357486         1    ;  uncertainty k = 0.553590
         3        46         2        36     9      180.000000       -3.266891         2    ;  uncertainty k = 0.520904
         3        46         2        36     9        0.000000       -0.389597         3    ;  uncertainty k = 0.151837
         3        46         2        36     9      180.000000       -0.185975         4    ;  uncertainty k = 0.158518
         4         3        46        47     9        0.000000       -4.100338         1    ;  uncertainty k = 1.453481
         4         3        46        47     9      180.000000        2.133568         2    ;  uncertainty k = 0.379082
         4         3        46        47     9        0.000000        0.942962         3    ;  uncertainty k = 0.296677
         4         3        46        47     9      180.000000        0.036208         4    ;  uncertainty k = 0.112231
         4         3        46        48     9        0.000000       -4.100338         1    ;  uncertainty k = 1.453481
         4         3        46        48     9      180.000000        2.133568         2    ;  uncertainty k = 0.379082
         4         3        46        48     9        0.000000        0.942962         3    ;  uncertainty k = 0.296677
         4         3        46        48     9      180.000000        0.036208         4    ;  uncertainty k = 0.112231
         4         9         1        33     9        0.000000       -1.655592         1    ;  uncertainty k = 0.245787
         4         9         1        33     9      180.000000       -0.178589         2    ;  uncertainty k = 0.203495
         4         9         1        33     9        0.000000        0.210435         3    ;  uncertainty k = 0.162638
         4         9         1        33     9      180.000000       -0.127557         4    ;  uncertainty k = 0.052303
         4         9         1        34     9        0.000000       -1.655592         1    ;  uncertainty k = 0.245787
         4         9         1        34     9      180.000000       -0.178589         2    ;  uncertainty k = 0.203495
         4         9         1        34     9        0.000000        0.210435         3    ;  uncertainty k = 0.162638
         4         9         1        34     9      180.000000       -0.127557         4    ;  uncertainty k = 0.052303
         4         9        27         8     9        0.000000       -2.425851         1    ;  uncertainty k = 0.481387
         4         9        27         8     9      180.000000        0.485220         2    ;  uncertainty k = 0.357352
         4         9        27         8     9        0.000000        0.387068         3    ;  uncertainty k = 0.124910
         4         9        27         8     9      180.000000        0.332885         4    ;  uncertainty k = 0.097261
         4         9        27        45     9        0.000000        2.383614         1    ;  uncertainty k = 1.173155
         4         9        27        45     9      180.000000       -0.442979         2    ;  uncertainty k = 0.282680
         4         9        27        45     9        0.000000        0.213585         3    ;  uncertainty k = 0.131816
         4         9        27        45     9      180.000000        0.094431         4    ;  uncertainty k = 0.084703
         5         7        18        14     9        0.000000       -0.306313         1    ;  uncertainty k = 0.505391
         5         7        18        14     9      180.000000        5.699560         2    ;  uncertainty k = 1.071993
         5         7        18        14     9        0.000000        0.341049         3    ;  uncertainty k = 0.427163
         5         7        18        14     9      180.000000        1.286695         4    ;  uncertainty k = 0.336491
         5         7        18        22     9        0.000000        0.209707         1    ;  uncertainty k = 0.181119
         5         7        18        22     9      180.000000        8.078772         2    ;  uncertainty k = 0.443297
         5         7        18        22     9        0.000000        1.333895         3    ;  uncertainty k = 0.197684
         5         7        18        22     9      180.000000        1.703363         4    ;  uncertainty k = 0.101848
         5        12        13        14     9        0.000000        0.006656         1    ;  uncertainty k = 0.178742
         5        12        13        14     9      180.000000        9.851306         2    ;  uncertainty k = 0.487067
         5        12        13        14     9        0.000000       -0.289375         3    ;  uncertainty k = 0.510037
         5        12        13        14     9      180.000000        1.102178         4    ;  uncertainty k = 0.341530
         5        12        13        28     9        0.000000        0.058690         1    ;  uncertainty k = 0.184961
         5        12        13        28     9      180.000000        5.722279         2    ;  uncertainty k = 0.634542
         5        12        13        28     9        0.000000        1.318867         3    ;  uncertainty k = 0.348930
         5        12        13        28     9      180.000000        1.524759         4    ;  uncertainty k = 0.200416
         6        17        11        10     9        0.000000        0.274723         1    ;  uncertainty k = 0.612445
         6        17        11        10     9      180.000000       13.265960         2    ;  uncertainty k = 0.390905
         6        17        11        10     9        0.000000        1.583089         3    ;  uncertainty k = 0.153381
         6        17        11        10     9      180.000000        1.156602         4    ;  uncertainty k = 0.264713
         6        17        11        31     9        0.000000        0.232027         1    ;  uncertainty k = 0.722469
         6        17        11        31     9      180.000000       10.868764         2    ;  uncertainty k = 0.621677
         6        17        11        31     9        0.000000        1.612121         3    ;  uncertainty k = 0.474367
         6        17        11        31     9      180.000000        1.226062         4    ;  uncertainty k = 0.063655
         6        17        22        18     9        0.000000        2.823567         1    ;  uncertainty k = 2.168048
         6        17        22        18     9      180.000000        2.975857         2    ;  uncertainty k = 0.372945
         6        17        22        18     9        0.000000        1.779033         3    ;  uncertainty k = 0.305822
         6        17        22        18     9      180.000000        0.174992         4    ;  uncertainty k = 0.197831
         6        25        15        10     9        0.000000        0.333346         1    ;  uncertainty k = 1.954270
         6        25        15        10     9      180.000000        4.783189         2    ;  uncertainty k = 0.771542
         6        25        15        10     9        0.000000        0.302506         3    ;  uncertainty k = 0.500519
         6        25        15        10     9      180.000000        0.065337         4    ;  uncertainty k = 0.080312
         6        25        15        26     9        0.000000       -0.186391         1    ;  uncertainty k = 1.484040
         6        25        15        26     9      180.000000        7.598972         2    ;  uncertainty k = 0.214151
         6        25        15        26     9        0.000000        0.847345         3    ;  uncertainty k = 0.579848
         6        25        15        26     9      180.000000       -0.217449         4    ;  uncertainty k = 0.164841
         6        25        19        42     9        0.000000       -0.140292         1    ;  uncertainty k = 0.225852
         6        25        19        42     9      180.000000        0.717668         2    ;  uncertainty k = 0.271079
         6        25        19        42     9        0.000000        0.702955         3    ;  uncertainty k = 0.095742
         6        25        19        42     9      180.000000        0.500419         4    ;  uncertainty k = 0.086324
         6        25        19        43     9        0.000000       -0.140292         1    ;  uncertainty k = 0.225852
         6        25        19        43     9      180.000000        0.717668         2    ;  uncertainty k = 0.271079
         6        25        19        43     9        0.000000        0.702955         3    ;  uncertainty k = 0.095742
         6        25        19        43     9      180.000000        0.500419         4    ;  uncertainty k = 0.086324
         6        25        19        44     9        0.000000       -0.140292         1    ;  uncertainty k = 0.225852
         6        25        19        44     9      180.000000        0.717668         2    ;  uncertainty k = 0.271079
         6        25        19        44     9        0.000000        0.702955         3    ;  uncertainty k = 0.095742
         6        25        19        44     9      180.000000        0.500419         4    ;  uncertainty k = 0.086324
         7         5        12        13     9        0.000000       -0.049959         1    ;  uncertainty k = 0.238365
         7         5        12        13     9      180.000000        8.709297         2    ;  uncertainty k = 0.507640
         7         5        12        13     9        0.000000       -0.103094         3    ;  uncertainty k = 0.454333
         7         5        12        13     9      180.000000        1.263124         4    ;  uncertainty k = 0.287252
         7         5        12        21     9        0.000000        0.023050         1    ;  uncertainty k = 0.157478
         7         5        12        21     9      180.000000       12.231401         2    ;  uncertainty k = 0.567990
         7         5        12        21     9        0.000000        1.527926         3    ;  uncertainty k = 0.329456
         7         5        12        21     9      180.000000        1.522411         4    ;  uncertainty k = 0.258192
         7        18        14        13     9        0.000000        0.015776         1    ;  uncertainty k = 0.049644
         7        18        14        13     9      180.000000        9.130352         2    ;  uncertainty k = 0.496855
         7        18        14        13     9        0.000000        0.154802         3    ;  uncertainty k = 0.380221
         7        18        14        13     9      180.000000        1.321067         4    ;  uncertainty k = 0.368043
         7        18        14        29     9        0.000000        0.146476         1    ;  uncertainty k = 0.242432
         7        18        14        29     9      180.000000        6.097361         2    ;  uncertainty k = 0.718867
         7        18        14        29     9        0.000000        1.323120         3    ;  uncertainty k = 0.435541
         7        18        14        29     9      180.000000        1.565701         4    ;  uncertainty k = 0.129358
         7        18        22        17     9        0.000000        3.630851         1    ;  uncertainty k = 0.784137
         7        18        22        17     9      180.000000        2.972220         2    ;  uncertainty k = 0.332620
         7        18        22        17     9        0.000000        0.841399         3    ;  uncertainty k = 0.226489
         7        18        22        17     9      180.000000        0.049554         4    ;  uncertainty k = 0.189241
         8        23        16        10     9        0.000000       -0.104525         1    ;  uncertainty k = 0.767322
         8        23        16        10     9      180.000000       17.183536         2    ;  uncertainty k = 0.578996
         8        23        16        10     9        0.000000       -0.518418         3    ;  uncertainty k = 0.684749
         8        23        16        10     9      180.000000        1.636817         4    ;  uncertainty k = 0.610911
         8        23        16        32     9        0.000000        0.074308         1    ;  uncertainty k = 0.978395
         8        23        16        32     9      180.000000       17.919801         2    ;  uncertainty k = 0.668021
         8        23        16        32     9        0.000000        1.366389         3    ;  uncertainty k = 0.782182
         8        23        16        32     9      180.000000        1.132681         4    ;  uncertainty k = 0.479665
         8        26        15        10     9        0.000000        0.249814         1    ;  uncertainty k = 0.806619
         8        26        15        10     9      180.000000       12.639597         2    ;  uncertainty k = 0.670233
         8        26        15        10     9        0.000000        0.173406         3    ;  uncertainty k = 0.846505
         8        26        15        10     9      180.000000        0.944984         4    ;  uncertainty k = 0.425567
         8        26        15        25     9        0.000000        0.494015         1    ;  uncertainty k = 0.776410
         8        26        15        25     9      180.000000       16.014109         2    ;  uncertainty k = 1.041178
         8        26        15        25     9        0.000000        1.715047         3    ;  uncertainty k = 0.318991
         8        26        15        25     9      180.000000        1.130754         4    ;  uncertainty k = 0.421625
         8        27         9        41     9        0.000000        0.010825         1    ;  uncertainty k = 0.661052
         8        27         9        41     9      180.000000       -0.207474         2    ;  uncertainty k = 0.180912
         8        27         9        41     9        0.000000        0.070840         3    ;  uncertainty k = 0.156915
         8        27         9        41     9      180.000000        0.286253         4    ;  uncertainty k = 0.078562
         9         1         2        35     9        0.000000       -0.174503         1    ;  uncertainty k = 0.674627
         9         1         2        35     9      180.000000       -1.311517         2    ;  uncertainty k = 0.338727
         9         1         2        35     9        0.000000        0.366121         3    ;  uncertainty k = 0.160157
         9         1         2        35     9      180.000000        0.058673         4    ;  uncertainty k = 0.043478
         9         1         2        36     9        0.000000       -0.174503         1    ;  uncertainty k = 0.674627
         9         1         2        36     9      180.000000       -1.311517         2    ;  uncertainty k = 0.338727
         9         1         2        36     9        0.000000        0.366121         3    ;  uncertainty k = 0.160157
         9         1         2        36     9      180.000000        0.058673         4    ;  uncertainty k = 0.043478
         9         1         2        46     9        0.000000        4.683212         1    ;  uncertainty k = 2.714565
         9         1         2        46     9      180.000000       -2.651697         2    ;  uncertainty k = 1.038170
         9         1         2        46     9        0.000000        0.286211         3    ;  uncertainty k = 0.476498
         9         1         2        46     9      180.000000       -0.739845         4    ;  uncertainty k = 0.322988
         9         4         3        37     9        0.000000       -0.174503         1    ;  uncertainty k = 0.674627
         9         4         3        37     9      180.000000       -1.311517         2    ;  uncertainty k = 0.338727
         9         4         3        37     9        0.000000        0.366121         3    ;  uncertainty k = 0.160157
         9         4         3        37     9      180.000000        0.058673         4    ;  uncertainty k = 0.043478
         9         4         3        38     9        0.000000       -0.174503         1    ;  uncertainty k = 0.674627
         9         4         3        38     9      180.000000       -1.311517         2    ;  uncertainty k = 0.338727
         9         4         3        38     9        0.000000        0.366121         3    ;  uncertainty k = 0.160157
         9         4         3        38     9      180.000000        0.058673         4    ;  uncertainty k = 0.043478
         9         4         3        46     9        0.000000        4.683212         1    ;  uncertainty k = 2.714565
         9         4         3        46     9      180.000000       -2.651697         2    ;  uncertainty k = 1.038170
         9         4         3        46     9        0.000000        0.286211         3    ;  uncertainty k = 0.476498
         9         4         3        46     9      180.000000       -0.739845         4    ;  uncertainty k = 0.322988
         9        27         8        23     9        0.000000        9.458454         1    ;  uncertainty k = 0.794465
         9        27         8        23     9      180.000000       11.008166         2    ;  uncertainty k = 0.193979
         9        27         8        23     9        0.000000        1.357081         3    ;  uncertainty k = 0.183129
         9        27         8        23     9      180.000000       -0.328070         4    ;  uncertainty k = 0.038385
         9        27         8        26     9        0.000000       10.311371         1    ;  uncertainty k = 0.716262
         9        27         8        26     9      180.000000       11.092708         2    ;  uncertainty k = 0.133855
         9        27         8        26     9        0.000000        1.233767         3    ;  uncertainty k = 0.248631
         9        27         8        26     9      180.000000       -0.377151         4    ;  uncertainty k = 0.068462
        10        11        17        22     9        0.000000        0.193043         1    ;  uncertainty k = 0.324392
        10        11        17        22     9      180.000000       21.054666         2    ;  uncertainty k = 0.625248
        10        11        17        22     9        0.000000        2.056948         3    ;  uncertainty k = 0.278841
        10        11        17        22     9      180.000000        0.671228         4    ;  uncertainty k = 0.565745
        10        15        25        19     9        0.000000        2.967922         1    ;  uncertainty k = 2.014745
        10        15        25        19     9      180.000000        9.109405         2    ;  uncertainty k = 0.521199
        10        15        25        19     9        0.000000        1.035250         3    ;  uncertainty k = 0.677163
        10        15        25        19     9      180.000000        0.106498         4    ;  uncertainty k = 0.313309
        11        10        15        25     9        0.000000       -0.062019         1    ;  uncertainty k = 0.339296
        11        10        15        25     9      180.000000        8.053651         2    ;  uncertainty k = 0.663531
        11        10        15        25     9        0.000000        0.285032         3    ;  uncertainty k = 0.537184
        11        10        15        25     9      180.000000        1.053518         4    ;  uncertainty k = 0.278438
        11        10        15        26     9        0.000000        0.157401         1    ;  uncertainty k = 0.957189
        11        10        15        26     9      180.000000        8.049863         2    ;  uncertainty k = 1.519813
        11        10        15        26     9        0.000000       -0.008365         3    ;  uncertainty k = 0.302824
        11        10        15        26     9      180.000000        1.287214         4    ;  uncertainty k = 0.556756
        11        10        16        23     9        0.000000        0.183285         1    ;  uncertainty k = 0.441327
        11        10        16        23     9      180.000000       10.754243         2    ;  uncertainty k = 0.627013
        11        10        16        23     9        0.000000        0.289909         3    ;  uncertainty k = 0.244961
        11        10        16        23     9      180.000000        1.233915         4    ;  uncertainty k = 0.374879
        11        10        16        32     9        0.000000       -0.445724         1    ;  uncertainty k = 0.532686
        11        10        16        32     9      180.000000        5.920296         2    ;  uncertainty k = 0.574460
        11        10        16        32     9        0.000000        0.826478         3    ;  uncertainty k = 0.279057
        11        10        16        32     9      180.000000        0.699413         4    ;  uncertainty k = 0.169023
        11        17         6        24     9        0.000000       -2.736885         1    ;  uncertainty k = 0.984089
        11        17         6        24     9      180.000000        2.829386         2    ;  uncertainty k = 0.722306
        11        17         6        24     9        0.000000       -0.148850         3    ;  uncertainty k = 0.456669
        11        17         6        24     9      180.000000       -0.018089         4    ;  uncertainty k = 0.178562
        11        17         6        25     9        0.000000        1.847981         1    ;  uncertainty k = 1.695057
        11        17         6        25     9      180.000000        0.676018         2    ;  uncertainty k = 0.840437
        11        17         6        25     9        0.000000        0.412450         3    ;  uncertainty k = 0.335419
        11        17         6        25     9      180.000000        0.361110         4    ;  uncertainty k = 0.179553
        11        17        22        18     9        0.000000        6.054698         1    ;  uncertainty k = 1.057145
        11        17        22        18     9      180.000000        6.289935         2    ;  uncertainty k = 0.136203
        11        17        22        18     9        0.000000       -0.847804         3    ;  uncertainty k = 0.376269
        11        17        22        18     9      180.000000        0.116643         4    ;  uncertainty k = 0.099457
        12         5         7        18     9        0.000000       -0.028157         1    ;  uncertainty k = 0.164194
        12         5         7        18     9      180.000000        8.671004         2    ;  uncertainty k = 0.512359
        12         5         7        18     9        0.000000        0.207433         3    ;  uncertainty k = 0.509188
        12         5         7        18     9      180.000000        1.302601         4    ;  uncertainty k = 0.281851
        12         5         7        20     9        0.000000       -0.002392         1    ;  uncertainty k = 0.247129
        12         5         7        20     9      180.000000       13.084887         2    ;  uncertainty k = 0.509633
        12         5         7        20     9        0.000000        1.474366         3    ;  uncertainty k = 0.306558
        12         5         7        20     9      180.000000        1.520558         4    ;  uncertainty k = 0.243651
        12        13        14        18     9        0.000000       -0.113542         1    ;  uncertainty k = 0.211768
        12        13        14        18     9      180.000000       13.972594         2    ;  uncertainty k = 0.306737
        12        13        14        18     9        0.000000       -0.786444         3    ;  uncertainty k = 0.554355
        12        13        14        18     9      180.000000        0.930464         4    ;  uncertainty k = 0.288428
        12        13        14        29     9        0.000000       -0.003440         1    ;  uncertainty k = 0.095641
        12        13        14        29     9      180.000000        7.538138         2    ;  uncertainty k = 0.273713
        12        13        14        29     9        0.000000        1.412643         3    ;  uncertainty k = 0.270752
        12        13        14        29     9      180.000000        1.740927         4    ;  uncertainty k = 0.123790
        13        12         5        30     9        0.000000        0.138635         1    ;  uncertainty k = 0.151239
        13        12         5        30     9      180.000000        5.451074         2    ;  uncertainty k = 0.660632
        13        12         5        30     9        0.000000        1.286115         3    ;  uncertainty k = 0.294094
        13        12         5        30     9      180.000000        1.480963         4    ;  uncertainty k = 0.179055
        13        14        18        22     9        0.000000       -0.064057         1    ;  uncertainty k = 0.392115
        13        14        18        22     9      180.000000       11.007024         2    ;  uncertainty k = 0.446783
        13        14        18        22     9        0.000000        1.358780         3    ;  uncertainty k = 0.241783
        13        14        18        22     9      180.000000        1.735948         4    ;  uncertainty k = 0.120659
        14        13        12        21     9        0.000000       -0.032001         1    ;  uncertainty k = 0.254449
        14        13        12        21     9      180.000000       12.251927         2    ;  uncertainty k = 0.522356
        14        13        12        21     9        0.000000        1.414423         3    ;  uncertainty k = 0.230243
        14        13        12        21     9      180.000000        1.530094         4    ;  uncertainty k = 0.209632
        14        18         7        20     9        0.000000        0.257162         1    ;  uncertainty k = 0.251999
        14        18         7        20     9      180.000000        8.387430         2    ;  uncertainty k = 0.311300
        14        18         7        20     9        0.000000        1.426919         3    ;  uncertainty k = 0.223314
        14        18         7        20     9      180.000000        1.675064         4    ;  uncertainty k = 0.138706
        14        18        22        17     9        0.000000        4.660947         1    ;  uncertainty k = 1.076529
        14        18        22        17     9      180.000000        3.955354         2    ;  uncertainty k = 0.191196
        14        18        22        17     9        0.000000        0.367207         3    ;  uncertainty k = 0.312421
        14        18        22        17     9      180.000000        0.123949         4    ;  uncertainty k = 0.068754
        15        10        11        17     9        0.000000       -0.032949         1    ;  uncertainty k = 1.093953
        15        10        11        17     9      180.000000        6.537521         2    ;  uncertainty k = 0.960908
        15        10        11        17     9        0.000000        0.251585         3    ;  uncertainty k = 0.388221
        15        10        11        17     9      180.000000        0.546006         4    ;  uncertainty k = 0.199842
        15        10        11        31     9        0.000000        0.695748         1    ;  uncertainty k = 1.086541
        15        10        11        31     9      180.000000        6.198333         2    ;  uncertainty k = 0.660735
        15        10        11        31     9        0.000000        1.069539         3    ;  uncertainty k = 0.314021
        15        10        11        31     9      180.000000        0.198280         4    ;  uncertainty k = 0.158231
        15        10        16        23     9        0.000000        0.095609         1    ;  uncertainty k = 0.587922
        15        10        16        23     9      180.000000       12.156768         2    ;  uncertainty k = 0.408624
        15        10        16        23     9        0.000000       -1.004839         3    ;  uncertainty k = 0.831374
        15        10        16        23     9      180.000000        0.812368         4    ;  uncertainty k = 0.182022
        15        10        16        32     9        0.000000       -0.160465         1    ;  uncertainty k = 0.870412
        15        10        16        32     9      180.000000        6.533189         2    ;  uncertainty k = 0.831900
        15        10        16        32     9        0.000000        0.667353         3    ;  uncertainty k = 0.056278
        15        10        16        32     9      180.000000        0.763221         4    ;  uncertainty k = 0.217113
        15        25         6        17     9        0.000000        1.627993         1    ;  uncertainty k = 2.264390
        15        25         6        17     9      180.000000        2.550374         2    ;  uncertainty k = 0.860484
        15        25         6        17     9        0.000000        0.937888         3    ;  uncertainty k = 0.270547
        15        25         6        17     9      180.000000        0.440531         4    ;  uncertainty k = 0.214002
        15        25         6        24     9        0.000000        2.570162         1    ;  uncertainty k = 2.607662
        15        25         6        24     9      180.000000       13.805431         2    ;  uncertainty k = 0.650630
        15        25         6        24     9        0.000000        0.924378         3    ;  uncertainty k = 0.100236
        15        25         6        24     9      180.000000       -0.446747         4    ;  uncertainty k = 0.520040
        15        25        19        42     9        0.000000       -0.513999         1    ;  uncertainty k = 0.421798
        15        25        19        42     9      180.000000        1.064222         2    ;  uncertainty k = 0.170920
        15        25        19        42     9        0.000000        0.337674         3    ;  uncertainty k = 0.203924
        15        25        19        42     9      180.000000        0.463464         4    ;  uncertainty k = 0.153804
        15        25        19        43     9        0.000000       -0.513999         1    ;  uncertainty k = 0.421798
        15        25        19        43     9      180.000000        1.064222         2    ;  uncertainty k = 0.170920
        15        25        19        43     9        0.000000        0.337674         3    ;  uncertainty k = 0.203924
        15        25        19        43     9      180.000000        0.463464         4    ;  uncertainty k = 0.153804
        15        25        19        44     9        0.000000       -0.513999         1    ;  uncertainty k = 0.421798
        15        25        19        44     9      180.000000        1.064222         2    ;  uncertainty k = 0.170920
        15        25        19        44     9        0.000000        0.337674         3    ;  uncertainty k = 0.203924
        15        25        19        44     9      180.000000        0.463464         4    ;  uncertainty k = 0.153804
        15        26         8        23     9        0.000000       -0.011774         1    ;  uncertainty k = 1.524919
        15        26         8        23     9      180.000000        6.821374         2    ;  uncertainty k = 0.898887
        15        26         8        23     9        0.000000        1.249122         3    ;  uncertainty k = 0.710005
        15        26         8        23     9      180.000000        0.792185         4    ;  uncertainty k = 0.299135
        15        26         8        27     9        0.000000        0.556646         1    ;  uncertainty k = 1.666813
        15        26         8        27     9      180.000000        9.322505         2    ;  uncertainty k = 0.634477
        15        26         8        27     9        0.000000        2.023777         3    ;  uncertainty k = 0.546989
        15        26         8        27     9      180.000000        0.920393         4    ;  uncertainty k = 0.246238
        16        10        11        17     9        0.000000        0.252925         1    ;  uncertainty k = 0.491055
        16        10        11        17     9      180.000000        5.225916         2    ;  uncertainty k = 1.034019
        16        10        11        17     9        0.000000        0.973909         3    ;  uncertainty k = 0.320059
        16        10        11        17     9      180.000000        0.379724         4    ;  uncertainty k = 0.231361
        16        10        11        31     9        0.000000        0.372916         1    ;  uncertainty k = 0.911275
        16        10        11        31     9      180.000000        5.415654         2    ;  uncertainty k = 0.333992
        16        10        11        31     9        0.000000        0.942646         3    ;  uncertainty k = 0.324936
        16        10        11        31     9      180.000000        0.088208         4    ;  uncertainty k = 0.129862
        16        10        15        25     9        0.000000       -0.730412         1    ;  uncertainty k = 0.839802
        16        10        15        25     9      180.000000        6.192496         2    ;  uncertainty k = 0.797666
        16        10        15        25     9        0.000000        0.123931         3    ;  uncertainty k = 0.246373
        16        10        15        25     9      180.000000        1.034343         4    ;  uncertainty k = 0.306402
        16        10        15        26     9        0.000000       -0.114074         1    ;  uncertainty k = 0.535656
        16        10        15        26     9      180.000000        7.382430         2    ;  uncertainty k = 1.014506
        16        10        15        26     9        0.000000       -0.340092         3    ;  uncertainty k = 0.305905
        16        10        15        26     9      180.000000        1.217932         4    ;  uncertainty k = 0.581078
        16        23         8        26     9        0.000000        0.006442         1    ;  uncertainty k = 0.909213
        16        23         8        26     9      180.000000        6.529175         2    ;  uncertainty k = 1.343489
        16        23         8        26     9        0.000000        0.792547         3    ;  uncertainty k = 0.550716
        16        23         8        26     9      180.000000        0.512996         4    ;  uncertainty k = 0.212874
        16        23         8        27     9        0.000000        0.325605         1    ;  uncertainty k = 0.765783
        16        23         8        27     9      180.000000        7.817659         2    ;  uncertainty k = 0.516492
        16        23         8        27     9        0.000000        1.829020         3    ;  uncertainty k = 0.685193
        16        23         8        27     9      180.000000        0.645716         4    ;  uncertainty k = 0.283630
        17         6        25        19     9        0.000000        1.056405         1    ;  uncertainty k = 2.053214
        17         6        25        19     9      180.000000        7.294411         2    ;  uncertainty k = 0.749752
        17         6        25        19     9        0.000000        1.508815         3    ;  uncertainty k = 0.227702
        17         6        25        19     9      180.000000       -0.038609         4    ;  uncertainty k = 0.195181
        18         7         5        30     9        0.000000        0.057379         1    ;  uncertainty k = 0.165911
        18         7         5        30     9      180.000000        5.716951         2    ;  uncertainty k = 0.832327
        18         7         5        30     9        0.000000        1.299980         3    ;  uncertainty k = 0.327602
        18         7         5        30     9      180.000000        1.492424         4    ;  uncertainty k = 0.176810
        18        14        13        28     9        0.000000        0.076709         1    ;  uncertainty k = 0.186984
        18        14        13        28     9      180.000000        7.523892         2    ;  uncertainty k = 0.356925
        18        14        13        28     9        0.000000        1.389232         3    ;  uncertainty k = 0.254789
        18        14        13        28     9      180.000000        1.744370         4    ;  uncertainty k = 0.166848
        19        25         6        24     9        0.000000        0.943199         1    ;  uncertainty k = 0.953019
        19        25         6        24     9      180.000000       13.405517         2    ;  uncertainty k = 0.210551
        19        25         6        24     9        0.000000        0.437924         3    ;  uncertainty k = 0.356109
        19        25         6        24     9      180.000000       -0.037170         4    ;  uncertainty k = 0.148301
        19        25        15        26     9        0.000000        1.839416         1    ;  uncertainty k = 1.375652
        19        25        15        26     9      180.000000       10.595154         2    ;  uncertainty k = 0.797046
        19        25        15        26     9        0.000000        0.861485         3    ;  uncertainty k = 0.307083
        19        25        15        26     9      180.000000        0.212546         4    ;  uncertainty k = 0.455173
        20         7         5        30     9        0.000000       -0.230980         1    ;  uncertainty k = 0.291748
        20         7         5        30     9      180.000000        9.239380         2    ;  uncertainty k = 0.341179
        20         7         5        30     9        0.000000        0.839928         3    ;  uncertainty k = 0.293710
        20         7         5        30     9      180.000000        1.043063         4    ;  uncertainty k = 0.201990
        20         7        18        22     9        0.000000       -0.105793         1    ;  uncertainty k = 0.354022
        20         7        18        22     9      180.000000       12.165824         2    ;  uncertainty k = 0.214592
        20         7        18        22     9        0.000000        1.160865         3    ;  uncertainty k = 0.370829
        20         7        18        22     9      180.000000        1.261897         4    ;  uncertainty k = 0.194088
        21        12         5        30     9        0.000000       -0.271891         1    ;  uncertainty k = 0.249928
        21        12         5        30     9      180.000000        8.500019         2    ;  uncertainty k = 0.281498
        21        12         5        30     9        0.000000        0.815708         3    ;  uncertainty k = 0.327842
        21        12         5        30     9      180.000000        0.992978         4    ;  uncertainty k = 0.194491
        21        12        13        28     9        0.000000       -0.357248         1    ;  uncertainty k = 0.222188
        21        12        13        28     9      180.000000        8.920407         2    ;  uncertainty k = 0.265967
        21        12        13        28     9        0.000000        0.818892         3    ;  uncertainty k = 0.249596
        21        12        13        28     9      180.000000        0.905586         4    ;  uncertainty k = 0.175017
        22        17         6        24     9        0.000000       -2.044631         1    ;  uncertainty k = 1.471510
        22        17         6        24     9      180.000000        9.630818         2    ;  uncertainty k = 0.607857
        22        17         6        24     9        0.000000        0.236984         3    ;  uncertainty k = 0.528742
        22        17         6        24     9      180.000000       -0.331931         4    ;  uncertainty k = 0.518325
        22        17         6        25     9        0.000000        1.503142         1    ;  uncertainty k = 1.118683
        22        17         6        25     9      180.000000        3.516108         2    ;  uncertainty k = 0.667937
        22        17         6        25     9        0.000000        0.738545         3    ;  uncertainty k = 0.316487
        22        17         6        25     9      180.000000        0.529978         4    ;  uncertainty k = 0.123665
        22        17        11        31     9        0.000000        0.176467         1    ;  uncertainty k = 0.770343
        22        17        11        31     9      180.000000       16.282668         2    ;  uncertainty k = 0.417244
        22        17        11        31     9        0.000000        1.907448         3    ;  uncertainty k = 0.070637
        22        17        11        31     9      180.000000        0.957052         4    ;  uncertainty k = 0.581336
        22        18        14        29     9        0.000000       -0.025816         1    ;  uncertainty k = 0.162969
        22        18        14        29     9      180.000000        8.757822         2    ;  uncertainty k = 0.242306
        22        18        14        29     9        0.000000        0.878698         3    ;  uncertainty k = 0.265252
        22        18        14        29     9      180.000000        1.203360         4    ;  uncertainty k = 0.152721
        23         8        27        45     9        0.000000       10.270061         1    ;  uncertainty k = 0.651262
        23         8        27        45     9      180.000000        9.671273         2    ;  uncertainty k = 0.270002
        23         8        27        45     9        0.000000        1.250032         3    ;  uncertainty k = 0.560498
        23         8        27        45     9      180.000000       -0.439126         4    ;  uncertainty k = 0.252088
        26         8        27        45     9        0.000000       12.271417         1    ;  uncertainty k = 0.735991
        26         8        27        45     9      180.000000       10.005551         2    ;  uncertainty k = 0.346537
        26         8        27        45     9        0.000000        1.227642         3    ;  uncertainty k = 0.558392
        26         8        27        45     9      180.000000       -0.522532         4    ;  uncertainty k = 0.158299
        27         9         1        33     9        0.000000       -0.394135         1    ;  uncertainty k = 0.229152
        27         9         1        33     9      180.000000       -0.549909         2    ;  uncertainty k = 0.322323
        27         9         1        33     9        0.000000        0.947267         3    ;  uncertainty k = 0.110078
        27         9         1        33     9      180.000000       -0.274380         4    ;  uncertainty k = 0.069484
        27         9         1        34     9        0.000000       -0.394135         1    ;  uncertainty k = 0.229152
        27         9         1        34     9      180.000000       -0.549909         2    ;  uncertainty k = 0.322323
        27         9         1        34     9        0.000000        0.947267         3    ;  uncertainty k = 0.110078
        27         9         1        34     9      180.000000       -0.274380         4    ;  uncertainty k = 0.069484
        27         9         4        39     9        0.000000       -0.394135         1    ;  uncertainty k = 0.229152
        27         9         4        39     9      180.000000       -0.549909         2    ;  uncertainty k = 0.322323
        27         9         4        39     9        0.000000        0.947267         3    ;  uncertainty k = 0.110078
        27         9         4        39     9      180.000000       -0.274380         4    ;  uncertainty k = 0.069484
        27         9         4        40     9        0.000000       -0.394135         1    ;  uncertainty k = 0.229152
        27         9         4        40     9      180.000000       -0.549909         2    ;  uncertainty k = 0.322323
        27         9         4        40     9        0.000000        0.947267         3    ;  uncertainty k = 0.110078
        27         9         4        40     9      180.000000       -0.274380         4    ;  uncertainty k = 0.069484
        28        13        14        29     9        0.000000        0.032265         1    ;  uncertainty k = 0.250069
        28        13        14        29     9      180.000000        7.287468         2    ;  uncertainty k = 0.427630
        28        13        14        29     9        0.000000       -0.295849         3    ;  uncertainty k = 0.226115
        28        13        14        29     9      180.000000        0.117549         4    ;  uncertainty k = 0.137082
        33         1         2        35     9        0.000000        0.396796         1    ;  uncertainty k = 0.273522
        33         1         2        35     9      180.000000        0.422591         2    ;  uncertainty k = 0.234371
        33         1         2        35     9        0.000000        0.417414         3    ;  uncertainty k = 0.169393
        33         1         2        35     9      180.000000       -0.113859         4    ;  uncertainty k = 0.044529
        33         1         2        36     9        0.000000        0.396796         1    ;  uncertainty k = 0.273522
        33         1         2        36     9      180.000000        0.422591         2    ;  uncertainty k = 0.234371
        33         1         2        36     9        0.000000        0.417414         3    ;  uncertainty k = 0.169393
        33         1         2        36     9      180.000000       -0.113859         4    ;  uncertainty k = 0.044529
        33         1         2        46     9        0.000000       -1.430084         1    ;  uncertainty k = 0.594090
        33         1         2        46     9      180.000000       -1.341681         2    ;  uncertainty k = 0.501856
        33         1         2        46     9        0.000000        0.398410         3    ;  uncertainty k = 0.150450
        33         1         2        46     9      180.000000       -0.078936         4    ;  uncertainty k = 0.167597
        33         1         9        41     9        0.000000        1.182766         1    ;  uncertainty k = 0.429251
        33         1         9        41     9      180.000000       -0.235987         2    ;  uncertainty k = 0.232475
        33         1         9        41     9        0.000000        0.059238         3    ;  uncertainty k = 0.085939
        33         1         9        41     9      180.000000        0.056056         4    ;  uncertainty k = 0.038706
        34         1         2        35     9        0.000000        0.396796         1    ;  uncertainty k = 0.273522
        34         1         2        35     9      180.000000        0.422591         2    ;  uncertainty k = 0.234371
        34         1         2        35     9        0.000000        0.417414         3    ;  uncertainty k = 0.169393
        34         1         2        35     9      180.000000       -0.113859         4    ;  uncertainty k = 0.044529
        34         1         2        36     9        0.000000        0.396796         1    ;  uncertainty k = 0.273522
        34         1         2        36     9      180.000000        0.422591         2    ;  uncertainty k = 0.234371
        34         1         2        36     9        0.000000        0.417414         3    ;  uncertainty k = 0.169393
        34         1         2        36     9      180.000000       -0.113859         4    ;  uncertainty k = 0.044529
        34         1         2        46     9        0.000000       -1.430084         1    ;  uncertainty k = 0.594090
        34         1         2        46     9      180.000000       -1.341681         2    ;  uncertainty k = 0.501856
        34         1         2        46     9        0.000000        0.398410         3    ;  uncertainty k = 0.150450
        34         1         2        46     9      180.000000       -0.078936         4    ;  uncertainty k = 0.167597
        34         1         9        41     9        0.000000        1.182766         1    ;  uncertainty k = 0.429251
        34         1         9        41     9      180.000000       -0.235987         2    ;  uncertainty k = 0.232475
        34         1         9        41     9        0.000000        0.059238         3    ;  uncertainty k = 0.085939
        34         1         9        41     9      180.000000        0.056056         4    ;  uncertainty k = 0.038706
        35         2        46        47     9        0.000000        0.178686         1    ;  uncertainty k = 0.472578
        35         2        46        47     9      180.000000       -0.630485         2    ;  uncertainty k = 0.307162
        35         2        46        47     9        0.000000        0.577002         3    ;  uncertainty k = 0.169287
        35         2        46        47     9      180.000000        0.058784         4    ;  uncertainty k = 0.095225
        35         2        46        48     9        0.000000        0.178686         1    ;  uncertainty k = 0.472578
        35         2        46        48     9      180.000000       -0.630485         2    ;  uncertainty k = 0.307162
        35         2        46        48     9        0.000000        0.577002         3    ;  uncertainty k = 0.169287
        35         2        46        48     9      180.000000        0.058784         4    ;  uncertainty k = 0.095225
        36         2        46        47     9        0.000000        0.178686         1    ;  uncertainty k = 0.472578
        36         2        46        47     9      180.000000       -0.630485         2    ;  uncertainty k = 0.307162
        36         2        46        47     9        0.000000        0.577002         3    ;  uncertainty k = 0.169287
        36         2        46        47     9      180.000000        0.058784         4    ;  uncertainty k = 0.095225
        36         2        46        48     9        0.000000        0.178686         1    ;  uncertainty k = 0.472578
        36         2        46        48     9      180.000000       -0.630485         2    ;  uncertainty k = 0.307162
        36         2        46        48     9        0.000000        0.577002         3    ;  uncertainty k = 0.169287
        36         2        46        48     9      180.000000        0.058784         4    ;  uncertainty k = 0.095225
        37         3         4        39     9        0.000000        0.396796         1    ;  uncertainty k = 0.273522
        37         3         4        39     9      180.000000        0.422591         2    ;  uncertainty k = 0.234371
        37         3         4        39     9        0.000000        0.417414         3    ;  uncertainty k = 0.169393
        37         3         4        39     9      180.000000       -0.113859         4    ;  uncertainty k = 0.044529
        37         3         4        40     9        0.000000        0.396796         1    ;  uncertainty k = 0.273522
        37         3         4        40     9      180.000000        0.422591         2    ;  uncertainty k = 0.234371
        37         3         4        40     9        0.000000        0.417414         3    ;  uncertainty k = 0.169393
        37         3         4        40     9      180.000000       -0.113859         4    ;  uncertainty k = 0.044529
        37         3        46        47     9        0.000000        0.178686         1    ;  uncertainty k = 0.472578
        37         3        46        47     9      180.000000       -0.630485         2    ;  uncertainty k = 0.307162
        37         3        46        47     9        0.000000        0.577002         3    ;  uncertainty k = 0.169287
        37         3        46        47     9      180.000000        0.058784         4    ;  uncertainty k = 0.095225
        37         3        46        48     9        0.000000        0.178686         1    ;  uncertainty k = 0.472578
        37         3        46        48     9      180.000000       -0.630485         2    ;  uncertainty k = 0.307162
        37         3        46        48     9        0.000000        0.577002         3    ;  uncertainty k = 0.169287
        37         3        46        48     9      180.000000        0.058784         4    ;  uncertainty k = 0.095225
        38         3         4        39     9        0.000000        0.396796         1    ;  uncertainty k = 0.273522
        38         3         4        39     9      180.000000        0.422591         2    ;  uncertainty k = 0.234371
        38         3         4        39     9        0.000000        0.417414         3    ;  uncertainty k = 0.169393
        38         3         4        39     9      180.000000       -0.113859         4    ;  uncertainty k = 0.044529
        38         3         4        40     9        0.000000        0.396796         1    ;  uncertainty k = 0.273522
        38         3         4        40     9      180.000000        0.422591         2    ;  uncertainty k = 0.234371
        38         3         4        40     9        0.000000        0.417414         3    ;  uncertainty k = 0.169393
        38         3         4        40     9      180.000000       -0.113859         4    ;  uncertainty k = 0.044529
        38         3        46        47     9        0.000000        0.178686         1    ;  uncertainty k = 0.472578
        38         3        46        47     9      180.000000       -0.630485         2    ;  uncertainty k = 0.307162
        38         3        46        47     9        0.000000        0.577002         3    ;  uncertainty k = 0.169287
        38         3        46        47     9      180.000000        0.058784         4    ;  uncertainty k = 0.095225
        38         3        46        48     9        0.000000        0.178686         1    ;  uncertainty k = 0.472578
        38         3        46        48     9      180.000000       -0.630485         2    ;  uncertainty k = 0.307162
        38         3        46        48     9        0.000000        0.577002         3    ;  uncertainty k = 0.169287
        38         3        46        48     9      180.000000        0.058784         4    ;  uncertainty k = 0.095225
        39         4         3        46     9        0.000000       -1.430084         1    ;  uncertainty k = 0.594090
        39         4         3        46     9      180.000000       -1.341681         2    ;  uncertainty k = 0.501856
        39         4         3        46     9        0.000000        0.398410         3    ;  uncertainty k = 0.150450
        39         4         3        46     9      180.000000       -0.078936         4    ;  uncertainty k = 0.167597
        39         4         9        41     9        0.000000        1.182766         1    ;  uncertainty k = 0.429251
        39         4         9        41     9      180.000000       -0.235987         2    ;  uncertainty k = 0.232475
        39         4         9        41     9        0.000000        0.059238         3    ;  uncertainty k = 0.085939
        39         4         9        41     9      180.000000        0.056056         4    ;  uncertainty k = 0.038706
        40         4         3        46     9        0.000000       -1.430084         1    ;  uncertainty k = 0.594090
        40         4         3        46     9      180.000000       -1.341681         2    ;  uncertainty k = 0.501856
        40         4         3        46     9        0.000000        0.398410         3    ;  uncertainty k = 0.150450
        40         4         3        46     9      180.000000       -0.078936         4    ;  uncertainty k = 0.167597
        40         4         9        41     9        0.000000        1.182766         1    ;  uncertainty k = 0.429251
        40         4         9        41     9      180.000000       -0.235987         2    ;  uncertainty k = 0.232475
        40         4         9        41     9        0.000000        0.059238         3    ;  uncertainty k = 0.085939
        40         4         9        41     9      180.000000        0.056056         4    ;  uncertainty k = 0.038706
        41         9        27        45     9        0.000000        1.336046         1    ;  uncertainty k = 0.732500
        41         9        27        45     9      180.000000       -1.782696         2    ;  uncertainty k = 0.139601
        41         9        27        45     9        0.000000        0.000315         3    ;  uncertainty k = 0.079029
        41         9        27        45     9      180.000000        0.148525         4    ;  uncertainty k = 0.081372

[ dihedrals ] ; impropers
;       ai        aj        ak        al funct           phase               k        pn
         5         7        12        30     4      180.000000        1.109680         2    ;  uncertainty k = 0.271256
         5        12        30         7     4      180.000000        1.109680         2    ;  uncertainty k = 0.271256
         5        30         7        12     4      180.000000        1.109680         2    ;  uncertainty k = 0.271256
         6        17        24        25     4      180.000000       48.355208         2    ;  uncertainty k = 0.046756
         6        24        25        17     4      180.000000       48.355208         2    ;  uncertainty k = 0.046756
         6        25        17        24     4      180.000000       48.355208         2    ;  uncertainty k = 0.046756
         7         5        18        20     4      180.000000       14.318672         2    ;  uncertainty k = 0.052158
         7        18        20         5     4      180.000000       14.318672         2    ;  uncertainty k = 0.052158
         7        20         5        18     4      180.000000       14.318672         2    ;  uncertainty k = 0.052158
         8        23        26        27     4      180.000000       45.920059         2    ;  uncertainty k = 0.099759
         8        26        27        23     4      180.000000       45.920059         2    ;  uncertainty k = 0.099759
         8        27        23        26     4      180.000000       45.920059         2    ;  uncertainty k = 0.099759
        10        11        15        16     4      180.000000        3.588201         2    ;  uncertainty k = 0.560292
        10        15        16        11     4      180.000000        3.588201         2    ;  uncertainty k = 0.560292
        10        16        11        15     4      180.000000        3.588201         2    ;  uncertainty k = 0.560292
        11        10        17        31     4      180.000000        7.429066         2    ;  uncertainty k = 0.367060
        11        17        31        10     4      180.000000        7.429066         2    ;  uncertainty k = 0.367060
        11        31        10        17     4      180.000000        7.429066         2    ;  uncertainty k = 0.367060
        12         5        13        21     4      180.000000       17.110314         2    ;  uncertainty k = 0.053382
        12        13        21         5     4      180.000000       17.110314         2    ;  uncertainty k = 0.053382
        12        21         5        13     4      180.000000       17.110314         2    ;  uncertainty k = 0.053382
        13        12        14        28     4      180.000000        2.090574         2    ;  uncertainty k = 0.191083
        13        14        28        12     4      180.000000        2.090574         2    ;  uncertainty k = 0.191083
        13        28        12        14     4      180.000000        2.090574         2    ;  uncertainty k = 0.191083
        14        13        18        29     4      180.000000        3.395592         2    ;  uncertainty k = 0.158338
        14        18        29        13     4      180.000000        3.395592         2    ;  uncertainty k = 0.158338
        14        29        13        18     4      180.000000        3.395592         2    ;  uncertainty k = 0.158338
        15        10        25        26     4      180.000000       30.939001         2    ;  uncertainty k = 0.078078
        15        25        26        10     4      180.000000       30.939001         2    ;  uncertainty k = 0.078078
        15        26        10        25     4      180.000000       30.939001         2    ;  uncertainty k = 0.078078
        16        10        23        32     4      180.000000       16.808059         2    ;  uncertainty k = 0.060652
        16        23        32        10     4      180.000000       16.808059         2    ;  uncertainty k = 0.060652
        16        32        10        23     4      180.000000       16.808059         2    ;  uncertainty k = 0.060652
        17         6        11        22     4      180.000000       13.109836         2    ;  uncertainty k = 0.278814
        17        11        22         6     4      180.000000       13.109836         2    ;  uncertainty k = 0.278814
        17        22         6        11     4      180.000000       13.109836         2    ;  uncertainty k = 0.278814
        18         7        14        22     4      180.000000       11.882712         2    ;  uncertainty k = 0.189067
        18        14        22         7     4      180.000000       11.882712         2    ;  uncertainty k = 0.189067
        18        22         7        14     4      180.000000       11.882712         2    ;  uncertainty k = 0.189067
        25         6        15        19     4      180.000000        3.524428         2    ;  uncertainty k = 0.779434
        25        15        19         6     4      180.000000        3.524428         2    ;  uncertainty k = 0.779434
        25        19         6        15     4      180.000000        3.524428         2    ;  uncertainty k = 0.779434
        27         8         9        45     4      180.000000        0.388402         2    ;  uncertainty k = 0.549380
        27         9        45         8     4      180.000000        0.388402         2    ;  uncertainty k = 0.549380
        27        45         8         9     4      180.000000        0.388402         2    ;  uncertainty k = 0.549380

[ pairs ]
;       ai        aj funct
         1         3     1
         1         8     1
         1        39     1
         1        40     1
         1        45     1
         1        47     1
         1        48     1
         2         4     1
         2        27     1
         2        37     1
         2        38     1
         2        41     1
         3        27     1
         3        35     1
         3        36     1
         3        41     1
         4         8     1
         4        33     1
         4        34     1
         4        45     1
         4        47     1
         4        48     1
         5        14     1
         5        22     1
         5        28     1
         6        10     1
         6        18     1
         6        26     1
         6        31     1
         6        42     1
         6        43     1
         6        44     1
         7        13     1
         7        17     1
         7        21     1
         7        29     1
         8        10     1
         8        25     1
         8        32     1
         8        41     1
         9        23     1
         9        26     1
         9        35     1
         9        36     1
         9        37     1
         9        38     1
         9        46     1
        10        19     1
        10        22     1
        11        18     1
        11        23     1
        11        24     1
        11        25     1
        11        26     1
        11        32     1
        12        18     1
        12        20     1
        12        29     1
        13        22     1
        13        30     1
        14        17     1
        14        20     1
        14        21     1
        15        17     1
        15        23     1
        15        24     1
        15        27     1
        15        31     1
        15        32     1
        15        42     1
        15        43     1
        15        44     1
        16        17     1
        16        25     1
        16        26     1
        16        27     1
        16        31     1
        17        19     1
        18        28     1
        18        30     1
        19        24     1
        19        26     1
        20        22     1
        20        30     1
        21        28     1
        21        30     1
        22        24     1
        22        25     1
        22        29     1
        22        31     1
        23        45     1
        26        45     1
        27        33     1
        27        34     1
        27        39     1
        27        40     1
        28        29     1
        33        35     1
        33        36     1
        33        41     1
        33        46     1
        34        35     1
        34        36     1
        34        41     1
        34        46     1
        35        47     1
        35        48     1
        36        47     1
        36        48     1
        37        39     1
        37        40     1
        37        47     1
        37        48     1
        38        39     1
        38        40     1
        38        47     1
        38        48     1
        39        41     1
        39        46     1
        40        41     1
        40        46     1
        41        45     1
