; ITP file created by ByteFF-joint-25, 2026-02-17 09:25:36.600395

[ atomtypes ]
;name           bonded.type        at.num        mass        charge   ptype           sigma         epsilon
 c0bf                                   6      0.0000       0.00000       A     3.39787e-01     4.51000e-01    ;  uncertainty sigma = 0.000007, epsilon = 0.000697
 c1bf                                   6      0.0000       0.00000       A     3.39778e-01     4.50893e-01    ;  uncertainty sigma = 0.000003, epsilon = 0.000829
 c2bf                                   6      0.0000       0.00000       A     3.39778e-01     4.50893e-01    ;  uncertainty sigma = 0.000003, epsilon = 0.000829
 c3bf                                   6      0.0000       0.00000       A     3.39787e-01     4.51000e-01    ;  uncertainty sigma = 0.000007, epsilon = 0.000697
 c4bf                                   6      0.0000       0.00000       A     3.31524e-01     4.13368e-01    ;  uncertainty sigma = 0.000005, epsilon = 0.000527
 o5bf                                   8      0.0000       0.00000       A     3.15613e-01     3.03556e-01    ;  uncertainty sigma = 0.000019, epsilon = 0.001085
 c6bf                                   6      0.0000       0.00000       A     3.31544e-01     4.13207e-01    ;  uncertainty sigma = 0.000014, epsilon = 0.001011
 c7bf                                   6      0.0000       0.00000       A     3.31523e-01     4.13025e-01    ;  uncertainty sigma = 0.000007, epsilon = 0.000434
 c8bf                                   6      0.0000       0.00000       A     3.31531e-01     4.13819e-01    ;  uncertainty sigma = 0.000011, epsilon = 0.000840
 c9bf                                   6      0.0000       0.00000       A     3.39779e-01     4.51067e-01    ;  uncertainty sigma = 0.000013, epsilon = 0.000925
 c10bf                                  6      0.0000       0.00000       A     3.31535e-01     4.13334e-01    ;  uncertainty sigma = 0.000021, epsilon = 0.001098
 c11bf                                  6      0.0000       0.00000       A     3.31493e-01     4.13510e-01    ;  uncertainty sigma = 0.000014, epsilon = 0.000953
 c12bf                                  6      0.0000       0.00000       A     3.31520e-01     4.13453e-01    ;  uncertainty sigma = 0.000005, epsilon = 0.000598
 c13bf                                  6      0.0000       0.00000       A     3.31519e-01     4.13396e-01    ;  uncertainty sigma = 0.000003, epsilon = 0.000474
 c14bf                                  6      0.0000       0.00000       A     3.31517e-01     4.13283e-01    ;  uncertainty sigma = 0.000008, epsilon = 0.000698
 c15bf                                  6      0.0000       0.00000       A     3.31528e-01     4.12952e-01    ;  uncertainty sigma = 0.000017, epsilon = 0.001923
 c16bf                                  6      0.0000       0.00000       A     3.31541e-01     4.13656e-01    ;  uncertainty sigma = 0.000007, epsilon = 0.001362
 c17bf                                  6      0.0000       0.00000       A     3.31580e-01     4.13365e-01    ;  uncertainty sigma = 0.000026, epsilon = 0.001996
 c18bf                                  6      0.0000       0.00000       A     3.31538e-01     4.13418e-01    ;  uncertainty sigma = 0.000008, epsilon = 0.000766
 c19bf                                  6      0.0000       0.00000       A     3.39765e-01     4.51325e-01    ;  uncertainty sigma = 0.000006, epsilon = 0.000630
 f20bf                                  9      0.0000       0.00000       A     3.03471e-01     3.48624e-01    ;  uncertainty sigma = 0.000025, epsilon = 0.000764
 s21bf                                 16      0.0000       0.00000       A     3.53103e-01     1.18095e+00    ;  uncertainty sigma = 0.000047, epsilon = 0.001987
 n22bf                                  7      0.0000       0.00000       A     3.38435e-01     3.93631e-01    ;  uncertainty sigma = 0.000019, epsilon = 0.001026
 o23bf                                  8      0.0000       0.00000       A     3.04816e-01     6.11855e-01    ;  uncertainty sigma = 0.000010, epsilon = 0.000670
 n24bf                                  7      0.0000       0.00000       A     3.18153e-01     6.82946e-01    ;  uncertainty sigma = 0.000028, epsilon = 0.001978
 n25bf                                  7      0.0000       0.00000       A     3.38438e-01     3.93028e-01    ;  uncertainty sigma = 0.000048, epsilon = 0.001683
 n26bf                                  7      0.0000       0.00000       A     3.27898e-01     6.46446e-01    ;  uncertainty sigma = 0.000031, epsilon = 0.005668
 h27bf                                  1      0.0000       0.00000       A     2.62562e-01     6.70091e-02    ;  uncertainty sigma = 0.000010, epsilon = 0.000462
 h28bf                                  1      0.0000       0.00000       A     2.62566e-01     6.71637e-02    ;  uncertainty sigma = 0.000010, epsilon = 0.000466
 h29bf                                  1      0.0000       0.00000       A     2.62564e-01     6.70591e-02    ;  uncertainty sigma = 0.000008, epsilon = 0.000434
 h30bf                                  1      0.0000       0.00000       A     2.62582e-01     6.65771e-02    ;  uncertainty sigma = 0.000014, epsilon = 0.000460
 h31bf                                  1      0.0000       0.00000       A     2.53663e-01     6.71784e-02    ;  uncertainty sigma = 0.000041, epsilon = 0.000925
 h32bf                                  1      0.0000       0.00000       A     2.60021e-01     8.67662e-02    ;  uncertainty sigma = 0.000009, epsilon = 0.000445
 h33bf                                  1      0.0000       0.00000       A     2.60021e-01     8.67662e-02    ;  uncertainty sigma = 0.000009, epsilon = 0.000445
 h34bf                                  1      0.0000       0.00000       A     2.42188e-01     8.67182e-02    ;  uncertainty sigma = 0.000018, epsilon = 0.000739
 h35bf                                  1      0.0000       0.00000       A     2.42188e-01     8.67182e-02    ;  uncertainty sigma = 0.000018, epsilon = 0.000739
 h36bf                                  1      0.0000       0.00000       A     2.42188e-01     8.67182e-02    ;  uncertainty sigma = 0.000018, epsilon = 0.000739
 h37bf                                  1      0.0000       0.00000       A     2.42188e-01     8.67182e-02    ;  uncertainty sigma = 0.000018, epsilon = 0.000739
 h38bf                                  1      0.0000       0.00000       A     2.60021e-01     8.67662e-02    ;  uncertainty sigma = 0.000009, epsilon = 0.000445
 h39bf                                  1      0.0000       0.00000       A     2.60021e-01     8.67662e-02    ;  uncertainty sigma = 0.000009, epsilon = 0.000445
 h40bf                                  1      0.0000       0.00000       A     2.42212e-01     8.65673e-02    ;  uncertainty sigma = 0.000016, epsilon = 0.000625
 h41bf                                  1      0.0000       0.00000       A     2.42206e-01     8.67704e-02    ;  uncertainty sigma = 0.000014, epsilon = 0.000617
 h42bf                                  1      0.0000       0.00000       A     2.42206e-01     8.67704e-02    ;  uncertainty sigma = 0.000014, epsilon = 0.000617
 h43bf                                  1      0.0000       0.00000       A     2.42206e-01     8.67704e-02    ;  uncertainty sigma = 0.000014, epsilon = 0.000617
 h44bf                                  1      0.0000       0.00000       A     1.10703e-01     4.14049e-02    ;  uncertainty sigma = 0.000035, epsilon = 0.000993
 h45bf                                  1      0.0000       0.00000       A     2.62560e-01     6.69792e-02    ;  uncertainty sigma = 0.000009, epsilon = 0.000524

[ moleculetype ]
;name             nrexcl
 MOL                   3

[ atoms ]
;       nr            type      resi   res      atom      cgnr      charge          mass ; qtot
         1            c0bf         1   UNL        c0         1    -0.12711       12.0110 ; qtot   -0.127
         2            c1bf         1   UNL        c1         2     0.13209       12.0110 ; qtot    0.005
         3            c2bf         1   UNL        c2         3     0.13209       12.0110 ; qtot    0.137
         4            c3bf         1   UNL        c3         4    -0.12711       12.0110 ; qtot    0.010
         5            c4bf         1   UNL        c4         5    -0.17423       12.0110 ; qtot   -0.164
         6            o5bf         1   UNL        o5         6    -0.41527       15.9990 ; qtot   -0.580
         7            c6bf         1   UNL        c6         7     0.71734       12.0110 ; qtot    0.138
         8            c7bf         1   UNL        c7         8     0.16117       12.0110 ; qtot    0.299
         9            c8bf         1   UNL        c8         9     0.92634       12.0110 ; qtot    1.225
        10            c9bf         1   UNL        c9        10     0.24784       12.0110 ; qtot    1.473
        11           c10bf         1   UNL       c10        11    -0.43510       12.0110 ; qtot    1.038
        12           c11bf         1   UNL       c11        12     0.02746       12.0110 ; qtot    1.066
        13           c12bf         1   UNL       c12        13    -0.08451       12.0110 ; qtot    0.981
        14           c13bf         1   UNL       c13        14    -0.15087       12.0110 ; qtot    0.830
        15           c14bf         1   UNL       c14        15    -0.07057       12.0110 ; qtot    0.760
        16           c15bf         1   UNL       c15        16     0.64729       12.0110 ; qtot    1.407
        17           c16bf         1   UNL       c16        17     0.53152       12.0110 ; qtot    1.938
        18           c17bf         1   UNL       c17        18    -0.10776       12.0110 ; qtot    1.831
        19           c18bf         1   UNL       c18        19    -0.04301       12.0110 ; qtot    1.788
        20           c19bf         1   UNL       c19        20     0.08149       12.0110 ; qtot    1.869
        21           f20bf         1   UNL       f20        21    -0.13608       18.9980 ; qtot    1.733
        22           s21bf         1   UNL       s21        22    -0.14241       32.0670 ; qtot    1.591
        23           n22bf         1   UNL       n22        23    -0.77123       14.0070 ; qtot    0.819
        24           o23bf         1   UNL       o23        24    -0.59470       15.9990 ; qtot    0.225
        25           n24bf         1   UNL       n24        25    -0.44082       14.0070 ; qtot   -0.216
        26           n25bf         1   UNL       n25        26    -0.82997       14.0070 ; qtot   -1.046
        27           n26bf         1   UNL       n26        27    -0.86394       14.0070 ; qtot   -1.910
        28           h27bf         1   UNL       h27        28     0.13998        1.0080 ; qtot   -1.770
        29           h28bf         1   UNL       h28        29     0.14776        1.0080 ; qtot   -1.622
        30           h29bf         1   UNL       h29        30     0.15443        1.0080 ; qtot   -1.468
        31           h30bf         1   UNL       h30        31     0.15859        1.0080 ; qtot   -1.309
        32           h31bf         1   UNL       h31        32     0.03261        1.0080 ; qtot   -1.277
        33           h32bf         1   UNL       h32        33     0.05892        1.0080 ; qtot   -1.218
        34           h33bf         1   UNL       h33        34     0.05892        1.0080 ; qtot   -1.159
        35           h34bf         1   UNL       h34        35     0.04655        1.0080 ; qtot   -1.112
        36           h35bf         1   UNL       h35        36     0.04655        1.0080 ; qtot   -1.066
        37           h36bf         1   UNL       h36        37     0.04655        1.0080 ; qtot   -1.019
        38           h37bf         1   UNL       h37        38     0.04655        1.0080 ; qtot   -0.973
        39           h38bf         1   UNL       h38        39     0.05892        1.0080 ; qtot   -0.914
        40           h39bf         1   UNL       h39        40     0.05892        1.0080 ; qtot   -0.855
        41           h40bf         1   UNL       h40        41     0.07162        1.0080 ; qtot   -0.783
        42           h41bf         1   UNL       h41        42     0.06369        1.0080 ; qtot   -0.719
        43           h42bf         1   UNL       h42        43     0.06369        1.0080 ; qtot   -0.656
        44           h43bf         1   UNL       h43        44     0.06369        1.0080 ; qtot   -0.592
        45           h44bf         1   UNL       h44        45     0.44845        1.0080 ; qtot   -0.144
        46           h45bf         1   UNL       h45        46     0.14367        1.0080 ; qtot    0.000

[ bonds ]
;       ai        aj funct               r               k
         1         2     1        0.153564   209800.351904    ;  uncertainty r = 0.000030, k = 4.398851
         1        10     1        0.153800   204926.313672    ;  uncertainty r = 0.000079, k = 2.875810
         1        33     1        0.109644   310935.400293    ;  uncertainty r = 0.000023, k = 1.135255
         1        34     1        0.109644   310935.400293    ;  uncertainty r = 0.000023, k = 1.135255
         2         6     1        0.142789   254488.480176    ;  uncertainty r = 0.000039, k = 2.801926
         2        35     1        0.109818   309244.843652    ;  uncertainty r = 0.000020, k = 0.854845
         2        36     1        0.109818   309244.843652    ;  uncertainty r = 0.000020, k = 0.854845
         3         4     1        0.153564   209800.351904    ;  uncertainty r = 0.000030, k = 4.398851
         3         6     1        0.142789   254488.480176    ;  uncertainty r = 0.000039, k = 2.801926
         3        37     1        0.109818   309244.843652    ;  uncertainty r = 0.000020, k = 0.854845
         3        38     1        0.109818   309244.843652    ;  uncertainty r = 0.000020, k = 0.854845
         4        10     1        0.153800   204926.313672    ;  uncertainty r = 0.000079, k = 2.875810
         4        39     1        0.109644   310935.400293    ;  uncertainty r = 0.000023, k = 1.135255
         4        40     1        0.109644   310935.400293    ;  uncertainty r = 0.000023, k = 1.135255
         5         8     1        0.138910   354701.587842    ;  uncertainty r = 0.000076, k = 3.904923
         5        13     1        0.139455   377722.244922    ;  uncertainty r = 0.000035, k = 2.414692
         5        30     1        0.108780   336185.983301    ;  uncertainty r = 0.000010, k = 1.191979
         7        18     1        0.147213   236504.966846    ;  uncertainty r = 0.000309, k = 29.583095
         7        24     1        0.123231   682161.004590    ;  uncertainty r = 0.000094, k = 8.166423
         7        25     1        0.141434   226113.865967    ;  uncertainty r = 0.000191, k = 34.601608
         8        19     1        0.139520   349693.045654    ;  uncertainty r = 0.000056, k = 4.237890
         8        21     1        0.135098   337332.727197    ;  uncertainty r = 0.000045, k = 3.716342
         9        23     1        0.136645   531258.701172    ;  uncertainty r = 0.000130, k = 16.870211
         9        26     1        0.135678   614123.250195    ;  uncertainty r = 0.000161, k = 23.470429
         9        27     1        0.138336   585582.108496    ;  uncertainty r = 0.000160, k = 23.152169
        10        27     1        0.145807   240009.066846    ;  uncertainty r = 0.000132, k = 9.981095
        10        41     1        0.109351   304415.163379    ;  uncertainty r = 0.000015, k = 2.578074
        11        12     1        0.142580   263679.592285    ;  uncertainty r = 0.000154, k = 17.445845
        11        16     1        0.142519   414832.159375    ;  uncertainty r = 0.000122, k = 16.868777
        11        17     1        0.140684   403730.513965    ;  uncertainty r = 0.000107, k = 17.508840
        12        18     1        0.136001   410456.886426    ;  uncertainty r = 0.000147, k = 14.048298
        12        31     1        0.108690   332588.366406    ;  uncertainty r = 0.000040, k = 3.295109
        13        14     1        0.139629   373098.674658    ;  uncertainty r = 0.000013, k = 2.019850
        13        46     1        0.108742   333984.378027    ;  uncertainty r = 0.000011, k = 1.029070
        14        15     1        0.139366   369258.633984    ;  uncertainty r = 0.000026, k = 1.251711
        14        28     1        0.108787   333794.101025    ;  uncertainty r = 0.000016, k = 1.338425
        15        19     1        0.140070   356078.497705    ;  uncertainty r = 0.000058, k = 2.379654
        15        29     1        0.108731   333284.814453    ;  uncertainty r = 0.000044, k = 2.210092
        16        25     1        0.137597   257273.250879    ;  uncertainty r = 0.000055, k = 6.475768
        16        26     1        0.133987   453343.039648    ;  uncertainty r = 0.000199, k = 18.373451
        17        23     1        0.133188   406035.799902    ;  uncertainty r = 0.000078, k = 8.601341
        17        32     1        0.108905   328243.457080    ;  uncertainty r = 0.000028, k = 1.261634
        18        22     1        0.177123   189459.980444    ;  uncertainty r = 0.000124, k = 18.118018
        19        22     1        0.178731   196961.825537    ;  uncertainty r = 0.000108, k = 10.164013
        20        25     1        0.146444   262807.602148    ;  uncertainty r = 0.000063, k = 14.006964
        20        42     1        0.109130   308240.111621    ;  uncertainty r = 0.000011, k = 1.573918
        20        43     1        0.109130   308240.111621    ;  uncertainty r = 0.000011, k = 1.573918
        20        44     1        0.109130   308240.111621    ;  uncertainty r = 0.000011, k = 1.573918
        27        45     1        0.102176   435698.173926    ;  uncertainty r = 0.000065, k = 4.933124

[ angles ]
;       ai        aj        ak funct           theta             cth
         1         2         6     1      111.446632      714.965579    ;  uncertainty theta = 0.001347, k = 0.063500
         1         2        35     1      109.920456      408.541080    ;  uncertainty theta = 0.002019, k = 0.035643
         1         2        36     1      109.920456      408.541080    ;  uncertainty theta = 0.002019, k = 0.035643
         1        10         4     1      108.571205      585.454959    ;  uncertainty theta = 0.002684, k = 0.080004
         1        10        27     1      110.695145      629.201113    ;  uncertainty theta = 0.003363, k = 0.060631
         1        10        41     1      108.629013      407.998416    ;  uncertainty theta = 0.002420, k = 0.060827
         2         1        10     1      109.739159      566.930979    ;  uncertainty theta = 0.002556, k = 0.101379
         2         1        33     1      108.721451      397.694448    ;  uncertainty theta = 0.000995, k = 0.058468
         2         1        34     1      108.721451      397.694448    ;  uncertainty theta = 0.000995, k = 0.058468
         2         6         3     1      109.309448      562.168308    ;  uncertainty theta = 0.002274, k = 0.150711
         3         4        10     1      109.739159      566.930979    ;  uncertainty theta = 0.002556, k = 0.101379
         3         4        39     1      108.721451      397.694448    ;  uncertainty theta = 0.000995, k = 0.058468
         3         4        40     1      108.721451      397.694448    ;  uncertainty theta = 0.000995, k = 0.058468
         4         3         6     1      111.446632      714.965579    ;  uncertainty theta = 0.001347, k = 0.063500
         4         3        37     1      109.920456      408.541080    ;  uncertainty theta = 0.002019, k = 0.035643
         4         3        38     1      109.920456      408.541080    ;  uncertainty theta = 0.002019, k = 0.035643
         4        10        27     1      110.695145      629.201113    ;  uncertainty theta = 0.003363, k = 0.060631
         4        10        41     1      108.629013      407.998416    ;  uncertainty theta = 0.002420, k = 0.060827
         5         8        19     1      123.800156      372.772496    ;  uncertainty theta = 0.004279, k = 0.136776
         5         8        21     1      118.907310      524.699590    ;  uncertainty theta = 0.001070, k = 0.135363
         5        13        14     1      119.487900      524.908197    ;  uncertainty theta = 0.001397, k = 0.051347
         5        13        46     1      119.832092      285.499871    ;  uncertainty theta = 0.000924, k = 0.035468
         6         2        35     1      107.077614      463.773059    ;  uncertainty theta = 0.001757, k = 0.022995
         6         2        36     1      107.077614      463.773059    ;  uncertainty theta = 0.001757, k = 0.022995
         6         3        37     1      107.077614      463.773059    ;  uncertainty theta = 0.001757, k = 0.022995
         6         3        38     1      107.077614      463.773059    ;  uncertainty theta = 0.001757, k = 0.022995
         7        18        12     1      123.685501      447.640246    ;  uncertainty theta = 0.006523, k = 0.212974
         7        18        22     1      111.545006      361.403183    ;  uncertainty theta = 0.011536, k = 0.295121
         7        25        16     1      122.048340      481.412051    ;  uncertainty theta = 0.006333, k = 0.055632
         7        25        20     1      115.654274      415.281025    ;  uncertainty theta = 0.007054, k = 0.261662
         8         5        13     1      118.512405      482.441261    ;  uncertainty theta = 0.002719, k = 0.146730
         8         5        30     1      119.672256      279.820290    ;  uncertainty theta = 0.002193, k = 0.080225
         8        19        15     1      119.222069      372.979378    ;  uncertainty theta = 0.003012, k = 0.154224
         8        19        22     1      120.045166      341.609784    ;  uncertainty theta = 0.005844, k = 0.207139
         9        23        17     1      116.283020      405.708057    ;  uncertainty theta = 0.008796, k = 0.296959
         9        26        16     1      117.261574      451.841260    ;  uncertainty theta = 0.007678, k = 0.198258
         9        27        10     1      115.769875      413.653066    ;  uncertainty theta = 0.005271, k = 0.143046
         9        27        45     1      116.919144      444.716566    ;  uncertainty theta = 0.004236, k = 0.155196
        10         1        33     1      108.113968      386.815958    ;  uncertainty theta = 0.001236, k = 0.022845
        10         1        34     1      108.113968      386.815958    ;  uncertainty theta = 0.001236, k = 0.022845
        10         4        39     1      108.113968      386.815958    ;  uncertainty theta = 0.001236, k = 0.022845
        10         4        40     1      108.113968      386.815958    ;  uncertainty theta = 0.001236, k = 0.022845
        10        27        45     1      112.314087      333.078060    ;  uncertainty theta = 0.005154, k = 0.136963
        11        12        18     1      122.109047      520.576081    ;  uncertainty theta = 0.003177, k = 0.198877
        11        12        31     1      117.826927      256.630025    ;  uncertainty theta = 0.004405, k = 0.352088
        11        16        25     1      117.820236      486.568409    ;  uncertainty theta = 0.007065, k = 0.129182
        11        16        26     1      122.831032      549.587706    ;  uncertainty theta = 0.005554, k = 0.159724
        11        17        23     1      122.682762      741.508276    ;  uncertainty theta = 0.001282, k = 0.185897
        11        17        32     1      120.071495      261.131452    ;  uncertainty theta = 0.004007, k = 0.121751
        12        11        16     1      119.852051      441.874126    ;  uncertainty theta = 0.012657, k = 0.259632
        12        11        17     1      123.319290      412.761342    ;  uncertainty theta = 0.006849, k = 0.136705
        12        18        22     1      124.578407      338.461346    ;  uncertainty theta = 0.009206, k = 0.267351
        13         5        30     1      121.918594      283.516500    ;  uncertainty theta = 0.002182, k = 0.033360
        13        14        15     1      118.974136      516.289869    ;  uncertainty theta = 0.000681, k = 0.090462
        13        14        28     1      120.715927      288.207667    ;  uncertainty theta = 0.002550, k = 0.025614
        14        13        46     1      120.630905      287.797956    ;  uncertainty theta = 0.001124, k = 0.023333
        14        15        19     1      120.712646      521.907778    ;  uncertainty theta = 0.001249, k = 0.074511
        14        15        29     1      120.718224      288.104944    ;  uncertainty theta = 0.001832, k = 0.051945
        15        14        28     1      120.104492      286.504788    ;  uncertainty theta = 0.003044, k = 0.034578
        15        19        22     1      123.405617      347.360582    ;  uncertainty theta = 0.004688, k = 0.259343
        16        11        17     1      117.898560      428.456609    ;  uncertainty theta = 0.003896, k = 0.225072
        16        25        20     1      116.058739      435.603489    ;  uncertainty theta = 0.006724, k = 0.175956
        18         7        24     1      123.994934      493.424101    ;  uncertainty theta = 0.005171, k = 0.107589
        18         7        25     1      115.679855      335.665799    ;  uncertainty theta = 0.008379, k = 0.427067
        18        12        31     1      121.501503      272.133205    ;  uncertainty theta = 0.004944, k = 0.193724
        18        22        19     1       97.650314      633.723416    ;  uncertainty theta = 0.004746, k = 0.251604
        19         8        21     1      118.206444      485.178679    ;  uncertainty theta = 0.002016, k = 0.045757
        19        15        29     1      119.060913      277.691996    ;  uncertainty theta = 0.001681, k = 0.073748
        23         9        26     1      128.682663      742.959167    ;  uncertainty theta = 0.002344, k = 0.092422
        23         9        27     1      120.633926      828.446109    ;  uncertainty theta = 0.008794, k = 0.131219
        23        17        32     1      117.479721      317.679183    ;  uncertainty theta = 0.003260, k = 0.174269
        24         7        25     1      121.490372      692.103355    ;  uncertainty theta = 0.005252, k = 0.116935
        25        16        26     1      117.389267      580.388907    ;  uncertainty theta = 0.012021, k = 0.179677
        25        20        42     1      107.952225      486.447203    ;  uncertainty theta = 0.001814, k = 0.071782
        25        20        43     1      107.952225      486.447203    ;  uncertainty theta = 0.001814, k = 0.071782
        25        20        44     1      107.952225      486.447203    ;  uncertainty theta = 0.001814, k = 0.071782
        26         9        27     1      121.206215      911.423903    ;  uncertainty theta = 0.007564, k = 0.092378
        27        10        41     1      103.516525      447.268585    ;  uncertainty theta = 0.003472, k = 0.117225
        33         1        34     1      105.438766      311.403087    ;  uncertainty theta = 0.002031, k = 0.016795
        35         2        36     1      106.555054      320.242949    ;  uncertainty theta = 0.001313, k = 0.032691
        37         3        38     1      106.555054      320.242949    ;  uncertainty theta = 0.001313, k = 0.032691
        39         4        40     1      105.438766      311.403087    ;  uncertainty theta = 0.002031, k = 0.016795
        42        20        43     1      107.451309      326.070326    ;  uncertainty theta = 0.002172, k = 0.056366
        42        20        44     1      107.451309      326.070326    ;  uncertainty theta = 0.002172, k = 0.056366
        43        20        44     1      107.451309      326.070326    ;  uncertainty theta = 0.002172, k = 0.056366

[ dihedrals ] ; propers for gromacs 4.5 or higher, use funct 9
;       ai        aj        ak        al funct           phase               k        pn
         1         2         6         3     9        0.000000       -3.090920         1    ;  uncertainty k = 1.764724
         1         2         6         3     9      180.000000        0.099646         2    ;  uncertainty k = 1.147879
         1         2         6         3     9        0.000000        0.937069         3    ;  uncertainty k = 0.257053
         1         2         6         3     9      180.000000       -0.348700         4    ;  uncertainty k = 0.188482
         1        10         4         3     9        0.000000       -7.182169         1    ;  uncertainty k = 1.160296
         1        10         4         3     9      180.000000        0.651721         2    ;  uncertainty k = 0.689258
         1        10         4         3     9        0.000000        1.337200         3    ;  uncertainty k = 0.165866
         1        10         4         3     9      180.000000       -1.433186         4    ;  uncertainty k = 0.219126
         1        10         4        39     9        0.000000       -1.858871         1    ;  uncertainty k = 0.333669
         1        10         4        39     9      180.000000       -0.004379         2    ;  uncertainty k = 0.147655
         1        10         4        39     9        0.000000        0.298804         3    ;  uncertainty k = 0.155785
         1        10         4        39     9      180.000000       -0.141300         4    ;  uncertainty k = 0.079428
         1        10         4        40     9        0.000000       -1.858871         1    ;  uncertainty k = 0.333669
         1        10         4        40     9      180.000000       -0.004379         2    ;  uncertainty k = 0.147655
         1        10         4        40     9        0.000000        0.298804         3    ;  uncertainty k = 0.155785
         1        10         4        40     9      180.000000       -0.141300         4    ;  uncertainty k = 0.079428
         1        10        27         9     9        0.000000       -2.505166         1    ;  uncertainty k = 0.386991
         1        10        27         9     9      180.000000        0.497922         2    ;  uncertainty k = 0.198475
         1        10        27         9     9        0.000000        0.367323         3    ;  uncertainty k = 0.126648
         1        10        27         9     9      180.000000        0.361622         4    ;  uncertainty k = 0.081112
         1        10        27        45     9        0.000000        2.787690         1    ;  uncertainty k = 0.893880
         1        10        27        45     9      180.000000       -0.663636         2    ;  uncertainty k = 0.236091
         1        10        27        45     9        0.000000        0.218247         3    ;  uncertainty k = 0.119918
         1        10        27        45     9      180.000000        0.123444         4    ;  uncertainty k = 0.073281
         2         1        10         4     9        0.000000       -7.182169         1    ;  uncertainty k = 1.160296
         2         1        10         4     9      180.000000        0.651721         2    ;  uncertainty k = 0.689258
         2         1        10         4     9        0.000000        1.337200         3    ;  uncertainty k = 0.165866
         2         1        10         4     9      180.000000       -1.433186         4    ;  uncertainty k = 0.219126
         2         1        10        27     9        0.000000       -4.805352         1    ;  uncertainty k = 0.699431
         2         1        10        27     9      180.000000       -0.187719         2    ;  uncertainty k = 0.333371
         2         1        10        27     9        0.000000        1.016385         3    ;  uncertainty k = 0.162984
         2         1        10        27     9      180.000000       -0.078100         4    ;  uncertainty k = 0.195994
         2         1        10        41     9        0.000000       -1.687319         1    ;  uncertainty k = 0.555497
         2         1        10        41     9      180.000000       -0.643722         2    ;  uncertainty k = 0.388884
         2         1        10        41     9        0.000000        0.030461         3    ;  uncertainty k = 0.099395
         2         1        10        41     9      180.000000       -0.147535         4    ;  uncertainty k = 0.108264
         2         6         3         4     9        0.000000       -3.090920         1    ;  uncertainty k = 1.764724
         2         6         3         4     9      180.000000        0.099646         2    ;  uncertainty k = 1.147879
         2         6         3         4     9        0.000000        0.937069         3    ;  uncertainty k = 0.257053
         2         6         3         4     9      180.000000       -0.348700         4    ;  uncertainty k = 0.188482
         2         6         3        37     9        0.000000       -5.435409         1    ;  uncertainty k = 1.705293
         2         6         3        37     9      180.000000        0.309318         2    ;  uncertainty k = 0.194050
         2         6         3        37     9        0.000000        0.745836         3    ;  uncertainty k = 0.129776
         2         6         3        37     9      180.000000       -0.529315         4    ;  uncertainty k = 0.148432
         2         6         3        38     9        0.000000       -5.435409         1    ;  uncertainty k = 1.705293
         2         6         3        38     9      180.000000        0.309318         2    ;  uncertainty k = 0.194050
         2         6         3        38     9        0.000000        0.745836         3    ;  uncertainty k = 0.129776
         2         6         3        38     9      180.000000       -0.529315         4    ;  uncertainty k = 0.148432
         3         4        10        27     9        0.000000       -4.805352         1    ;  uncertainty k = 0.699431
         3         4        10        27     9      180.000000       -0.187719         2    ;  uncertainty k = 0.333371
         3         4        10        27     9        0.000000        1.016385         3    ;  uncertainty k = 0.162984
         3         4        10        27     9      180.000000       -0.078100         4    ;  uncertainty k = 0.195994
         3         4        10        41     9        0.000000       -1.687319         1    ;  uncertainty k = 0.555497
         3         4        10        41     9      180.000000       -0.643722         2    ;  uncertainty k = 0.388884
         3         4        10        41     9        0.000000        0.030461         3    ;  uncertainty k = 0.099395
         3         4        10        41     9      180.000000       -0.147535         4    ;  uncertainty k = 0.108264
         3         6         2        35     9        0.000000       -5.435409         1    ;  uncertainty k = 1.705293
         3         6         2        35     9      180.000000        0.309318         2    ;  uncertainty k = 0.194050
         3         6         2        35     9        0.000000        0.745836         3    ;  uncertainty k = 0.129776
         3         6         2        35     9      180.000000       -0.529315         4    ;  uncertainty k = 0.148432
         3         6         2        36     9        0.000000       -5.435409         1    ;  uncertainty k = 1.705293
         3         6         2        36     9      180.000000        0.309318         2    ;  uncertainty k = 0.194050
         3         6         2        36     9        0.000000        0.745836         3    ;  uncertainty k = 0.129776
         3         6         2        36     9      180.000000       -0.529315         4    ;  uncertainty k = 0.148432
         4        10         1        33     9        0.000000       -1.858871         1    ;  uncertainty k = 0.333669
         4        10         1        33     9      180.000000       -0.004379         2    ;  uncertainty k = 0.147655
         4        10         1        33     9        0.000000        0.298804         3    ;  uncertainty k = 0.155785
         4        10         1        33     9      180.000000       -0.141300         4    ;  uncertainty k = 0.079428
         4        10         1        34     9        0.000000       -1.858871         1    ;  uncertainty k = 0.333669
         4        10         1        34     9      180.000000       -0.004379         2    ;  uncertainty k = 0.147655
         4        10         1        34     9        0.000000        0.298804         3    ;  uncertainty k = 0.155785
         4        10         1        34     9      180.000000       -0.141300         4    ;  uncertainty k = 0.079428
         4        10        27         9     9        0.000000       -2.505166         1    ;  uncertainty k = 0.386991
         4        10        27         9     9      180.000000        0.497922         2    ;  uncertainty k = 0.198475
         4        10        27         9     9        0.000000        0.367323         3    ;  uncertainty k = 0.126648
         4        10        27         9     9      180.000000        0.361622         4    ;  uncertainty k = 0.081112
         4        10        27        45     9        0.000000        2.787690         1    ;  uncertainty k = 0.893880
         4        10        27        45     9      180.000000       -0.663636         2    ;  uncertainty k = 0.236091
         4        10        27        45     9        0.000000        0.218247         3    ;  uncertainty k = 0.119918
         4        10        27        45     9      180.000000        0.123444         4    ;  uncertainty k = 0.073281
         5         8        19        15     9        0.000000       -0.332885         1    ;  uncertainty k = 0.415060
         5         8        19        15     9      180.000000        6.166094         2    ;  uncertainty k = 1.010968
         5         8        19        15     9        0.000000        0.337472         3    ;  uncertainty k = 0.315095
         5         8        19        15     9      180.000000        1.224932         4    ;  uncertainty k = 0.376554
         5         8        19        22     9        0.000000        0.100039         1    ;  uncertainty k = 0.308780
         5         8        19        22     9      180.000000        5.789960         2    ;  uncertainty k = 0.843858
         5         8        19        22     9        0.000000        1.105349         3    ;  uncertainty k = 0.123971
         5         8        19        22     9      180.000000        1.565758         4    ;  uncertainty k = 0.278426
         5        13        14        15     9        0.000000       -0.058036         1    ;  uncertainty k = 0.121249
         5        13        14        15     9      180.000000       15.122057         2    ;  uncertainty k = 0.308477
         5        13        14        15     9        0.000000       -1.217730         3    ;  uncertainty k = 0.491564
         5        13        14        15     9      180.000000        0.471848         4    ;  uncertainty k = 0.304846
         5        13        14        28     9        0.000000        0.040793         1    ;  uncertainty k = 0.140451
         5        13        14        28     9      180.000000        7.730926         2    ;  uncertainty k = 0.368472
         5        13        14        28     9        0.000000        1.439057         3    ;  uncertainty k = 0.286313
         5        13        14        28     9      180.000000        1.792758         4    ;  uncertainty k = 0.139884
         6         2         1        10     9        0.000000       -0.987581         1    ;  uncertainty k = 1.101439
         6         2         1        10     9      180.000000       -3.903899         2    ;  uncertainty k = 0.673251
         6         2         1        10     9        0.000000        1.869479         3    ;  uncertainty k = 0.389552
         6         2         1        10     9      180.000000       -0.727265         4    ;  uncertainty k = 0.139798
         6         2         1        33     9        0.000000       -1.784485         1    ;  uncertainty k = 0.521415
         6         2         1        33     9      180.000000       -0.100756         2    ;  uncertainty k = 0.269946
         6         2         1        33     9        0.000000        1.457848         3    ;  uncertainty k = 0.236776
         6         2         1        33     9      180.000000       -0.196225         4    ;  uncertainty k = 0.165688
         6         2         1        34     9        0.000000       -1.784485         1    ;  uncertainty k = 0.521415
         6         2         1        34     9      180.000000       -0.100756         2    ;  uncertainty k = 0.269946
         6         2         1        34     9        0.000000        1.457848         3    ;  uncertainty k = 0.236776
         6         2         1        34     9      180.000000       -0.196225         4    ;  uncertainty k = 0.165688
         6         3         4        10     9        0.000000       -0.987581         1    ;  uncertainty k = 1.101439
         6         3         4        10     9      180.000000       -3.903899         2    ;  uncertainty k = 0.673251
         6         3         4        10     9        0.000000        1.869479         3    ;  uncertainty k = 0.389552
         6         3         4        10     9      180.000000       -0.727265         4    ;  uncertainty k = 0.139798
         6         3         4        39     9        0.000000       -1.784485         1    ;  uncertainty k = 0.521415
         6         3         4        39     9      180.000000       -0.100756         2    ;  uncertainty k = 0.269946
         6         3         4        39     9        0.000000        1.457848         3    ;  uncertainty k = 0.236776
         6         3         4        39     9      180.000000       -0.196225         4    ;  uncertainty k = 0.165688
         6         3         4        40     9        0.000000       -1.784485         1    ;  uncertainty k = 0.521415
         6         3         4        40     9      180.000000       -0.100756         2    ;  uncertainty k = 0.269946
         6         3         4        40     9        0.000000        1.457848         3    ;  uncertainty k = 0.236776
         6         3         4        40     9      180.000000       -0.196225         4    ;  uncertainty k = 0.165688
         7        18        12        11     9        0.000000       -0.008903         1    ;  uncertainty k = 0.593912
         7        18        12        11     9      180.000000       14.935093         2    ;  uncertainty k = 0.590476
         7        18        12        11     9        0.000000        1.623355         3    ;  uncertainty k = 0.272931
         7        18        12        11     9      180.000000        0.955397         4    ;  uncertainty k = 0.344322
         7        18        12        31     9        0.000000        0.106637         1    ;  uncertainty k = 0.554941
         7        18        12        31     9      180.000000       12.104567         2    ;  uncertainty k = 0.646118
         7        18        12        31     9        0.000000        1.674824         3    ;  uncertainty k = 0.420653
         7        18        12        31     9      180.000000        1.171765         4    ;  uncertainty k = 0.252043
         7        18        22        19     9        0.000000        3.963422         1    ;  uncertainty k = 0.641507
         7        18        22        19     9      180.000000        3.999489         2    ;  uncertainty k = 0.646458
         7        18        22        19     9        0.000000        2.445464         3    ;  uncertainty k = 0.228173
         7        18        22        19     9      180.000000        0.297388         4    ;  uncertainty k = 0.178868
         7        25        16        11     9        0.000000        0.377622         1    ;  uncertainty k = 1.687677
         7        25        16        11     9      180.000000        5.015499         2    ;  uncertainty k = 0.669008
         7        25        16        11     9        0.000000        0.293167         3    ;  uncertainty k = 0.494184
         7        25        16        11     9      180.000000        0.063011         4    ;  uncertainty k = 0.055148
         7        25        16        26     9        0.000000       -0.636687         1    ;  uncertainty k = 1.503559
         7        25        16        26     9      180.000000        7.842352         2    ;  uncertainty k = 0.295862
         7        25        16        26     9        0.000000        0.885113         3    ;  uncertainty k = 0.517242
         7        25        16        26     9      180.000000       -0.245771         4    ;  uncertainty k = 0.168806
         7        25        20        42     9        0.000000       -0.253772         1    ;  uncertainty k = 0.236687
         7        25        20        42     9      180.000000        0.833200         2    ;  uncertainty k = 0.161766
         7        25        20        42     9        0.000000        0.715528         3    ;  uncertainty k = 0.098490
         7        25        20        42     9      180.000000        0.492143         4    ;  uncertainty k = 0.090361
         7        25        20        43     9        0.000000       -0.253772         1    ;  uncertainty k = 0.236687
         7        25        20        43     9      180.000000        0.833200         2    ;  uncertainty k = 0.161766
         7        25        20        43     9        0.000000        0.715528         3    ;  uncertainty k = 0.098490
         7        25        20        43     9      180.000000        0.492143         4    ;  uncertainty k = 0.090361
         7        25        20        44     9        0.000000       -0.253772         1    ;  uncertainty k = 0.236687
         7        25        20        44     9      180.000000        0.833200         2    ;  uncertainty k = 0.161766
         7        25        20        44     9        0.000000        0.715528         3    ;  uncertainty k = 0.098490
         7        25        20        44     9      180.000000        0.492143         4    ;  uncertainty k = 0.090361
         8         5        13        14     9        0.000000       -0.100975         1    ;  uncertainty k = 0.088441
         8         5        13        14     9      180.000000       14.252045         2    ;  uncertainty k = 0.286761
         8         5        13        14     9        0.000000       -1.082330         3    ;  uncertainty k = 0.428808
         8         5        13        14     9      180.000000        0.714081         4    ;  uncertainty k = 0.209424
         8         5        13        46     9        0.000000        0.054363         1    ;  uncertainty k = 0.061941
         8         5        13        46     9      180.000000        7.519157         2    ;  uncertainty k = 0.459819
         8         5        13        46     9        0.000000        1.402167         3    ;  uncertainty k = 0.202089
         8         5        13        46     9      180.000000        1.708082         4    ;  uncertainty k = 0.203019
         8        19        15        14     9        0.000000       -0.135631         1    ;  uncertainty k = 0.134639
         8        19        15        14     9      180.000000       10.081019         2    ;  uncertainty k = 0.359664
         8        19        15        14     9        0.000000        0.049161         3    ;  uncertainty k = 0.394239
         8        19        15        14     9      180.000000        1.162624         4    ;  uncertainty k = 0.377428
         8        19        15        29     9        0.000000        0.082558         1    ;  uncertainty k = 0.306448
         8        19        15        29     9      180.000000        6.741582         2    ;  uncertainty k = 0.554803
         8        19        15        29     9        0.000000        1.447369         3    ;  uncertainty k = 0.385423
         8        19        15        29     9      180.000000        1.592093         4    ;  uncertainty k = 0.155680
         8        19        22        18     9        0.000000        3.615140         1    ;  uncertainty k = 1.402629
         8        19        22        18     9      180.000000        2.460937         2    ;  uncertainty k = 0.370724
         8        19        22        18     9        0.000000        1.376993         3    ;  uncertainty k = 0.350531
         8        19        22        18     9      180.000000        0.097055         4    ;  uncertainty k = 0.115469
         9        23        17        11     9        0.000000       -0.134008         1    ;  uncertainty k = 0.813914
         9        23        17        11     9      180.000000       17.501541         2    ;  uncertainty k = 0.565786
         9        23        17        11     9        0.000000       -0.503908         3    ;  uncertainty k = 0.679252
         9        23        17        11     9      180.000000        1.625032         4    ;  uncertainty k = 0.597947
         9        23        17        32     9        0.000000        0.080765         1    ;  uncertainty k = 0.993675
         9        23        17        32     9      180.000000       18.077420         2    ;  uncertainty k = 0.691860
         9        23        17        32     9        0.000000        1.352136         3    ;  uncertainty k = 0.799926
         9        23        17        32     9      180.000000        1.107139         4    ;  uncertainty k = 0.501172
         9        26        16        11     9        0.000000        0.172685         1    ;  uncertainty k = 0.822851
         9        26        16        11     9      180.000000       12.856422         2    ;  uncertainty k = 0.670067
         9        26        16        11     9        0.000000        0.124143         3    ;  uncertainty k = 0.852772
         9        26        16        11     9      180.000000        0.968005         4    ;  uncertainty k = 0.428525
         9        26        16        25     9        0.000000        0.516450         1    ;  uncertainty k = 0.739947
         9        26        16        25     9      180.000000       16.050195         2    ;  uncertainty k = 1.000167
         9        26        16        25     9        0.000000        1.730512         3    ;  uncertainty k = 0.317449
         9        26        16        25     9      180.000000        1.103836         4    ;  uncertainty k = 0.419795
         9        27        10        41     9        0.000000       -0.140403         1    ;  uncertainty k = 0.458985
         9        27        10        41     9      180.000000       -0.299246         2    ;  uncertainty k = 0.132432
         9        27        10        41     9        0.000000        0.051472         3    ;  uncertainty k = 0.152476
         9        27        10        41     9      180.000000        0.288509         4    ;  uncertainty k = 0.067555
        10         1         2        35     9        0.000000        3.577618         1    ;  uncertainty k = 1.073611
        10         1         2        35     9      180.000000       -2.876486         2    ;  uncertainty k = 0.518010
        10         1         2        35     9        0.000000       -0.152945         3    ;  uncertainty k = 0.197941
        10         1         2        35     9      180.000000        0.397574         4    ;  uncertainty k = 0.144225
        10         1         2        36     9        0.000000        3.577618         1    ;  uncertainty k = 1.073611
        10         1         2        36     9      180.000000       -2.876486         2    ;  uncertainty k = 0.518010
        10         1         2        36     9        0.000000       -0.152945         3    ;  uncertainty k = 0.197941
        10         1         2        36     9      180.000000        0.397574         4    ;  uncertainty k = 0.144225
        10         4         3        37     9        0.000000        3.577618         1    ;  uncertainty k = 1.073611
        10         4         3        37     9      180.000000       -2.876486         2    ;  uncertainty k = 0.518010
        10         4         3        37     9        0.000000       -0.152945         3    ;  uncertainty k = 0.197941
        10         4         3        37     9      180.000000        0.397574         4    ;  uncertainty k = 0.144225
        10         4         3        38     9        0.000000        3.577618         1    ;  uncertainty k = 1.073611
        10         4         3        38     9      180.000000       -2.876486         2    ;  uncertainty k = 0.518010
        10         4         3        38     9        0.000000       -0.152945         3    ;  uncertainty k = 0.197941
        10         4         3        38     9      180.000000        0.397574         4    ;  uncertainty k = 0.144225
        10        27         9        23     9        0.000000        9.093944         1    ;  uncertainty k = 0.673525
        10        27         9        23     9      180.000000       11.328686         2    ;  uncertainty k = 0.246478
        10        27         9        23     9        0.000000        1.388656         3    ;  uncertainty k = 0.179739
        10        27         9        23     9      180.000000       -0.343204         4    ;  uncertainty k = 0.041612
        10        27         9        26     9        0.000000        9.938973         1    ;  uncertainty k = 0.713391
        10        27         9        26     9      180.000000       11.380040         2    ;  uncertainty k = 0.182529
        10        27         9        26     9        0.000000        1.267523         3    ;  uncertainty k = 0.207303
        10        27         9        26     9      180.000000       -0.373690         4    ;  uncertainty k = 0.056739
        11        12        18        22     9        0.000000        0.291187         1    ;  uncertainty k = 0.528767
        11        12        18        22     9      180.000000       15.485982         2    ;  uncertainty k = 0.456934
        11        12        18        22     9        0.000000        1.779812         3    ;  uncertainty k = 0.344767
        11        12        18        22     9      180.000000        1.179478         4    ;  uncertainty k = 0.441658
        11        16        25        20     9        0.000000        2.677560         1    ;  uncertainty k = 2.055145
        11        16        25        20     9      180.000000        9.375788         2    ;  uncertainty k = 0.428941
        11        16        25        20     9        0.000000        0.994351         3    ;  uncertainty k = 0.658550
        11        16        25        20     9      180.000000        0.146966         4    ;  uncertainty k = 0.363871
        12        11        16        25     9        0.000000       -0.061095         1    ;  uncertainty k = 0.346705
        12        11        16        25     9      180.000000        7.290222         2    ;  uncertainty k = 0.654109
        12        11        16        25     9        0.000000        0.259223         3    ;  uncertainty k = 0.543192
        12        11        16        25     9      180.000000        1.009305         4    ;  uncertainty k = 0.304287
        12        11        16        26     9        0.000000       -0.010063         1    ;  uncertainty k = 0.947952
        12        11        16        26     9      180.000000        7.562690         2    ;  uncertainty k = 1.318608
        12        11        16        26     9        0.000000       -0.032765         3    ;  uncertainty k = 0.415768
        12        11        16        26     9      180.000000        1.255100         4    ;  uncertainty k = 0.474668
        12        11        17        23     9        0.000000        0.130177         1    ;  uncertainty k = 0.319997
        12        11        17        23     9      180.000000       10.233368         2    ;  uncertainty k = 0.472505
        12        11        17        23     9        0.000000        0.262637         3    ;  uncertainty k = 0.311199
        12        11        17        23     9      180.000000        1.230199         4    ;  uncertainty k = 0.362593
        12        11        17        32     9        0.000000       -0.387805         1    ;  uncertainty k = 0.656833
        12        11        17        32     9      180.000000        5.708255         2    ;  uncertainty k = 0.754356
        12        11        17        32     9        0.000000        0.783584         3    ;  uncertainty k = 0.329155
        12        11        17        32     9      180.000000        0.659109         4    ;  uncertainty k = 0.196995
        12        18         7        24     9        0.000000       -2.304513         1    ;  uncertainty k = 1.608246
        12        18         7        24     9      180.000000        3.295032         2    ;  uncertainty k = 0.942299
        12        18         7        24     9        0.000000        0.150523         3    ;  uncertainty k = 0.271980
        12        18         7        24     9      180.000000       -0.002757         4    ;  uncertainty k = 0.154509
        12        18         7        25     9        0.000000        1.604890         1    ;  uncertainty k = 1.523157
        12        18         7        25     9      180.000000        0.689390         2    ;  uncertainty k = 0.709989
        12        18         7        25     9        0.000000        0.391216         3    ;  uncertainty k = 0.318672
        12        18         7        25     9      180.000000        0.390968         4    ;  uncertainty k = 0.145619
        12        18        22        19     9        0.000000        3.631917         1    ;  uncertainty k = 1.239279
        12        18        22        19     9      180.000000        5.017481         2    ;  uncertainty k = 0.544561
        12        18        22        19     9        0.000000       -1.718467         3    ;  uncertainty k = 0.419023
        12        18        22        19     9      180.000000        0.260945         4    ;  uncertainty k = 0.152801
        13         5         8        19     9        0.000000       -0.033121         1    ;  uncertainty k = 0.203404
        13         5         8        19     9      180.000000        9.134424         2    ;  uncertainty k = 0.361170
        13         5         8        19     9        0.000000        0.095410         3    ;  uncertainty k = 0.555371
        13         5         8        19     9      180.000000        1.173907         4    ;  uncertainty k = 0.304833
        13         5         8        21     9        0.000000       -0.033117         1    ;  uncertainty k = 0.444493
        13         5         8        21     9      180.000000       13.237362         2    ;  uncertainty k = 0.376512
        13         5         8        21     9        0.000000        1.326375         3    ;  uncertainty k = 0.140942
        13         5         8        21     9      180.000000        1.477626         4    ;  uncertainty k = 0.231123
        13        14        15        19     9        0.000000       -0.220541         1    ;  uncertainty k = 0.239024
        13        14        15        19     9      180.000000       14.555642         2    ;  uncertainty k = 0.231459
        13        14        15        19     9        0.000000       -1.076155         3    ;  uncertainty k = 0.803026
        13        14        15        19     9      180.000000        0.604897         4    ;  uncertainty k = 0.258144
        13        14        15        29     9        0.000000        0.017793         1    ;  uncertainty k = 0.068701
        13        14        15        29     9      180.000000        7.947197         2    ;  uncertainty k = 0.332272
        13        14        15        29     9        0.000000        1.379655         3    ;  uncertainty k = 0.282121
        13        14        15        29     9      180.000000        1.761273         4    ;  uncertainty k = 0.131400
        14        13         5        30     9        0.000000        0.064806         1    ;  uncertainty k = 0.149266
        14        13         5        30     9      180.000000        7.583303         2    ;  uncertainty k = 0.352409
        14        13         5        30     9        0.000000        1.493520         3    ;  uncertainty k = 0.300568
        14        13         5        30     9      180.000000        1.822653         4    ;  uncertainty k = 0.184007
        14        15        19        22     9        0.000000        0.009361         1    ;  uncertainty k = 0.251317
        14        15        19        22     9      180.000000        7.741038         2    ;  uncertainty k = 0.742860
        14        15        19        22     9        0.000000        1.237211         3    ;  uncertainty k = 0.274580
        14        15        19        22     9      180.000000        1.802036         4    ;  uncertainty k = 0.203953
        15        14        13        46     9        0.000000       -0.001076         1    ;  uncertainty k = 0.131872
        15        14        13        46     9      180.000000        7.335377         2    ;  uncertainty k = 0.387186
        15        14        13        46     9        0.000000        1.465550         3    ;  uncertainty k = 0.228752
        15        14        13        46     9      180.000000        1.749135         4    ;  uncertainty k = 0.132223
        15        19         8        21     9        0.000000        0.187070         1    ;  uncertainty k = 0.154786
        15        19         8        21     9      180.000000       10.088179         2    ;  uncertainty k = 0.302190
        15        19         8        21     9        0.000000        1.428854         3    ;  uncertainty k = 0.129543
        15        19         8        21     9      180.000000        1.553935         4    ;  uncertainty k = 0.202757
        15        19        22        18     9        0.000000        3.768141         1    ;  uncertainty k = 1.462207
        15        19        22        18     9      180.000000        3.167315         2    ;  uncertainty k = 0.460563
        15        19        22        18     9        0.000000        0.107500         3    ;  uncertainty k = 0.183785
        15        19        22        18     9      180.000000        0.279388         4    ;  uncertainty k = 0.094224
        16        11        12        18     9        0.000000       -0.065599         1    ;  uncertainty k = 1.347055
        16        11        12        18     9      180.000000        6.956407         2    ;  uncertainty k = 0.822404
        16        11        12        18     9        0.000000        0.116200         3    ;  uncertainty k = 0.524502
        16        11        12        18     9      180.000000        0.543330         4    ;  uncertainty k = 0.344061
        16        11        12        31     9        0.000000        0.769955         1    ;  uncertainty k = 1.070958
        16        11        12        31     9      180.000000        7.102582         2    ;  uncertainty k = 0.798903
        16        11        12        31     9        0.000000        1.014864         3    ;  uncertainty k = 0.374908
        16        11        12        31     9      180.000000        0.246555         4    ;  uncertainty k = 0.217317
        16        11        17        23     9        0.000000        0.085413         1    ;  uncertainty k = 0.479456
        16        11        17        23     9      180.000000       12.159598         2    ;  uncertainty k = 0.431002
        16        11        17        23     9        0.000000       -0.974124         3    ;  uncertainty k = 0.860431
        16        11        17        23     9      180.000000        0.789944         4    ;  uncertainty k = 0.192347
        16        11        17        32     9        0.000000       -0.074435         1    ;  uncertainty k = 0.882418
        16        11        17        32     9      180.000000        6.622803         2    ;  uncertainty k = 0.884963
        16        11        17        32     9        0.000000        0.645216         3    ;  uncertainty k = 0.081016
        16        11        17        32     9      180.000000        0.709853         4    ;  uncertainty k = 0.272915
        16        25         7        18     9        0.000000        0.797776         1    ;  uncertainty k = 2.178759
        16        25         7        18     9      180.000000        2.055823         2    ;  uncertainty k = 1.495981
        16        25         7        18     9        0.000000        0.804824         3    ;  uncertainty k = 0.498441
        16        25         7        18     9      180.000000        0.422256         4    ;  uncertainty k = 0.248234
        16        25         7        24     9        0.000000        2.303757         1    ;  uncertainty k = 2.226831
        16        25         7        24     9      180.000000       13.616616         2    ;  uncertainty k = 0.643792
        16        25         7        24     9        0.000000        1.033759         3    ;  uncertainty k = 0.127551
        16        25         7        24     9      180.000000       -0.454578         4    ;  uncertainty k = 0.505744
        16        25        20        42     9        0.000000       -0.512309         1    ;  uncertainty k = 0.455481
        16        25        20        42     9      180.000000        1.061541         2    ;  uncertainty k = 0.170025
        16        25        20        42     9        0.000000        0.344276         3    ;  uncertainty k = 0.200292
        16        25        20        42     9      180.000000        0.463677         4    ;  uncertainty k = 0.152809
        16        25        20        43     9        0.000000       -0.512309         1    ;  uncertainty k = 0.455481
        16        25        20        43     9      180.000000        1.061541         2    ;  uncertainty k = 0.170025
        16        25        20        43     9        0.000000        0.344276         3    ;  uncertainty k = 0.200292
        16        25        20        43     9      180.000000        0.463677         4    ;  uncertainty k = 0.152809
        16        25        20        44     9        0.000000       -0.512309         1    ;  uncertainty k = 0.455481
        16        25        20        44     9      180.000000        1.061541         2    ;  uncertainty k = 0.170025
        16        25        20        44     9        0.000000        0.344276         3    ;  uncertainty k = 0.200292
        16        25        20        44     9      180.000000        0.463677         4    ;  uncertainty k = 0.152809
        16        26         9        23     9        0.000000       -0.005418         1    ;  uncertainty k = 1.508141
        16        26         9        23     9      180.000000        6.768588         2    ;  uncertainty k = 0.918429
        16        26         9        23     9        0.000000        1.254098         3    ;  uncertainty k = 0.702785
        16        26         9        23     9      180.000000        0.768673         4    ;  uncertainty k = 0.284688
        16        26         9        27     9        0.000000        0.554587         1    ;  uncertainty k = 1.733026
        16        26         9        27     9      180.000000        9.192787         2    ;  uncertainty k = 0.655652
        16        26         9        27     9        0.000000        1.998452         3    ;  uncertainty k = 0.546322
        16        26         9        27     9      180.000000        0.894051         4    ;  uncertainty k = 0.226471
        17        11        12        18     9        0.000000        0.349755         1    ;  uncertainty k = 0.894911
        17        11        12        18     9      180.000000        5.552423         2    ;  uncertainty k = 0.847251
        17        11        12        18     9        0.000000        0.777177         3    ;  uncertainty k = 0.335453
        17        11        12        18     9      180.000000        0.462275         4    ;  uncertainty k = 0.282148
        17        11        12        31     9        0.000000        0.326409         1    ;  uncertainty k = 0.879797
        17        11        12        31     9      180.000000        6.280518         2    ;  uncertainty k = 0.429979
        17        11        12        31     9        0.000000        0.864858         3    ;  uncertainty k = 0.224985
        17        11        12        31     9      180.000000        0.112103         4    ;  uncertainty k = 0.116868
        17        11        16        25     9        0.000000       -0.649346         1    ;  uncertainty k = 0.831730
        17        11        16        25     9      180.000000        6.171658         2    ;  uncertainty k = 0.816380
        17        11        16        25     9        0.000000        0.118411         3    ;  uncertainty k = 0.317434
        17        11        16        25     9      180.000000        1.000703         4    ;  uncertainty k = 0.336794
        17        11        16        26     9        0.000000       -0.160964         1    ;  uncertainty k = 0.620144
        17        11        16        26     9      180.000000        7.167162         2    ;  uncertainty k = 0.938331
        17        11        16        26     9        0.000000       -0.305601         3    ;  uncertainty k = 0.333280
        17        11        16        26     9      180.000000        1.221295         4    ;  uncertainty k = 0.580991
        17        23         9        26     9        0.000000        0.026835         1    ;  uncertainty k = 0.910618
        17        23         9        26     9      180.000000        6.397254         2    ;  uncertainty k = 1.349017
        17        23         9        26     9        0.000000        0.801406         3    ;  uncertainty k = 0.577605
        17        23         9        26     9      180.000000        0.491915         4    ;  uncertainty k = 0.228515
        17        23         9        27     9        0.000000        0.374118         1    ;  uncertainty k = 0.786786
        17        23         9        27     9      180.000000        7.700513         2    ;  uncertainty k = 0.531152
        17        23         9        27     9        0.000000        1.810197         3    ;  uncertainty k = 0.690474
        17        23         9        27     9      180.000000        0.607565         4    ;  uncertainty k = 0.297516
        18         7        25        20     9        0.000000        0.744989         1    ;  uncertainty k = 1.680620
        18         7        25        20     9      180.000000        7.112471         2    ;  uncertainty k = 0.947675
        18         7        25        20     9        0.000000        1.715549         3    ;  uncertainty k = 0.289100
        18         7        25        20     9      180.000000       -0.047586         4    ;  uncertainty k = 0.279895
        19         8         5        30     9        0.000000       -0.140911         1    ;  uncertainty k = 0.267442
        19         8         5        30     9      180.000000        5.655667         2    ;  uncertainty k = 0.737098
        19         8         5        30     9        0.000000        1.351932         3    ;  uncertainty k = 0.327283
        19         8         5        30     9      180.000000        1.517875         4    ;  uncertainty k = 0.164843
        19        15        14        28     9        0.000000        0.047831         1    ;  uncertainty k = 0.202691
        19        15        14        28     9      180.000000        8.106407         2    ;  uncertainty k = 0.266379
        19        15        14        28     9        0.000000        1.354209         3    ;  uncertainty k = 0.221841
        19        15        14        28     9      180.000000        1.832766         4    ;  uncertainty k = 0.131761
        20        25         7        24     9        0.000000        0.535854         1    ;  uncertainty k = 0.617191
        20        25         7        24     9      180.000000       13.242549         2    ;  uncertainty k = 0.294787
        20        25         7        24     9        0.000000        0.516814         3    ;  uncertainty k = 0.382523
        20        25         7        24     9      180.000000        0.011909         4    ;  uncertainty k = 0.119402
        20        25        16        26     9        0.000000        1.756063         1    ;  uncertainty k = 1.499561
        20        25        16        26     9      180.000000       10.872503         2    ;  uncertainty k = 0.663966
        20        25        16        26     9        0.000000        0.898359         3    ;  uncertainty k = 0.300611
        20        25        16        26     9      180.000000        0.248654         4    ;  uncertainty k = 0.457694
        21         8         5        30     9        0.000000       -0.251322         1    ;  uncertainty k = 0.113306
        21         8         5        30     9      180.000000        9.666249         2    ;  uncertainty k = 0.390520
        21         8         5        30     9        0.000000        0.861152         3    ;  uncertainty k = 0.226609
        21         8         5        30     9      180.000000        1.021104         4    ;  uncertainty k = 0.226173
        21         8        19        22     9        0.000000        0.042870         1    ;  uncertainty k = 0.524659
        21         8        19        22     9      180.000000        8.666041         2    ;  uncertainty k = 0.629782
        21         8        19        22     9        0.000000        1.061743         3    ;  uncertainty k = 0.236917
        21         8        19        22     9      180.000000        1.359594         4    ;  uncertainty k = 0.138801
        22        18         7        24     9        0.000000       -2.400224         1    ;  uncertainty k = 1.231687
        22        18         7        24     9      180.000000        6.937718         2    ;  uncertainty k = 0.312849
        22        18         7        24     9        0.000000       -0.145000         3    ;  uncertainty k = 0.414986
        22        18         7        24     9      180.000000        0.033775         4    ;  uncertainty k = 0.219702
        22        18         7        25     9        0.000000        0.789642         1    ;  uncertainty k = 0.519834
        22        18         7        25     9      180.000000        2.416940         2    ;  uncertainty k = 0.313162
        22        18         7        25     9        0.000000        0.677283         3    ;  uncertainty k = 0.255733
        22        18         7        25     9      180.000000        0.421220         4    ;  uncertainty k = 0.170185
        22        18        12        31     9        0.000000       -0.152142         1    ;  uncertainty k = 0.273174
        22        18        12        31     9      180.000000       12.561446         2    ;  uncertainty k = 0.820849
        22        18        12        31     9        0.000000        1.336782         3    ;  uncertainty k = 0.357343
        22        18        12        31     9      180.000000        1.011722         4    ;  uncertainty k = 0.570147
        22        19        15        29     9        0.000000       -0.544124         1    ;  uncertainty k = 0.600118
        22        19        15        29     9      180.000000        6.582540         2    ;  uncertainty k = 0.597387
        22        19        15        29     9        0.000000        0.734727         3    ;  uncertainty k = 0.239795
        22        19        15        29     9      180.000000        1.036705         4    ;  uncertainty k = 0.189652
        23         9        27        45     9        0.000000       10.289713         1    ;  uncertainty k = 0.671474
        23         9        27        45     9      180.000000        9.708733         2    ;  uncertainty k = 0.263556
        23         9        27        45     9        0.000000        1.249260         3    ;  uncertainty k = 0.563999
        23         9        27        45     9      180.000000       -0.441153         4    ;  uncertainty k = 0.253050
        26         9        27        45     9        0.000000       12.329273         1    ;  uncertainty k = 0.748604
        26         9        27        45     9      180.000000       10.060159         2    ;  uncertainty k = 0.345763
        26         9        27        45     9        0.000000        1.224279         3    ;  uncertainty k = 0.555432
        26         9        27        45     9      180.000000       -0.524195         4    ;  uncertainty k = 0.158878
        27        10         1        33     9        0.000000       -0.664477         1    ;  uncertainty k = 0.439753
        27        10         1        33     9      180.000000       -0.719545         2    ;  uncertainty k = 0.206246
        27        10         1        33     9        0.000000        1.110830         3    ;  uncertainty k = 0.090613
        27        10         1        33     9      180.000000       -0.312617         4    ;  uncertainty k = 0.084156
        27        10         1        34     9        0.000000       -0.664477         1    ;  uncertainty k = 0.439753
        27        10         1        34     9      180.000000       -0.719545         2    ;  uncertainty k = 0.206246
        27        10         1        34     9        0.000000        1.110830         3    ;  uncertainty k = 0.090613
        27        10         1        34     9      180.000000       -0.312617         4    ;  uncertainty k = 0.084156
        27        10         4        39     9        0.000000       -0.664477         1    ;  uncertainty k = 0.439753
        27        10         4        39     9      180.000000       -0.719545         2    ;  uncertainty k = 0.206246
        27        10         4        39     9        0.000000        1.110830         3    ;  uncertainty k = 0.090613
        27        10         4        39     9      180.000000       -0.312617         4    ;  uncertainty k = 0.084156
        27        10         4        40     9        0.000000       -0.664477         1    ;  uncertainty k = 0.439753
        27        10         4        40     9      180.000000       -0.719545         2    ;  uncertainty k = 0.206246
        27        10         4        40     9        0.000000        1.110830         3    ;  uncertainty k = 0.090613
        27        10         4        40     9      180.000000       -0.312617         4    ;  uncertainty k = 0.084156
        28        14        13        46     9        0.000000        0.068922         1    ;  uncertainty k = 0.153510
        28        14        13        46     9      180.000000        7.478649         2    ;  uncertainty k = 0.407202
        28        14        13        46     9        0.000000       -0.379561         3    ;  uncertainty k = 0.304087
        28        14        13        46     9      180.000000        0.051381         4    ;  uncertainty k = 0.226412
        28        14        15        29     9        0.000000       -0.085926         1    ;  uncertainty k = 0.109112
        28        14        15        29     9      180.000000        7.628203         2    ;  uncertainty k = 0.430730
        28        14        15        29     9        0.000000       -0.388465         3    ;  uncertainty k = 0.281910
        28        14        15        29     9      180.000000        0.129701         4    ;  uncertainty k = 0.158596
        30         5        13        46     9        0.000000        0.057529         1    ;  uncertainty k = 0.233139
        30         5        13        46     9      180.000000        7.381151         2    ;  uncertainty k = 0.427872
        30         5        13        46     9        0.000000       -0.402543         3    ;  uncertainty k = 0.301277
        30         5        13        46     9      180.000000        0.072784         4    ;  uncertainty k = 0.171160
        33         1         2        35     9        0.000000       -0.225271         1    ;  uncertainty k = 0.371622
        33         1         2        35     9      180.000000        0.719911         2    ;  uncertainty k = 0.314571
        33         1         2        35     9        0.000000        0.112053         3    ;  uncertainty k = 0.052184
        33         1         2        35     9      180.000000       -0.321413         4    ;  uncertainty k = 0.066104
        33         1         2        36     9        0.000000       -0.225271         1    ;  uncertainty k = 0.371622
        33         1         2        36     9      180.000000        0.719911         2    ;  uncertainty k = 0.314571
        33         1         2        36     9        0.000000        0.112053         3    ;  uncertainty k = 0.052184
        33         1         2        36     9      180.000000       -0.321413         4    ;  uncertainty k = 0.066104
        33         1        10        41     9        0.000000        1.333899         1    ;  uncertainty k = 0.470364
        33         1        10        41     9      180.000000       -0.346033         2    ;  uncertainty k = 0.220492
        33         1        10        41     9        0.000000        0.040957         3    ;  uncertainty k = 0.124052
        33         1        10        41     9      180.000000        0.039296         4    ;  uncertainty k = 0.035575
        34         1         2        35     9        0.000000       -0.225271         1    ;  uncertainty k = 0.371622
        34         1         2        35     9      180.000000        0.719911         2    ;  uncertainty k = 0.314571
        34         1         2        35     9        0.000000        0.112053         3    ;  uncertainty k = 0.052184
        34         1         2        35     9      180.000000       -0.321413         4    ;  uncertainty k = 0.066104
        34         1         2        36     9        0.000000       -0.225271         1    ;  uncertainty k = 0.371622
        34         1         2        36     9      180.000000        0.719911         2    ;  uncertainty k = 0.314571
        34         1         2        36     9        0.000000        0.112053         3    ;  uncertainty k = 0.052184
        34         1         2        36     9      180.000000       -0.321413         4    ;  uncertainty k = 0.066104
        34         1        10        41     9        0.000000        1.333899         1    ;  uncertainty k = 0.470364
        34         1        10        41     9      180.000000       -0.346033         2    ;  uncertainty k = 0.220492
        34         1        10        41     9        0.000000        0.040957         3    ;  uncertainty k = 0.124052
        34         1        10        41     9      180.000000        0.039296         4    ;  uncertainty k = 0.035575
        37         3         4        39     9        0.000000       -0.225271         1    ;  uncertainty k = 0.371622
        37         3         4        39     9      180.000000        0.719911         2    ;  uncertainty k = 0.314571
        37         3         4        39     9        0.000000        0.112053         3    ;  uncertainty k = 0.052184
        37         3         4        39     9      180.000000       -0.321413         4    ;  uncertainty k = 0.066104
        37         3         4        40     9        0.000000       -0.225271         1    ;  uncertainty k = 0.371622
        37         3         4        40     9      180.000000        0.719911         2    ;  uncertainty k = 0.314571
        37         3         4        40     9        0.000000        0.112053         3    ;  uncertainty k = 0.052184
        37         3         4        40     9      180.000000       -0.321413         4    ;  uncertainty k = 0.066104
        38         3         4        39     9        0.000000       -0.225271         1    ;  uncertainty k = 0.371622
        38         3         4        39     9      180.000000        0.719911         2    ;  uncertainty k = 0.314571
        38         3         4        39     9        0.000000        0.112053         3    ;  uncertainty k = 0.052184
        38         3         4        39     9      180.000000       -0.321413         4    ;  uncertainty k = 0.066104
        38         3         4        40     9        0.000000       -0.225271         1    ;  uncertainty k = 0.371622
        38         3         4        40     9      180.000000        0.719911         2    ;  uncertainty k = 0.314571
        38         3         4        40     9        0.000000        0.112053         3    ;  uncertainty k = 0.052184
        38         3         4        40     9      180.000000       -0.321413         4    ;  uncertainty k = 0.066104
        39         4        10        41     9        0.000000        1.333899         1    ;  uncertainty k = 0.470364
        39         4        10        41     9      180.000000       -0.346033         2    ;  uncertainty k = 0.220492
        39         4        10        41     9        0.000000        0.040957         3    ;  uncertainty k = 0.124052
        39         4        10        41     9      180.000000        0.039296         4    ;  uncertainty k = 0.035575
        40         4        10        41     9        0.000000        1.333899         1    ;  uncertainty k = 0.470364
        40         4        10        41     9      180.000000       -0.346033         2    ;  uncertainty k = 0.220492
        40         4        10        41     9        0.000000        0.040957         3    ;  uncertainty k = 0.124052
        40         4        10        41     9      180.000000        0.039296         4    ;  uncertainty k = 0.035575
        41        10        27        45     9        0.000000        0.976343         1    ;  uncertainty k = 0.742026
        41        10        27        45     9      180.000000       -1.754256         2    ;  uncertainty k = 0.294904
        41        10        27        45     9        0.000000       -0.016582         3    ;  uncertainty k = 0.098589
        41        10        27        45     9      180.000000        0.124158         4    ;  uncertainty k = 0.074181

[ dihedrals ] ; impropers
;       ai        aj        ak        al funct           phase               k        pn
         5         8        13        30     4      180.000000        2.218345         2    ;  uncertainty k = 0.299030
         5        13        30         8     4      180.000000        2.218345         2    ;  uncertainty k = 0.299030
         5        30         8        13     4      180.000000        2.218345         2    ;  uncertainty k = 0.299030
         7        18        24        25     4      180.000000       50.484232         2    ;  uncertainty k = 0.015166
         7        24        25        18     4      180.000000       50.484232         2    ;  uncertainty k = 0.015166
         7        25        18        24     4      180.000000       50.484232         2    ;  uncertainty k = 0.015166
         8         5        19        21     4      180.000000       16.950707         2    ;  uncertainty k = 0.103901
         8        19        21         5     4      180.000000       16.950707         2    ;  uncertainty k = 0.103901
         8        21         5        19     4      180.000000       16.950707         2    ;  uncertainty k = 0.103901
         9        23        26        27     4      180.000000       45.856594         2    ;  uncertainty k = 0.099452
         9        26        27        23     4      180.000000       45.856594         2    ;  uncertainty k = 0.099452
         9        27        23        26     4      180.000000       45.856594         2    ;  uncertainty k = 0.099452
        11        12        16        17     4      180.000000        3.476531         2    ;  uncertainty k = 0.546822
        11        16        17        12     4      180.000000        3.476531         2    ;  uncertainty k = 0.546822
        11        17        12        16     4      180.000000        3.476531         2    ;  uncertainty k = 0.546822
        12        11        18        31     4      180.000000        9.851683         2    ;  uncertainty k = 0.304112
        12        18        31        11     4      180.000000        9.851683         2    ;  uncertainty k = 0.304112
        12        31        11        18     4      180.000000        9.851683         2    ;  uncertainty k = 0.304112
        13         5        14        46     4      180.000000        5.185869         2    ;  uncertainty k = 0.082501
        13        14        46         5     4      180.000000        5.185869         2    ;  uncertainty k = 0.082501
        13        46         5        14     4      180.000000        5.185869         2    ;  uncertainty k = 0.082501
        14        13        15        28     4      180.000000        3.787449         2    ;  uncertainty k = 0.081979
        14        15        28        13     4      180.000000        3.787449         2    ;  uncertainty k = 0.081979
        14        28        13        15     4      180.000000        3.787449         2    ;  uncertainty k = 0.081979
        15        14        19        29     4      180.000000        4.781074         2    ;  uncertainty k = 0.142006
        15        19        29        14     4      180.000000        4.781074         2    ;  uncertainty k = 0.142006
        15        29        14        19     4      180.000000        4.781074         2    ;  uncertainty k = 0.142006
        16        11        25        26     4      180.000000       31.651390         2    ;  uncertainty k = 0.077503
        16        25        26        11     4      180.000000       31.651390         2    ;  uncertainty k = 0.077503
        16        26        11        25     4      180.000000       31.651390         2    ;  uncertainty k = 0.077503
        17        11        23        32     4      180.000000       17.228024         2    ;  uncertainty k = 0.062085
        17        23        32        11     4      180.000000       17.228024         2    ;  uncertainty k = 0.062085
        17        32        11        23     4      180.000000       17.228024         2    ;  uncertainty k = 0.062085
        18         7        12        22     4      180.000000       11.775766         2    ;  uncertainty k = 0.183904
        18        12        22         7     4      180.000000       11.775766         2    ;  uncertainty k = 0.183904
        18        22         7        12     4      180.000000       11.775766         2    ;  uncertainty k = 0.183904
        19         8        15        22     4      180.000000       10.820087         2    ;  uncertainty k = 0.141178
        19        15        22         8     4      180.000000       10.820087         2    ;  uncertainty k = 0.141178
        19        22         8        15     4      180.000000       10.820087         2    ;  uncertainty k = 0.141178
        25         7        16        20     4      180.000000        3.623653         2    ;  uncertainty k = 0.516344
        25        16        20         7     4      180.000000        3.623653         2    ;  uncertainty k = 0.516344
        25        20         7        16     4      180.000000        3.623653         2    ;  uncertainty k = 0.516344
        27         9        10        45     4      180.000000        0.693580         2    ;  uncertainty k = 0.786577
        27        10        45         9     4      180.000000        0.693580         2    ;  uncertainty k = 0.786577
        27        45         9        10     4      180.000000        0.693580         2    ;  uncertainty k = 0.786577

[ pairs ]
;       ai        aj funct
         1         3     1
         1         9     1
         1        39     1
         1        40     1
         1        45     1
         2         4     1
         2        27     1
         2        37     1
         2        38     1
         2        41     1
         3        27     1
         3        35     1
         3        36     1
         3        41     1
         4         9     1
         4        33     1
         4        34     1
         4        45     1
         5        15     1
         5        22     1
         5        28     1
         6        10     1
         6        33     1
         6        34     1
         6        39     1
         6        40     1
         7        11     1
         7        19     1
         7        26     1
         7        31     1
         7        42     1
         7        43     1
         7        44     1
         8        14     1
         8        18     1
         8        29     1
         8        46     1
         9        11     1
         9        25     1
         9        32     1
         9        41     1
        10        23     1
        10        26     1
        10        35     1
        10        36     1
        10        37     1
        10        38     1
        11        20     1
        11        22     1
        12        19     1
        12        23     1
        12        24     1
        12        25     1
        12        26     1
        12        32     1
        13        19     1
        13        21     1
        13        29     1
        14        22     1
        14        30     1
        15        18     1
        15        21     1
        15        46     1
        16        18     1
        16        23     1
        16        24     1
        16        27     1
        16        31     1
        16        32     1
        16        42     1
        16        43     1
        16        44     1
        17        18     1
        17        25     1
        17        26     1
        17        27     1
        17        31     1
        18        20     1
        19        28     1
        19        30     1
        20        24     1
        20        26     1
        21        22     1
        21        30     1
        22        24     1
        22        25     1
        22        29     1
        22        31     1
        23        45     1
        26        45     1
        27        33     1
        27        34     1
        27        39     1
        27        40     1
        28        29     1
        28        46     1
        30        46     1
        33        35     1
        33        36     1
        33        41     1
        34        35     1
        34        36     1
        34        41     1
        37        39     1
        37        40     1
        38        39     1
        38        40     1
        39        41     1
        40        41     1
        41        45     1
