; ITP file created by ByteFF-joint-25, 2026-02-17 09:24:03.400174

[ atomtypes ]
;name           bonded.type        at.num        mass        charge   ptype           sigma         epsilon
 c0bf                                   6      0.0000       0.00000       A     3.39787e-01     4.51000e-01    ;  uncertainty sigma = 0.000007, epsilon = 0.000697
 c1bf                                   6      0.0000       0.00000       A     3.39778e-01     4.50893e-01    ;  uncertainty sigma = 0.000003, epsilon = 0.000829
 c2bf                                   6      0.0000       0.00000       A     3.39778e-01     4.50893e-01    ;  uncertainty sigma = 0.000003, epsilon = 0.000829
 c3bf                                   6      0.0000       0.00000       A     3.39787e-01     4.51000e-01    ;  uncertainty sigma = 0.000007, epsilon = 0.000697
 c4bf                                   6      0.0000       0.00000       A     3.31526e-01     4.13477e-01    ;  uncertainty sigma = 0.000006, epsilon = 0.000754
 o5bf                                   8      0.0000       0.00000       A     3.15613e-01     3.03556e-01    ;  uncertainty sigma = 0.000019, epsilon = 0.001085
 c6bf                                   6      0.0000       0.00000       A     3.31527e-01     4.13202e-01    ;  uncertainty sigma = 0.000014, epsilon = 0.001462
 c7bf                                   6      0.0000       0.00000       A     3.31525e-01     4.12996e-01    ;  uncertainty sigma = 0.000006, epsilon = 0.000558
 c8bf                                   6      0.0000       0.00000       A     3.31534e-01     4.13731e-01    ;  uncertainty sigma = 0.000016, epsilon = 0.000825
 c9bf                                   6      0.0000       0.00000       A     3.39779e-01     4.51067e-01    ;  uncertainty sigma = 0.000013, epsilon = 0.000925
 c10bf                                  6      0.0000       0.00000       A     3.31583e-01     4.13715e-01    ;  uncertainty sigma = 0.000020, epsilon = 0.000287
 c11bf                                  6      0.0000       0.00000       A     3.31514e-01     4.13109e-01    ;  uncertainty sigma = 0.000011, epsilon = 0.001270
 c12bf                                  6      0.0000       0.00000       A     3.31521e-01     4.13309e-01    ;  uncertainty sigma = 0.000005, epsilon = 0.000623
 c13bf                                  6      0.0000       0.00000       A     3.31522e-01     4.13402e-01    ;  uncertainty sigma = 0.000004, epsilon = 0.000568
 c14bf                                  6      0.0000       0.00000       A     3.31532e-01     4.13487e-01    ;  uncertainty sigma = 0.000005, epsilon = 0.000789
 c15bf                                  6      0.0000       0.00000       A     3.31523e-01     4.14307e-01    ;  uncertainty sigma = 0.000034, epsilon = 0.001925
 c16bf                                  6      0.0000       0.00000       A     3.31547e-01     4.13848e-01    ;  uncertainty sigma = 0.000008, epsilon = 0.001284
 c17bf                                  6      0.0000       0.00000       A     3.31524e-01     4.13005e-01    ;  uncertainty sigma = 0.000012, epsilon = 0.001162
 c18bf                                  6      0.0000       0.00000       A     3.31544e-01     4.13185e-01    ;  uncertainty sigma = 0.000012, epsilon = 0.000998
 f19bf                                  9      0.0000       0.00000       A     3.03401e-01     3.48403e-01    ;  uncertainty sigma = 0.000015, epsilon = 0.000906
 f20bf                                  9      0.0000       0.00000       A     3.03426e-01     3.47978e-01    ;  uncertainty sigma = 0.000008, epsilon = 0.000768
 o21bf                                  8      0.0000       0.00000       A     3.15666e-01     3.03480e-01    ;  uncertainty sigma = 0.000038, epsilon = 0.003110
 n22bf                                  7      0.0000       0.00000       A     3.38435e-01     3.93631e-01    ;  uncertainty sigma = 0.000019, epsilon = 0.001026
 o23bf                                  8      0.0000       0.00000       A     3.04794e-01     6.11724e-01    ;  uncertainty sigma = 0.000022, epsilon = 0.000775
 n24bf                                  7      0.0000       0.00000       A     3.27114e-01     4.89448e-01    ;  uncertainty sigma = 0.000043, epsilon = 0.002989
 n25bf                                  7      0.0000       0.00000       A     3.38443e-01     3.93275e-01    ;  uncertainty sigma = 0.000020, epsilon = 0.001158
 n26bf                                  7      0.0000       0.00000       A     3.27898e-01     6.46446e-01    ;  uncertainty sigma = 0.000031, epsilon = 0.005668
 h27bf                                  1      0.0000       0.00000       A     2.62564e-01     6.70554e-02    ;  uncertainty sigma = 0.000012, epsilon = 0.000465
 h28bf                                  1      0.0000       0.00000       A     2.62548e-01     6.71486e-02    ;  uncertainty sigma = 0.000008, epsilon = 0.000492
 h29bf                                  1      0.0000       0.00000       A     2.62562e-01     6.73680e-02    ;  uncertainty sigma = 0.000008, epsilon = 0.000365
 h30bf                                  1      0.0000       0.00000       A     2.62521e-01     6.67593e-02    ;  uncertainty sigma = 0.000018, epsilon = 0.000881
 h31bf                                  1      0.0000       0.00000       A     2.53663e-01     6.71784e-02    ;  uncertainty sigma = 0.000041, epsilon = 0.000925
 h32bf                                  1      0.0000       0.00000       A     2.60021e-01     8.67663e-02    ;  uncertainty sigma = 0.000009, epsilon = 0.000445
 h33bf                                  1      0.0000       0.00000       A     2.60021e-01     8.67663e-02    ;  uncertainty sigma = 0.000009, epsilon = 0.000445
 h34bf                                  1      0.0000       0.00000       A     2.42188e-01     8.67183e-02    ;  uncertainty sigma = 0.000018, epsilon = 0.000739
 h35bf                                  1      0.0000       0.00000       A     2.42188e-01     8.67183e-02    ;  uncertainty sigma = 0.000018, epsilon = 0.000739
 h36bf                                  1      0.0000       0.00000       A     2.42188e-01     8.67183e-02    ;  uncertainty sigma = 0.000018, epsilon = 0.000739
 h37bf                                  1      0.0000       0.00000       A     2.42188e-01     8.67183e-02    ;  uncertainty sigma = 0.000018, epsilon = 0.000739
 h38bf                                  1      0.0000       0.00000       A     2.60021e-01     8.67663e-02    ;  uncertainty sigma = 0.000009, epsilon = 0.000445
 h39bf                                  1      0.0000       0.00000       A     2.60021e-01     8.67663e-02    ;  uncertainty sigma = 0.000009, epsilon = 0.000445
 h40bf                                  1      0.0000       0.00000       A     2.42212e-01     8.65676e-02    ;  uncertainty sigma = 0.000016, epsilon = 0.000625
 h41bf                                  1      0.0000       0.00000       A     1.10703e-01     4.14050e-02    ;  uncertainty sigma = 0.000035, epsilon = 0.000993
 h42bf                                  1      0.0000       0.00000       A     1.10677e-01     4.16075e-02    ;  uncertainty sigma = 0.000082, epsilon = 0.001260

[ moleculetype ]
;name             nrexcl
 MOL                   3

[ atoms ]
;       nr            type      resi   res      atom      cgnr      charge          mass ; qtot
         1            c0bf         1   UNL        c0         1    -0.12711       12.0110 ; qtot   -0.127
         2            c1bf         1   UNL        c1         2     0.13209       12.0110 ; qtot    0.005
         3            c2bf         1   UNL        c2         3     0.13209       12.0110 ; qtot    0.137
         4            c3bf         1   UNL        c3         4    -0.12711       12.0110 ; qtot    0.010
         5            c4bf         1   UNL        c4         5    -0.19164       12.0110 ; qtot   -0.182
         6            o5bf         1   UNL        o5         6    -0.41527       15.9990 ; qtot   -0.597
         7            c6bf         1   UNL        c6         7     0.70396       12.0110 ; qtot    0.107
         8            c7bf         1   UNL        c7         8     0.14567       12.0110 ; qtot    0.253
         9            c8bf         1   UNL        c8         9     0.92565       12.0110 ; qtot    1.178
        10            c9bf         1   UNL        c9        10     0.24784       12.0110 ; qtot    1.426
        11           c10bf         1   UNL       c10        11    -0.40505       12.0110 ; qtot    1.021
        12           c11bf         1   UNL       c11        12    -0.05175       12.0110 ; qtot    0.969
        13           c12bf         1   UNL       c12        13     0.14413       12.0110 ; qtot    1.113
        14           c13bf         1   UNL       c13        14    -0.16248       12.0110 ; qtot    0.951
        15           c14bf         1   UNL       c14        15    -0.09069       12.0110 ; qtot    0.860
        16           c15bf         1   UNL       c15        16     0.62991       12.0110 ; qtot    1.490
        17           c16bf         1   UNL       c16        17     0.52640       12.0110 ; qtot    2.017
        18           c17bf         1   UNL       c17        18     0.00902       12.0110 ; qtot    2.026
        19           c18bf         1   UNL       c18        19     0.04692       12.0110 ; qtot    2.073
        20           f19bf         1   UNL       f19        20    -0.12685       18.9980 ; qtot    1.946
        21           f20bf         1   UNL       f20        21    -0.13805       18.9980 ; qtot    1.808
        22           o21bf         1   UNL       o21        22    -0.20794       15.9990 ; qtot    1.600
        23           n22bf         1   UNL       n22        23    -0.77368       14.0070 ; qtot    0.826
        24           o23bf         1   UNL       o23        24    -0.59013       15.9990 ; qtot    0.236
        25           n24bf         1   UNL       n24        25    -0.52015       14.0070 ; qtot   -0.284
        26           n25bf         1   UNL       n25        26    -0.83284       14.0070 ; qtot   -1.117
        27           n26bf         1   UNL       n26        27    -0.86243       14.0070 ; qtot   -1.979
        28           h27bf         1   UNL       h27        28     0.16075        1.0080 ; qtot   -1.819
        29           h28bf         1   UNL       h28        29     0.15721        1.0080 ; qtot   -1.662
        30           h29bf         1   UNL       h29        30     0.17297        1.0080 ; qtot   -1.489
        31           h30bf         1   UNL       h30        31     0.16487        1.0080 ; qtot   -1.324
        32           h31bf         1   UNL       h31        32     0.03104        1.0080 ; qtot   -1.293
        33           h32bf         1   UNL       h32        33     0.05892        1.0080 ; qtot   -1.234
        34           h33bf         1   UNL       h33        34     0.05892        1.0080 ; qtot   -1.175
        35           h34bf         1   UNL       h34        35     0.04655        1.0080 ; qtot   -1.128
        36           h35bf         1   UNL       h35        36     0.04655        1.0080 ; qtot   -1.082
        37           h36bf         1   UNL       h36        37     0.04655        1.0080 ; qtot   -1.035
        38           h37bf         1   UNL       h37        38     0.04655        1.0080 ; qtot   -0.989
        39           h38bf         1   UNL       h38        39     0.05892        1.0080 ; qtot   -0.930
        40           h39bf         1   UNL       h39        40     0.05892        1.0080 ; qtot   -0.871
        41           h40bf         1   UNL       h40        41     0.07162        1.0080 ; qtot   -0.799
        42           h41bf         1   UNL       h41        42     0.44845        1.0080 ; qtot   -0.351
        43           h42bf         1   UNL       h42        43     0.35070        1.0080 ; qtot    0.000

[ bonds ]
;       ai        aj funct               r               k
         1         2     1        0.153564   209800.326367    ;  uncertainty r = 0.000030, k = 4.398889
         1        10     1        0.153800   204926.313672    ;  uncertainty r = 0.000079, k = 2.875805
         1        33     1        0.109644   310935.400293    ;  uncertainty r = 0.000023, k = 1.135238
         1        34     1        0.109644   310935.400293    ;  uncertainty r = 0.000023, k = 1.135238
         2         6     1        0.142789   254488.480176    ;  uncertainty r = 0.000039, k = 2.801923
         2        35     1        0.109818   309244.818115    ;  uncertainty r = 0.000020, k = 0.854837
         2        36     1        0.109818   309244.818115    ;  uncertainty r = 0.000020, k = 0.854837
         3         4     1        0.153564   209800.326367    ;  uncertainty r = 0.000030, k = 4.398889
         3         6     1        0.142789   254488.480176    ;  uncertainty r = 0.000039, k = 2.801923
         3        37     1        0.109818   309244.818115    ;  uncertainty r = 0.000020, k = 0.854837
         3        38     1        0.109818   309244.818115    ;  uncertainty r = 0.000020, k = 0.854837
         4        10     1        0.153800   204926.313672    ;  uncertainty r = 0.000079, k = 2.875805
         4        39     1        0.109644   310935.400293    ;  uncertainty r = 0.000023, k = 1.135238
         4        40     1        0.109644   310935.400293    ;  uncertainty r = 0.000023, k = 1.135238
         5         8     1        0.138747   361176.981592    ;  uncertainty r = 0.000032, k = 2.643588
         5        13     1        0.139007   367691.396045    ;  uncertainty r = 0.000031, k = 2.749259
         5        30     1        0.108780   338576.282275    ;  uncertainty r = 0.000013, k = 1.210229
         7        18     1        0.146485   274105.117188    ;  uncertainty r = 0.000189, k = 24.437455
         7        24     1        0.123616   741855.070312    ;  uncertainty r = 0.000094, k = 12.815096
         7        25     1        0.140666   360272.508252    ;  uncertainty r = 0.000141, k = 19.586866
         8        19     1        0.139121   358077.006348    ;  uncertainty r = 0.000040, k = 4.650811
         8        20     1        0.134764   340072.935645    ;  uncertainty r = 0.000045, k = 2.589505
         9        23     1        0.136690   529560.176953    ;  uncertainty r = 0.000133, k = 21.676252
         9        26     1        0.135606   583965.507324    ;  uncertainty r = 0.000234, k = 25.240917
         9        27     1        0.138039   603019.000000    ;  uncertainty r = 0.000269, k = 27.992787
        10        27     1        0.145807   240009.066846    ;  uncertainty r = 0.000132, k = 9.981076
        10        41     1        0.109351   304415.163379    ;  uncertainty r = 0.000015, k = 2.578064
        11        12     1        0.142909   265099.966309    ;  uncertainty r = 0.000074, k = 19.987413
        11        16     1        0.141772   408480.722754    ;  uncertainty r = 0.000098, k = 21.356678
        11        17     1        0.140480   393359.689551    ;  uncertainty r = 0.000129, k = 12.926661
        12        18     1        0.135701   405484.632471    ;  uncertainty r = 0.000094, k = 12.591558
        12        31     1        0.108670   334967.556738    ;  uncertainty r = 0.000039, k = 2.550649
        13        14     1        0.138905   362175.303809    ;  uncertainty r = 0.000027, k = 1.862514
        13        21     1        0.135460   342148.081152    ;  uncertainty r = 0.000038, k = 2.796473
        14        15     1        0.139206   376188.256299    ;  uncertainty r = 0.000034, k = 0.837546
        14        28     1        0.108734   335618.242285    ;  uncertainty r = 0.000017, k = 1.062658
        15        19     1        0.139238   351219.066699    ;  uncertainty r = 0.000057, k = 2.910415
        15        29     1        0.108702   335466.041113    ;  uncertainty r = 0.000027, k = 2.133558
        16        25     1        0.138134   414485.671875    ;  uncertainty r = 0.000152, k = 46.149631
        16        26     1        0.134220   511931.348535    ;  uncertainty r = 0.000162, k = 37.947159
        17        23     1        0.133502   401930.530811    ;  uncertainty r = 0.000050, k = 12.525176
        17        32     1        0.108909   328909.056299    ;  uncertainty r = 0.000017, k = 1.414382
        18        22     1        0.136045   317091.094971    ;  uncertainty r = 0.000085, k = 13.032072
        19        22     1        0.138229   312440.863965    ;  uncertainty r = 0.000113, k = 5.484150
        25        43     1        0.102331   445991.263379    ;  uncertainty r = 0.000074, k = 5.695910
        27        42     1        0.102176   435698.173926    ;  uncertainty r = 0.000065, k = 4.933138

[ angles ]
;       ai        aj        ak funct           theta             cth
         1         2         6     1      111.446632      714.965579    ;  uncertainty theta = 0.001347, k = 0.063500
         1         2        35     1      109.920456      408.541080    ;  uncertainty theta = 0.002019, k = 0.035643
         1         2        36     1      109.920456      408.541080    ;  uncertainty theta = 0.002019, k = 0.035643
         1        10         4     1      108.571205      585.454959    ;  uncertainty theta = 0.002684, k = 0.080005
         1        10        27     1      110.695145      629.201113    ;  uncertainty theta = 0.003363, k = 0.060631
         1        10        41     1      108.629013      407.998384    ;  uncertainty theta = 0.002420, k = 0.060827
         2         1        10     1      109.739174      566.930979    ;  uncertainty theta = 0.002556, k = 0.101379
         2         1        33     1      108.721451      397.694448    ;  uncertainty theta = 0.000995, k = 0.058468
         2         1        34     1      108.721451      397.694448    ;  uncertainty theta = 0.000995, k = 0.058468
         2         6         3     1      109.309448      562.168308    ;  uncertainty theta = 0.002274, k = 0.150711
         3         4        10     1      109.739174      566.930979    ;  uncertainty theta = 0.002556, k = 0.101379
         3         4        39     1      108.721451      397.694448    ;  uncertainty theta = 0.000995, k = 0.058468
         3         4        40     1      108.721451      397.694448    ;  uncertainty theta = 0.000995, k = 0.058468
         4         3         6     1      111.446632      714.965579    ;  uncertainty theta = 0.001347, k = 0.063500
         4         3        37     1      109.920456      408.541080    ;  uncertainty theta = 0.002019, k = 0.035643
         4         3        38     1      109.920456      408.541080    ;  uncertainty theta = 0.002019, k = 0.035643
         4        10        27     1      110.695145      629.201113    ;  uncertainty theta = 0.003363, k = 0.060631
         4        10        41     1      108.629013      407.998384    ;  uncertainty theta = 0.002420, k = 0.060827
         5         8        19     1      123.443153      352.584549    ;  uncertainty theta = 0.005265, k = 0.202869
         5         8        20     1      118.916702      524.557093    ;  uncertainty theta = 0.000766, k = 0.063533
         5        13        14     1      122.203163      367.950291    ;  uncertainty theta = 0.004353, k = 0.037976
         5        13        21     1      118.416054      506.109309    ;  uncertainty theta = 0.002115, k = 0.044491
         6         2        35     1      107.077614      463.773059    ;  uncertainty theta = 0.001757, k = 0.022995
         6         2        36     1      107.077614      463.773059    ;  uncertainty theta = 0.001757, k = 0.022995
         6         3        37     1      107.077614      463.773059    ;  uncertainty theta = 0.001757, k = 0.022995
         6         3        38     1      107.077614      463.773059    ;  uncertainty theta = 0.001757, k = 0.022995
         7        18        12     1      123.899353      454.889529    ;  uncertainty theta = 0.007821, k = 0.171516
         7        18        22     1      109.373581      391.320194    ;  uncertainty theta = 0.006800, k = 0.164994
         7        25        16     1      119.224144      500.356756    ;  uncertainty theta = 0.007743, k = 0.154682
         7        25        43     1      115.671547      342.647134    ;  uncertainty theta = 0.005031, k = 0.137279
         8         5        13     1      117.873718      466.681991    ;  uncertainty theta = 0.002635, k = 0.148809
         8         5        30     1      120.885605      275.043414    ;  uncertainty theta = 0.003104, k = 0.026017
         8        19        15     1      120.438950      350.580333    ;  uncertainty theta = 0.005824, k = 0.197361
         8        19        22     1      117.670982      370.869757    ;  uncertainty theta = 0.004854, k = 0.200131
         9        23        17     1      117.405907      409.091724    ;  uncertainty theta = 0.009909, k = 0.368529
         9        26        16     1      115.163925      449.798834    ;  uncertainty theta = 0.009201, k = 0.319419
         9        27        10     1      115.738304      413.869366    ;  uncertainty theta = 0.005162, k = 0.134914
         9        27        42     1      116.888809      449.093882    ;  uncertainty theta = 0.003631, k = 0.149201
        10         1        33     1      108.113968      386.815958    ;  uncertainty theta = 0.001236, k = 0.022845
        10         1        34     1      108.113968      386.815958    ;  uncertainty theta = 0.001236, k = 0.022845
        10         4        39     1      108.113968      386.815958    ;  uncertainty theta = 0.001236, k = 0.022845
        10         4        40     1      108.113968      386.815958    ;  uncertainty theta = 0.001236, k = 0.022845
        10        27        42     1      112.314087      333.078060    ;  uncertainty theta = 0.005154, k = 0.136962
        11        12        18     1      122.609093      502.034704    ;  uncertainty theta = 0.006594, k = 0.231523
        11        12        31     1      118.246948      263.018979    ;  uncertainty theta = 0.003307, k = 0.140025
        11        16        25     1      114.830894      513.358017    ;  uncertainty theta = 0.010800, k = 0.145157
        11        16        26     1      122.325439      556.874465    ;  uncertainty theta = 0.005514, k = 0.213432
        11        17        23     1      122.771446      733.546699    ;  uncertainty theta = 0.000700, k = 0.187700
        11        17        32     1      120.488602      261.364701    ;  uncertainty theta = 0.004016, k = 0.080792
        12        11        16     1      118.905373      450.985798    ;  uncertainty theta = 0.011967, k = 0.235830
        12        11        17     1      124.055801      412.073883    ;  uncertainty theta = 0.006373, k = 0.168321
        12        18        22     1      122.028122      424.483514    ;  uncertainty theta = 0.005195, k = 0.123799
        13         5        30     1      122.167213      276.182816    ;  uncertainty theta = 0.001979, k = 0.047518
        13        14        15     1      117.679276      490.002065    ;  uncertainty theta = 0.001416, k = 0.046653
        13        14        28     1      120.978439      282.379204    ;  uncertainty theta = 0.000982, k = 0.023307
        14        13        21     1      119.340736      515.983168    ;  uncertainty theta = 0.001915, k = 0.014125
        14        15        19     1      121.214966      509.817585    ;  uncertainty theta = 0.002734, k = 0.081000
        14        15        29     1      120.371567      284.922126    ;  uncertainty theta = 0.002332, k = 0.030236
        15        14        28     1      121.389076      278.892591    ;  uncertainty theta = 0.001182, k = 0.028037
        15        19        22     1      121.315536      424.642961    ;  uncertainty theta = 0.004416, k = 0.104832
        16        11        17     1      116.362961      446.234779    ;  uncertainty theta = 0.009890, k = 0.186945
        16        25        43     1      116.512878      341.276589    ;  uncertainty theta = 0.003150, k = 0.111921
        18         7        24     1      125.169579      465.504124    ;  uncertainty theta = 0.004782, k = 0.123035
        18         7        25     1      109.196457      357.305977    ;  uncertainty theta = 0.004550, k = 0.646036
        18        12        31     1      120.153549      280.401898    ;  uncertainty theta = 0.006397, k = 0.179472
        18        22        19     1      112.456802      460.636240    ;  uncertainty theta = 0.006083, k = 0.312528
        19         8        20     1      117.525742      487.064754    ;  uncertainty theta = 0.002079, k = 0.147581
        19        15        29     1      118.610435      275.458648    ;  uncertainty theta = 0.003647, k = 0.058785
        23         9        26     1      128.338516      741.962582    ;  uncertainty theta = 0.004129, k = 0.125041
        23         9        27     1      120.567825      828.209763    ;  uncertainty theta = 0.008667, k = 0.134183
        23        17        32     1      117.169785      317.561680    ;  uncertainty theta = 0.002675, k = 0.153868
        24         7        25     1      125.364395      833.127189    ;  uncertainty theta = 0.003904, k = 0.111240
        25        16        26     1      122.233353      682.574246    ;  uncertainty theta = 0.008608, k = 0.166809
        26         9        27     1      120.955894      893.334372    ;  uncertainty theta = 0.007109, k = 0.102047
        27        10        41     1      103.516541      447.268585    ;  uncertainty theta = 0.003472, k = 0.117225
        33         1        34     1      105.438766      311.403087    ;  uncertainty theta = 0.002031, k = 0.016795
        35         2        36     1      106.555054      320.243013    ;  uncertainty theta = 0.001313, k = 0.032691
        37         3        38     1      106.555054      320.242981    ;  uncertainty theta = 0.001313, k = 0.032691
        39         4        40     1      105.438766      311.403087    ;  uncertainty theta = 0.002031, k = 0.016795

[ dihedrals ] ; propers for gromacs 4.5 or higher, use funct 9
;       ai        aj        ak        al funct           phase               k        pn
         1         2         6         3     9        0.000000       -3.090921         1    ;  uncertainty k = 1.764725
         1         2         6         3     9      180.000000        0.099645         2    ;  uncertainty k = 1.147878
         1         2         6         3     9        0.000000        0.937069         3    ;  uncertainty k = 0.257052
         1         2         6         3     9      180.000000       -0.348699         4    ;  uncertainty k = 0.188482
         1        10         4         3     9        0.000000       -7.182170         1    ;  uncertainty k = 1.160296
         1        10         4         3     9      180.000000        0.651721         2    ;  uncertainty k = 0.689257
         1        10         4         3     9        0.000000        1.337200         3    ;  uncertainty k = 0.165866
         1        10         4         3     9      180.000000       -1.433187         4    ;  uncertainty k = 0.219126
         1        10         4        39     9        0.000000       -1.858870         1    ;  uncertainty k = 0.333669
         1        10         4        39     9      180.000000       -0.004379         2    ;  uncertainty k = 0.147654
         1        10         4        39     9        0.000000        0.298804         3    ;  uncertainty k = 0.155785
         1        10         4        39     9      180.000000       -0.141300         4    ;  uncertainty k = 0.079429
         1        10         4        40     9        0.000000       -1.858870         1    ;  uncertainty k = 0.333669
         1        10         4        40     9      180.000000       -0.004379         2    ;  uncertainty k = 0.147654
         1        10         4        40     9        0.000000        0.298804         3    ;  uncertainty k = 0.155785
         1        10         4        40     9      180.000000       -0.141300         4    ;  uncertainty k = 0.079429
         1        10        27         9     9        0.000000       -2.453916         1    ;  uncertainty k = 0.530313
         1        10        27         9     9      180.000000        0.482164         2    ;  uncertainty k = 0.200130
         1        10        27         9     9        0.000000        0.351128         3    ;  uncertainty k = 0.131084
         1        10        27         9     9      180.000000        0.364284         4    ;  uncertainty k = 0.085877
         1        10        27        42     9        0.000000        2.787691         1    ;  uncertainty k = 0.893880
         1        10        27        42     9      180.000000       -0.663636         2    ;  uncertainty k = 0.236090
         1        10        27        42     9        0.000000        0.218247         3    ;  uncertainty k = 0.119918
         1        10        27        42     9      180.000000        0.123444         4    ;  uncertainty k = 0.073280
         2         1        10         4     9        0.000000       -7.182170         1    ;  uncertainty k = 1.160296
         2         1        10         4     9      180.000000        0.651721         2    ;  uncertainty k = 0.689257
         2         1        10         4     9        0.000000        1.337200         3    ;  uncertainty k = 0.165866
         2         1        10         4     9      180.000000       -1.433187         4    ;  uncertainty k = 0.219126
         2         1        10        27     9        0.000000       -4.805351         1    ;  uncertainty k = 0.699432
         2         1        10        27     9      180.000000       -0.187719         2    ;  uncertainty k = 0.333372
         2         1        10        27     9        0.000000        1.016385         3    ;  uncertainty k = 0.162984
         2         1        10        27     9      180.000000       -0.078100         4    ;  uncertainty k = 0.195994
         2         1        10        41     9        0.000000       -1.687318         1    ;  uncertainty k = 0.555497
         2         1        10        41     9      180.000000       -0.643723         2    ;  uncertainty k = 0.388884
         2         1        10        41     9        0.000000        0.030461         3    ;  uncertainty k = 0.099396
         2         1        10        41     9      180.000000       -0.147535         4    ;  uncertainty k = 0.108264
         2         6         3         4     9        0.000000       -3.090921         1    ;  uncertainty k = 1.764725
         2         6         3         4     9      180.000000        0.099645         2    ;  uncertainty k = 1.147878
         2         6         3         4     9        0.000000        0.937069         3    ;  uncertainty k = 0.257052
         2         6         3         4     9      180.000000       -0.348699         4    ;  uncertainty k = 0.188482
         2         6         3        37     9        0.000000       -5.435409         1    ;  uncertainty k = 1.705293
         2         6         3        37     9      180.000000        0.309318         2    ;  uncertainty k = 0.194051
         2         6         3        37     9        0.000000        0.745836         3    ;  uncertainty k = 0.129775
         2         6         3        37     9      180.000000       -0.529315         4    ;  uncertainty k = 0.148432
         2         6         3        38     9        0.000000       -5.435409         1    ;  uncertainty k = 1.705293
         2         6         3        38     9      180.000000        0.309318         2    ;  uncertainty k = 0.194051
         2         6         3        38     9        0.000000        0.745836         3    ;  uncertainty k = 0.129775
         2         6         3        38     9      180.000000       -0.529315         4    ;  uncertainty k = 0.148432
         3         4        10        27     9        0.000000       -4.805351         1    ;  uncertainty k = 0.699432
         3         4        10        27     9      180.000000       -0.187719         2    ;  uncertainty k = 0.333372
         3         4        10        27     9        0.000000        1.016385         3    ;  uncertainty k = 0.162984
         3         4        10        27     9      180.000000       -0.078100         4    ;  uncertainty k = 0.195994
         3         4        10        41     9        0.000000       -1.687318         1    ;  uncertainty k = 0.555497
         3         4        10        41     9      180.000000       -0.643723         2    ;  uncertainty k = 0.388884
         3         4        10        41     9        0.000000        0.030461         3    ;  uncertainty k = 0.099396
         3         4        10        41     9      180.000000       -0.147535         4    ;  uncertainty k = 0.108264
         3         6         2        35     9        0.000000       -5.435409         1    ;  uncertainty k = 1.705293
         3         6         2        35     9      180.000000        0.309318         2    ;  uncertainty k = 0.194051
         3         6         2        35     9        0.000000        0.745836         3    ;  uncertainty k = 0.129775
         3         6         2        35     9      180.000000       -0.529315         4    ;  uncertainty k = 0.148432
         3         6         2        36     9        0.000000       -5.435409         1    ;  uncertainty k = 1.705293
         3         6         2        36     9      180.000000        0.309318         2    ;  uncertainty k = 0.194051
         3         6         2        36     9        0.000000        0.745836         3    ;  uncertainty k = 0.129775
         3         6         2        36     9      180.000000       -0.529315         4    ;  uncertainty k = 0.148432
         4        10         1        33     9        0.000000       -1.858870         1    ;  uncertainty k = 0.333669
         4        10         1        33     9      180.000000       -0.004379         2    ;  uncertainty k = 0.147654
         4        10         1        33     9        0.000000        0.298804         3    ;  uncertainty k = 0.155785
         4        10         1        33     9      180.000000       -0.141300         4    ;  uncertainty k = 0.079429
         4        10         1        34     9        0.000000       -1.858870         1    ;  uncertainty k = 0.333669
         4        10         1        34     9      180.000000       -0.004379         2    ;  uncertainty k = 0.147654
         4        10         1        34     9        0.000000        0.298804         3    ;  uncertainty k = 0.155785
         4        10         1        34     9      180.000000       -0.141300         4    ;  uncertainty k = 0.079429
         4        10        27         9     9        0.000000       -2.453916         1    ;  uncertainty k = 0.530313
         4        10        27         9     9      180.000000        0.482164         2    ;  uncertainty k = 0.200130
         4        10        27         9     9        0.000000        0.351128         3    ;  uncertainty k = 0.131084
         4        10        27         9     9      180.000000        0.364284         4    ;  uncertainty k = 0.085877
         4        10        27        42     9        0.000000        2.787691         1    ;  uncertainty k = 0.893880
         4        10        27        42     9      180.000000       -0.663636         2    ;  uncertainty k = 0.236090
         4        10        27        42     9        0.000000        0.218247         3    ;  uncertainty k = 0.119918
         4        10        27        42     9      180.000000        0.123444         4    ;  uncertainty k = 0.073280
         5         8        19        15     9        0.000000       -0.306313         1    ;  uncertainty k = 0.505391
         5         8        19        15     9      180.000000        5.699560         2    ;  uncertainty k = 1.071993
         5         8        19        15     9        0.000000        0.341049         3    ;  uncertainty k = 0.427163
         5         8        19        15     9      180.000000        1.286695         4    ;  uncertainty k = 0.336491
         5         8        19        22     9        0.000000        0.187020         1    ;  uncertainty k = 0.172596
         5         8        19        22     9      180.000000        8.056333         2    ;  uncertainty k = 0.451674
         5         8        19        22     9        0.000000        1.329418         3    ;  uncertainty k = 0.191609
         5         8        19        22     9      180.000000        1.706291         4    ;  uncertainty k = 0.098216
         5        13        14        15     9        0.000000        0.006656         1    ;  uncertainty k = 0.178742
         5        13        14        15     9      180.000000        9.851306         2    ;  uncertainty k = 0.487067
         5        13        14        15     9        0.000000       -0.289375         3    ;  uncertainty k = 0.510037
         5        13        14        15     9      180.000000        1.102178         4    ;  uncertainty k = 0.341530
         5        13        14        28     9        0.000000        0.058690         1    ;  uncertainty k = 0.184961
         5        13        14        28     9      180.000000        5.722279         2    ;  uncertainty k = 0.634542
         5        13        14        28     9        0.000000        1.318867         3    ;  uncertainty k = 0.348930
         5        13        14        28     9      180.000000        1.524759         4    ;  uncertainty k = 0.200416
         6         2         1        10     9        0.000000       -0.987582         1    ;  uncertainty k = 1.101438
         6         2         1        10     9      180.000000       -3.903901         2    ;  uncertainty k = 0.673252
         6         2         1        10     9        0.000000        1.869479         3    ;  uncertainty k = 0.389552
         6         2         1        10     9      180.000000       -0.727265         4    ;  uncertainty k = 0.139798
         6         2         1        33     9        0.000000       -1.784485         1    ;  uncertainty k = 0.521415
         6         2         1        33     9      180.000000       -0.100756         2    ;  uncertainty k = 0.269946
         6         2         1        33     9        0.000000        1.457848         3    ;  uncertainty k = 0.236777
         6         2         1        33     9      180.000000       -0.196225         4    ;  uncertainty k = 0.165688
         6         2         1        34     9        0.000000       -1.784485         1    ;  uncertainty k = 0.521415
         6         2         1        34     9      180.000000       -0.100756         2    ;  uncertainty k = 0.269946
         6         2         1        34     9        0.000000        1.457848         3    ;  uncertainty k = 0.236777
         6         2         1        34     9      180.000000       -0.196225         4    ;  uncertainty k = 0.165688
         6         3         4        10     9        0.000000       -0.987582         1    ;  uncertainty k = 1.101438
         6         3         4        10     9      180.000000       -3.903901         2    ;  uncertainty k = 0.673252
         6         3         4        10     9        0.000000        1.869479         3    ;  uncertainty k = 0.389552
         6         3         4        10     9      180.000000       -0.727265         4    ;  uncertainty k = 0.139798
         6         3         4        39     9        0.000000       -1.784485         1    ;  uncertainty k = 0.521415
         6         3         4        39     9      180.000000       -0.100756         2    ;  uncertainty k = 0.269946
         6         3         4        39     9        0.000000        1.457848         3    ;  uncertainty k = 0.236777
         6         3         4        39     9      180.000000       -0.196225         4    ;  uncertainty k = 0.165688
         6         3         4        40     9        0.000000       -1.784485         1    ;  uncertainty k = 0.521415
         6         3         4        40     9      180.000000       -0.100756         2    ;  uncertainty k = 0.269946
         6         3         4        40     9        0.000000        1.457848         3    ;  uncertainty k = 0.236777
         6         3         4        40     9      180.000000       -0.196225         4    ;  uncertainty k = 0.165688
         7        18        12        11     9        0.000000        0.340573         1    ;  uncertainty k = 0.665522
         7        18        12        11     9      180.000000       13.251140         2    ;  uncertainty k = 0.432376
         7        18        12        11     9        0.000000        1.610976         3    ;  uncertainty k = 0.155042
         7        18        12        11     9      180.000000        1.189102         4    ;  uncertainty k = 0.292368
         7        18        12        31     9        0.000000        0.150105         1    ;  uncertainty k = 0.506942
         7        18        12        31     9      180.000000       11.045070         2    ;  uncertainty k = 0.548551
         7        18        12        31     9        0.000000        1.699580         3    ;  uncertainty k = 0.413859
         7        18        12        31     9      180.000000        1.221080         4    ;  uncertainty k = 0.107529
         7        18        22        19     9        0.000000        3.557387         1    ;  uncertainty k = 1.973283
         7        18        22        19     9      180.000000        2.709337         2    ;  uncertainty k = 0.329995
         7        18        22        19     9        0.000000        1.871383         3    ;  uncertainty k = 0.337623
         7        18        22        19     9      180.000000        0.158680         4    ;  uncertainty k = 0.152150
         7        25        16        11     9        0.000000       -0.249917         1    ;  uncertainty k = 2.764419
         7        25        16        11     9      180.000000        4.980562         2    ;  uncertainty k = 0.744723
         7        25        16        11     9        0.000000       -0.343940         3    ;  uncertainty k = 0.259393
         7        25        16        11     9      180.000000        0.239944         4    ;  uncertainty k = 0.259469
         7        25        16        26     9        0.000000       -1.174552         1    ;  uncertainty k = 1.320754
         7        25        16        26     9      180.000000        8.402890         2    ;  uncertainty k = 0.570064
         7        25        16        26     9        0.000000        0.681774         3    ;  uncertainty k = 0.410278
         7        25        16        26     9      180.000000       -0.092027         4    ;  uncertainty k = 0.166526
         8         5        13        14     9        0.000000       -0.049959         1    ;  uncertainty k = 0.238365
         8         5        13        14     9      180.000000        8.709297         2    ;  uncertainty k = 0.507640
         8         5        13        14     9        0.000000       -0.103094         3    ;  uncertainty k = 0.454333
         8         5        13        14     9      180.000000        1.263124         4    ;  uncertainty k = 0.287252
         8         5        13        21     9        0.000000        0.023050         1    ;  uncertainty k = 0.157478
         8         5        13        21     9      180.000000       12.231401         2    ;  uncertainty k = 0.567990
         8         5        13        21     9        0.000000        1.527926         3    ;  uncertainty k = 0.329456
         8         5        13        21     9      180.000000        1.522411         4    ;  uncertainty k = 0.258192
         8        19        15        14     9        0.000000        0.015776         1    ;  uncertainty k = 0.049644
         8        19        15        14     9      180.000000        9.130352         2    ;  uncertainty k = 0.496855
         8        19        15        14     9        0.000000        0.154802         3    ;  uncertainty k = 0.380221
         8        19        15        14     9      180.000000        1.321067         4    ;  uncertainty k = 0.368043
         8        19        15        29     9        0.000000        0.146476         1    ;  uncertainty k = 0.242432
         8        19        15        29     9      180.000000        6.097361         2    ;  uncertainty k = 0.718867
         8        19        15        29     9        0.000000        1.323120         3    ;  uncertainty k = 0.435541
         8        19        15        29     9      180.000000        1.565701         4    ;  uncertainty k = 0.129358
         8        19        22        18     9        0.000000        3.375181         1    ;  uncertainty k = 0.927880
         8        19        22        18     9      180.000000        3.073703         2    ;  uncertainty k = 0.473090
         8        19        22        18     9        0.000000        0.853863         3    ;  uncertainty k = 0.229991
         8        19        22        18     9      180.000000        0.062188         4    ;  uncertainty k = 0.181706
         9        23        17        11     9        0.000000       -0.123053         1    ;  uncertainty k = 0.710889
         9        23        17        11     9      180.000000       17.295470         2    ;  uncertainty k = 0.558791
         9        23        17        11     9        0.000000       -0.484622         3    ;  uncertainty k = 0.710696
         9        23        17        11     9      180.000000        1.659117         4    ;  uncertainty k = 0.531554
         9        23        17        32     9        0.000000        0.140363         1    ;  uncertainty k = 1.003530
         9        23        17        32     9      180.000000       17.784671         2    ;  uncertainty k = 0.696329
         9        23        17        32     9        0.000000        1.402732         3    ;  uncertainty k = 0.776523
         9        23        17        32     9      180.000000        1.101035         4    ;  uncertainty k = 0.509450
         9        26        16        11     9        0.000000        0.089694         1    ;  uncertainty k = 0.666978
         9        26        16        11     9      180.000000       13.470669         2    ;  uncertainty k = 0.551903
         9        26        16        11     9        0.000000        0.244760         3    ;  uncertainty k = 0.767928
         9        26        16        11     9      180.000000        1.039045         4    ;  uncertainty k = 0.380847
         9        26        16        25     9        0.000000       -0.604947         1    ;  uncertainty k = 0.616067
         9        26        16        25     9      180.000000       17.261137         2    ;  uncertainty k = 0.669316
         9        26        16        25     9        0.000000        1.830492         3    ;  uncertainty k = 0.257224
         9        26        16        25     9      180.000000        1.489552         4    ;  uncertainty k = 0.567695
         9        27        10        41     9        0.000000       -0.171881         1    ;  uncertainty k = 0.465744
         9        27        10        41     9      180.000000       -0.309250         2    ;  uncertainty k = 0.107957
         9        27        10        41     9        0.000000        0.056452         3    ;  uncertainty k = 0.141276
         9        27        10        41     9      180.000000        0.291885         4    ;  uncertainty k = 0.069043
        10         1         2        35     9        0.000000        3.577619         1    ;  uncertainty k = 1.073611
        10         1         2        35     9      180.000000       -2.876487         2    ;  uncertainty k = 0.518010
        10         1         2        35     9        0.000000       -0.152945         3    ;  uncertainty k = 0.197940
        10         1         2        35     9      180.000000        0.397573         4    ;  uncertainty k = 0.144225
        10         1         2        36     9        0.000000        3.577619         1    ;  uncertainty k = 1.073611
        10         1         2        36     9      180.000000       -2.876487         2    ;  uncertainty k = 0.518010
        10         1         2        36     9        0.000000       -0.152945         3    ;  uncertainty k = 0.197940
        10         1         2        36     9      180.000000        0.397573         4    ;  uncertainty k = 0.144225
        10         4         3        37     9        0.000000        3.577619         1    ;  uncertainty k = 1.073611
        10         4         3        37     9      180.000000       -2.876487         2    ;  uncertainty k = 0.518010
        10         4         3        37     9        0.000000       -0.152945         3    ;  uncertainty k = 0.197940
        10         4         3        37     9      180.000000        0.397573         4    ;  uncertainty k = 0.144225
        10         4         3        38     9        0.000000        3.577619         1    ;  uncertainty k = 1.073611
        10         4         3        38     9      180.000000       -2.876487         2    ;  uncertainty k = 0.518010
        10         4         3        38     9        0.000000       -0.152945         3    ;  uncertainty k = 0.197940
        10         4         3        38     9      180.000000        0.397573         4    ;  uncertainty k = 0.144225
        10        27         9        23     9        0.000000        9.008900         1    ;  uncertainty k = 0.600230
        10        27         9        23     9      180.000000       11.325239         2    ;  uncertainty k = 0.248483
        10        27         9        23     9        0.000000        1.415253         3    ;  uncertainty k = 0.175583
        10        27         9        23     9      180.000000       -0.343169         4    ;  uncertainty k = 0.044929
        10        27         9        26     9        0.000000        9.516888         1    ;  uncertainty k = 0.628370
        10        27         9        26     9      180.000000       11.355936         2    ;  uncertainty k = 0.194344
        10        27         9        26     9        0.000000        1.285818         3    ;  uncertainty k = 0.211944
        10        27         9        26     9      180.000000       -0.337094         4    ;  uncertainty k = 0.069941
        11        12        18        22     9        0.000000        0.158077         1    ;  uncertainty k = 0.298901
        11        12        18        22     9      180.000000       21.047197         2    ;  uncertainty k = 0.527788
        11        12        18        22     9        0.000000        2.129485         3    ;  uncertainty k = 0.225860
        11        12        18        22     9      180.000000        0.649116         4    ;  uncertainty k = 0.518189
        11        16        25        43     9        0.000000        3.808331         1    ;  uncertainty k = 2.693199
        11        16        25        43     9      180.000000        6.821457         2    ;  uncertainty k = 0.693598
        11        16        25        43     9        0.000000        1.171439         3    ;  uncertainty k = 0.615640
        11        16        25        43     9      180.000000       -0.090492         4    ;  uncertainty k = 0.125201
        12        11        16        25     9        0.000000       -0.203033         1    ;  uncertainty k = 0.065289
        12        11        16        25     9      180.000000        8.946322         2    ;  uncertainty k = 1.116467
        12        11        16        25     9        0.000000        0.342806         3    ;  uncertainty k = 0.404625
        12        11        16        25     9      180.000000        0.965005         4    ;  uncertainty k = 0.282249
        12        11        16        26     9        0.000000        0.127288         1    ;  uncertainty k = 1.006259
        12        11        16        26     9      180.000000        8.291322         2    ;  uncertainty k = 1.620343
        12        11        16        26     9        0.000000       -0.166107         3    ;  uncertainty k = 0.312229
        12        11        16        26     9      180.000000        1.157667         4    ;  uncertainty k = 0.689574
        12        11        17        23     9        0.000000        0.041493         1    ;  uncertainty k = 0.566980
        12        11        17        23     9      180.000000       10.631367         2    ;  uncertainty k = 0.494457
        12        11        17        23     9        0.000000        0.328934         3    ;  uncertainty k = 0.175915
        12        11        17        23     9      180.000000        1.190809         4    ;  uncertainty k = 0.341150
        12        11        17        32     9        0.000000       -0.305649         1    ;  uncertainty k = 0.637135
        12        11        17        32     9      180.000000        5.885247         2    ;  uncertainty k = 0.624596
        12        11        17        32     9        0.000000        0.867282         3    ;  uncertainty k = 0.264848
        12        11        17        32     9      180.000000        0.721732         4    ;  uncertainty k = 0.160628
        12        18         7        24     9        0.000000       -2.771086         1    ;  uncertainty k = 0.850418
        12        18         7        24     9      180.000000        2.487743         2    ;  uncertainty k = 0.679590
        12        18         7        24     9        0.000000       -0.195667         3    ;  uncertainty k = 0.533283
        12        18         7        24     9      180.000000        0.040912         4    ;  uncertainty k = 0.178284
        12        18         7        25     9        0.000000        1.696703         1    ;  uncertainty k = 2.050719
        12        18         7        25     9      180.000000        0.795906         2    ;  uncertainty k = 0.791569
        12        18         7        25     9        0.000000        0.147044         3    ;  uncertainty k = 0.390438
        12        18         7        25     9      180.000000        0.413566         4    ;  uncertainty k = 0.112364
        12        18        22        19     9        0.000000        6.127245         1    ;  uncertainty k = 1.196738
        12        18        22        19     9      180.000000        6.392704         2    ;  uncertainty k = 0.276593
        12        18        22        19     9        0.000000       -0.841427         3    ;  uncertainty k = 0.310661
        12        18        22        19     9      180.000000        0.114565         4    ;  uncertainty k = 0.079158
        13         5         8        19     9        0.000000       -0.028157         1    ;  uncertainty k = 0.164194
        13         5         8        19     9      180.000000        8.671004         2    ;  uncertainty k = 0.512359
        13         5         8        19     9        0.000000        0.207433         3    ;  uncertainty k = 0.509188
        13         5         8        19     9      180.000000        1.302601         4    ;  uncertainty k = 0.281851
        13         5         8        20     9        0.000000       -0.002392         1    ;  uncertainty k = 0.247129
        13         5         8        20     9      180.000000       13.084887         2    ;  uncertainty k = 0.509633
        13         5         8        20     9        0.000000        1.474366         3    ;  uncertainty k = 0.306558
        13         5         8        20     9      180.000000        1.520558         4    ;  uncertainty k = 0.243651
        13        14        15        19     9        0.000000       -0.113542         1    ;  uncertainty k = 0.211768
        13        14        15        19     9      180.000000       13.972594         2    ;  uncertainty k = 0.306737
        13        14        15        19     9        0.000000       -0.786444         3    ;  uncertainty k = 0.554355
        13        14        15        19     9      180.000000        0.930464         4    ;  uncertainty k = 0.288428
        13        14        15        29     9        0.000000       -0.003440         1    ;  uncertainty k = 0.095641
        13        14        15        29     9      180.000000        7.538138         2    ;  uncertainty k = 0.273713
        13        14        15        29     9        0.000000        1.412643         3    ;  uncertainty k = 0.270752
        13        14        15        29     9      180.000000        1.740927         4    ;  uncertainty k = 0.123790
        14        13         5        30     9        0.000000        0.138635         1    ;  uncertainty k = 0.151239
        14        13         5        30     9      180.000000        5.451074         2    ;  uncertainty k = 0.660632
        14        13         5        30     9        0.000000        1.286115         3    ;  uncertainty k = 0.294094
        14        13         5        30     9      180.000000        1.480963         4    ;  uncertainty k = 0.179055
        14        15        19        22     9        0.000000       -0.061433         1    ;  uncertainty k = 0.394567
        14        15        19        22     9      180.000000       11.001417         2    ;  uncertainty k = 0.442558
        14        15        19        22     9        0.000000        1.353400         3    ;  uncertainty k = 0.227893
        14        15        19        22     9      180.000000        1.739036         4    ;  uncertainty k = 0.113826
        15        14        13        21     9        0.000000       -0.032001         1    ;  uncertainty k = 0.254449
        15        14        13        21     9      180.000000       12.251927         2    ;  uncertainty k = 0.522356
        15        14        13        21     9        0.000000        1.414423         3    ;  uncertainty k = 0.230243
        15        14        13        21     9      180.000000        1.530094         4    ;  uncertainty k = 0.209632
        15        19         8        20     9        0.000000        0.257162         1    ;  uncertainty k = 0.251999
        15        19         8        20     9      180.000000        8.387430         2    ;  uncertainty k = 0.311300
        15        19         8        20     9        0.000000        1.426919         3    ;  uncertainty k = 0.223314
        15        19         8        20     9      180.000000        1.675064         4    ;  uncertainty k = 0.138706
        15        19        22        18     9        0.000000        4.414472         1    ;  uncertainty k = 1.243775
        15        19        22        18     9      180.000000        3.908811         2    ;  uncertainty k = 0.200944
        15        19        22        18     9        0.000000        0.341516         3    ;  uncertainty k = 0.269750
        15        19        22        18     9      180.000000        0.133348         4    ;  uncertainty k = 0.072503
        16        11        12        18     9        0.000000       -0.102775         1    ;  uncertainty k = 1.103012
        16        11        12        18     9      180.000000        5.774829         2    ;  uncertainty k = 1.002212
        16        11        12        18     9        0.000000        0.326655         3    ;  uncertainty k = 0.431725
        16        11        12        18     9      180.000000        0.475177         4    ;  uncertainty k = 0.220363
        16        11        12        31     9        0.000000        0.756968         1    ;  uncertainty k = 1.242921
        16        11        12        31     9      180.000000        6.011457         2    ;  uncertainty k = 0.690223
        16        11        12        31     9        0.000000        0.988801         3    ;  uncertainty k = 0.256810
        16        11        12        31     9      180.000000        0.071487         4    ;  uncertainty k = 0.147236
        16        11        17        23     9        0.000000        0.185861         1    ;  uncertainty k = 0.799589
        16        11        17        23     9      180.000000       12.815022         2    ;  uncertainty k = 0.640604
        16        11        17        23     9        0.000000       -1.151135         3    ;  uncertainty k = 0.652321
        16        11        17        23     9      180.000000        0.702641         4    ;  uncertainty k = 0.329867
        16        11        17        32     9        0.000000       -0.470442         1    ;  uncertainty k = 0.998970
        16        11        17        32     9      180.000000        6.262069         2    ;  uncertainty k = 0.680235
        16        11        17        32     9        0.000000        0.658964         3    ;  uncertainty k = 0.113436
        16        11        17        32     9      180.000000        0.704707         4    ;  uncertainty k = 0.158282
        16        25         7        18     9        0.000000        1.840223         1    ;  uncertainty k = 2.227267
        16        25         7        18     9      180.000000        3.762376         2    ;  uncertainty k = 1.978173
        16        25         7        18     9        0.000000        0.819342         3    ;  uncertainty k = 0.385463
        16        25         7        18     9      180.000000        0.338608         4    ;  uncertainty k = 0.372937
        16        25         7        24     9        0.000000        2.634653         1    ;  uncertainty k = 1.326500
        16        25         7        24     9      180.000000       14.888137         2    ;  uncertainty k = 0.841670
        16        25         7        24     9        0.000000        1.008926         3    ;  uncertainty k = 0.521718
        16        25         7        24     9      180.000000       -0.695832         4    ;  uncertainty k = 0.484642
        16        26         9        23     9        0.000000        0.276145         1    ;  uncertainty k = 1.335661
        16        26         9        23     9      180.000000        6.523043         2    ;  uncertainty k = 0.919201
        16        26         9        23     9        0.000000        1.292605         3    ;  uncertainty k = 0.649649
        16        26         9        23     9      180.000000        0.668467         4    ;  uncertainty k = 0.322157
        16        26         9        27     9        0.000000        1.135451         1    ;  uncertainty k = 1.379790
        16        26         9        27     9      180.000000        8.604012         2    ;  uncertainty k = 0.640629
        16        26         9        27     9        0.000000        1.853030         3    ;  uncertainty k = 0.492877
        16        26         9        27     9      180.000000        0.839881         4    ;  uncertainty k = 0.252478
        17        11        12        18     9        0.000000        0.359534         1    ;  uncertainty k = 0.637092
        17        11        12        18     9      180.000000        4.942581         2    ;  uncertainty k = 1.210834
        17        11        12        18     9        0.000000        1.009250         3    ;  uncertainty k = 0.317120
        17        11        12        18     9      180.000000        0.340387         4    ;  uncertainty k = 0.239865
        17        11        12        31     9        0.000000        0.516607         1    ;  uncertainty k = 0.933113
        17        11        12        31     9      180.000000        5.079079         2    ;  uncertainty k = 0.259716
        17        11        12        31     9        0.000000        0.936421         3    ;  uncertainty k = 0.340673
        17        11        12        31     9      180.000000        0.136838         4    ;  uncertainty k = 0.185429
        17        11        16        25     9        0.000000       -0.680865         1    ;  uncertainty k = 0.399367
        17        11        16        25     9      180.000000        6.898350         2    ;  uncertainty k = 0.729050
        17        11        16        25     9        0.000000        0.049349         3    ;  uncertainty k = 0.498812
        17        11        16        25     9      180.000000        1.027095         4    ;  uncertainty k = 0.274344
        17        11        16        26     9        0.000000       -0.003490         1    ;  uncertainty k = 0.378491
        17        11        16        26     9      180.000000        7.415792         2    ;  uncertainty k = 0.947681
        17        11        16        26     9        0.000000       -0.427682         3    ;  uncertainty k = 0.320888
        17        11        16        26     9      180.000000        1.154877         4    ;  uncertainty k = 0.587689
        17        23         9        26     9        0.000000        0.046954         1    ;  uncertainty k = 1.540535
        17        23         9        26     9      180.000000        6.338129         2    ;  uncertainty k = 1.598818
        17        23         9        26     9        0.000000        0.705896         3    ;  uncertainty k = 0.490839
        17        23         9        26     9      180.000000        0.532139         4    ;  uncertainty k = 0.192087
        17        23         9        27     9        0.000000        0.413804         1    ;  uncertainty k = 0.754781
        17        23         9        27     9      180.000000        7.500246         2    ;  uncertainty k = 0.598630
        17        23         9        27     9        0.000000        1.852317         3    ;  uncertainty k = 0.729900
        17        23         9        27     9      180.000000        0.635443         4    ;  uncertainty k = 0.308160
        18         7        25        43     9        0.000000        3.052811         1    ;  uncertainty k = 2.696352
        18         7        25        43     9      180.000000        5.413107         2    ;  uncertainty k = 0.583822
        18         7        25        43     9        0.000000        1.395353         3    ;  uncertainty k = 0.648035
        18         7        25        43     9      180.000000       -0.077694         4    ;  uncertainty k = 0.215311
        19         8         5        30     9        0.000000        0.057379         1    ;  uncertainty k = 0.165911
        19         8         5        30     9      180.000000        5.716951         2    ;  uncertainty k = 0.832327
        19         8         5        30     9        0.000000        1.299980         3    ;  uncertainty k = 0.327602
        19         8         5        30     9      180.000000        1.492424         4    ;  uncertainty k = 0.176810
        19        15        14        28     9        0.000000        0.076709         1    ;  uncertainty k = 0.186984
        19        15        14        28     9      180.000000        7.523892         2    ;  uncertainty k = 0.356925
        19        15        14        28     9        0.000000        1.389232         3    ;  uncertainty k = 0.254789
        19        15        14        28     9      180.000000        1.744370         4    ;  uncertainty k = 0.166848
        20         8         5        30     9        0.000000       -0.230980         1    ;  uncertainty k = 0.291748
        20         8         5        30     9      180.000000        9.239380         2    ;  uncertainty k = 0.341179
        20         8         5        30     9        0.000000        0.839928         3    ;  uncertainty k = 0.293710
        20         8         5        30     9      180.000000        1.043063         4    ;  uncertainty k = 0.201990
        20         8        19        22     9        0.000000       -0.118217         1    ;  uncertainty k = 0.377181
        20         8        19        22     9      180.000000       12.180687         2    ;  uncertainty k = 0.208854
        20         8        19        22     9        0.000000        1.163066         3    ;  uncertainty k = 0.372808
        20         8        19        22     9      180.000000        1.259350         4    ;  uncertainty k = 0.184717
        21        13         5        30     9        0.000000       -0.271891         1    ;  uncertainty k = 0.249928
        21        13         5        30     9      180.000000        8.500019         2    ;  uncertainty k = 0.281498
        21        13         5        30     9        0.000000        0.815708         3    ;  uncertainty k = 0.327842
        21        13         5        30     9      180.000000        0.992978         4    ;  uncertainty k = 0.194491
        21        13        14        28     9        0.000000       -0.357248         1    ;  uncertainty k = 0.222188
        21        13        14        28     9      180.000000        8.920407         2    ;  uncertainty k = 0.265967
        21        13        14        28     9        0.000000        0.818892         3    ;  uncertainty k = 0.249596
        21        13        14        28     9      180.000000        0.905586         4    ;  uncertainty k = 0.175017
        22        18         7        24     9        0.000000       -2.115685         1    ;  uncertainty k = 1.776228
        22        18         7        24     9      180.000000        9.467664         2    ;  uncertainty k = 0.733626
        22        18         7        24     9        0.000000        0.382855         3    ;  uncertainty k = 0.546058
        22        18         7        24     9      180.000000       -0.376966         4    ;  uncertainty k = 0.618269
        22        18         7        25     9        0.000000        1.436634         1    ;  uncertainty k = 0.649192
        22        18         7        25     9      180.000000        3.978617         2    ;  uncertainty k = 0.577521
        22        18         7        25     9        0.000000        0.760624         3    ;  uncertainty k = 0.189300
        22        18         7        25     9      180.000000        0.540493         4    ;  uncertainty k = 0.122837
        22        18        12        31     9        0.000000        0.237582         1    ;  uncertainty k = 0.671880
        22        18        12        31     9      180.000000       16.348253         2    ;  uncertainty k = 0.334166
        22        18        12        31     9        0.000000        1.941459         3    ;  uncertainty k = 0.129914
        22        18        12        31     9      180.000000        0.952729         4    ;  uncertainty k = 0.532859
        22        19        15        29     9        0.000000       -0.034434         1    ;  uncertainty k = 0.160470
        22        19        15        29     9      180.000000        8.731727         2    ;  uncertainty k = 0.236065
        22        19        15        29     9        0.000000        0.877230         3    ;  uncertainty k = 0.258334
        22        19        15        29     9      180.000000        1.205956         4    ;  uncertainty k = 0.147542
        23         9        27        42     9        0.000000       10.227158         1    ;  uncertainty k = 0.696486
        23         9        27        42     9      180.000000        9.746149         2    ;  uncertainty k = 0.265102
        23         9        27        42     9        0.000000        1.254337         3    ;  uncertainty k = 0.583657
        23         9        27        42     9      180.000000       -0.460556         4    ;  uncertainty k = 0.239332
        24         7        25        43     9        0.000000        1.689355         1    ;  uncertainty k = 1.567627
        24         7        25        43     9      180.000000        9.020404         2    ;  uncertainty k = 0.602795
        24         7        25        43     9        0.000000        0.798625         3    ;  uncertainty k = 0.705819
        24         7        25        43     9      180.000000       -0.027900         4    ;  uncertainty k = 0.181724
        26         9        27        42     9        0.000000       11.719511         1    ;  uncertainty k = 0.895235
        26         9        27        42     9      180.000000       10.008579         2    ;  uncertainty k = 0.377862
        26         9        27        42     9        0.000000        1.228092         3    ;  uncertainty k = 0.540691
        26         9        27        42     9      180.000000       -0.522294         4    ;  uncertainty k = 0.194007
        26        16        25        43     9        0.000000        5.146709         1    ;  uncertainty k = 1.729586
        26        16        25        43     9      180.000000        8.118981         2    ;  uncertainty k = 0.569226
        26        16        25        43     9        0.000000        1.050009         3    ;  uncertainty k = 0.388614
        26        16        25        43     9      180.000000       -0.189759         4    ;  uncertainty k = 0.478966
        27        10         1        33     9        0.000000       -0.664477         1    ;  uncertainty k = 0.439752
        27        10         1        33     9      180.000000       -0.719545         2    ;  uncertainty k = 0.206246
        27        10         1        33     9        0.000000        1.110830         3    ;  uncertainty k = 0.090613
        27        10         1        33     9      180.000000       -0.312617         4    ;  uncertainty k = 0.084156
        27        10         1        34     9        0.000000       -0.664477         1    ;  uncertainty k = 0.439752
        27        10         1        34     9      180.000000       -0.719545         2    ;  uncertainty k = 0.206246
        27        10         1        34     9        0.000000        1.110830         3    ;  uncertainty k = 0.090613
        27        10         1        34     9      180.000000       -0.312617         4    ;  uncertainty k = 0.084156
        27        10         4        39     9        0.000000       -0.664477         1    ;  uncertainty k = 0.439752
        27        10         4        39     9      180.000000       -0.719545         2    ;  uncertainty k = 0.206246
        27        10         4        39     9        0.000000        1.110830         3    ;  uncertainty k = 0.090613
        27        10         4        39     9      180.000000       -0.312617         4    ;  uncertainty k = 0.084156
        27        10         4        40     9        0.000000       -0.664477         1    ;  uncertainty k = 0.439752
        27        10         4        40     9      180.000000       -0.719545         2    ;  uncertainty k = 0.206246
        27        10         4        40     9        0.000000        1.110830         3    ;  uncertainty k = 0.090613
        27        10         4        40     9      180.000000       -0.312617         4    ;  uncertainty k = 0.084156
        28        14        15        29     9        0.000000        0.032265         1    ;  uncertainty k = 0.250069
        28        14        15        29     9      180.000000        7.287468         2    ;  uncertainty k = 0.427630
        28        14        15        29     9        0.000000       -0.295849         3    ;  uncertainty k = 0.226115
        28        14        15        29     9      180.000000        0.117549         4    ;  uncertainty k = 0.137082
        33         1         2        35     9        0.000000       -0.225271         1    ;  uncertainty k = 0.371621
        33         1         2        35     9      180.000000        0.719911         2    ;  uncertainty k = 0.314572
        33         1         2        35     9        0.000000        0.112053         3    ;  uncertainty k = 0.052184
        33         1         2        35     9      180.000000       -0.321413         4    ;  uncertainty k = 0.066104
        33         1         2        36     9        0.000000       -0.225271         1    ;  uncertainty k = 0.371621
        33         1         2        36     9      180.000000        0.719911         2    ;  uncertainty k = 0.314572
        33         1         2        36     9        0.000000        0.112053         3    ;  uncertainty k = 0.052184
        33         1         2        36     9      180.000000       -0.321413         4    ;  uncertainty k = 0.066104
        33         1        10        41     9        0.000000        1.333899         1    ;  uncertainty k = 0.470364
        33         1        10        41     9      180.000000       -0.346033         2    ;  uncertainty k = 0.220491
        33         1        10        41     9        0.000000        0.040957         3    ;  uncertainty k = 0.124052
        33         1        10        41     9      180.000000        0.039296         4    ;  uncertainty k = 0.035575
        34         1         2        35     9        0.000000       -0.225271         1    ;  uncertainty k = 0.371621
        34         1         2        35     9      180.000000        0.719911         2    ;  uncertainty k = 0.314572
        34         1         2        35     9        0.000000        0.112053         3    ;  uncertainty k = 0.052184
        34         1         2        35     9      180.000000       -0.321413         4    ;  uncertainty k = 0.066104
        34         1         2        36     9        0.000000       -0.225271         1    ;  uncertainty k = 0.371621
        34         1         2        36     9      180.000000        0.719911         2    ;  uncertainty k = 0.314572
        34         1         2        36     9        0.000000        0.112053         3    ;  uncertainty k = 0.052184
        34         1         2        36     9      180.000000       -0.321413         4    ;  uncertainty k = 0.066104
        34         1        10        41     9        0.000000        1.333899         1    ;  uncertainty k = 0.470364
        34         1        10        41     9      180.000000       -0.346033         2    ;  uncertainty k = 0.220491
        34         1        10        41     9        0.000000        0.040957         3    ;  uncertainty k = 0.124052
        34         1        10        41     9      180.000000        0.039296         4    ;  uncertainty k = 0.035575
        37         3         4        39     9        0.000000       -0.225271         1    ;  uncertainty k = 0.371621
        37         3         4        39     9      180.000000        0.719911         2    ;  uncertainty k = 0.314572
        37         3         4        39     9        0.000000        0.112053         3    ;  uncertainty k = 0.052184
        37         3         4        39     9      180.000000       -0.321413         4    ;  uncertainty k = 0.066104
        37         3         4        40     9        0.000000       -0.225271         1    ;  uncertainty k = 0.371621
        37         3         4        40     9      180.000000        0.719911         2    ;  uncertainty k = 0.314572
        37         3         4        40     9        0.000000        0.112053         3    ;  uncertainty k = 0.052184
        37         3         4        40     9      180.000000       -0.321413         4    ;  uncertainty k = 0.066104
        38         3         4        39     9        0.000000       -0.225271         1    ;  uncertainty k = 0.371621
        38         3         4        39     9      180.000000        0.719911         2    ;  uncertainty k = 0.314572
        38         3         4        39     9        0.000000        0.112053         3    ;  uncertainty k = 0.052184
        38         3         4        39     9      180.000000       -0.321413         4    ;  uncertainty k = 0.066104
        38         3         4        40     9        0.000000       -0.225271         1    ;  uncertainty k = 0.371621
        38         3         4        40     9      180.000000        0.719912         2    ;  uncertainty k = 0.314572
        38         3         4        40     9        0.000000        0.112053         3    ;  uncertainty k = 0.052184
        38         3         4        40     9      180.000000       -0.321413         4    ;  uncertainty k = 0.066104
        39         4        10        41     9        0.000000        1.333899         1    ;  uncertainty k = 0.470364
        39         4        10        41     9      180.000000       -0.346033         2    ;  uncertainty k = 0.220491
        39         4        10        41     9        0.000000        0.040957         3    ;  uncertainty k = 0.124052
        39         4        10        41     9      180.000000        0.039296         4    ;  uncertainty k = 0.035575
        40         4        10        41     9        0.000000        1.333899         1    ;  uncertainty k = 0.470364
        40         4        10        41     9      180.000000       -0.346033         2    ;  uncertainty k = 0.220491
        40         4        10        41     9        0.000000        0.040957         3    ;  uncertainty k = 0.124052
        40         4        10        41     9      180.000000        0.039296         4    ;  uncertainty k = 0.035575
        41        10        27        42     9        0.000000        0.976342         1    ;  uncertainty k = 0.742025
        41        10        27        42     9      180.000000       -1.754256         2    ;  uncertainty k = 0.294904
        41        10        27        42     9        0.000000       -0.016582         3    ;  uncertainty k = 0.098588
        41        10        27        42     9      180.000000        0.124158         4    ;  uncertainty k = 0.074181

[ dihedrals ] ; impropers
;       ai        aj        ak        al funct           phase               k        pn
         5         8        13        30     4      180.000000        1.109680         2    ;  uncertainty k = 0.271256
         5        13        30         8     4      180.000000        1.109680         2    ;  uncertainty k = 0.271256
         5        30         8        13     4      180.000000        1.109680         2    ;  uncertainty k = 0.271256
         7        18        24        25     4      180.000000       49.070827         2    ;  uncertainty k = 0.058072
         7        24        25        18     4      180.000000       49.070827         2    ;  uncertainty k = 0.058072
         7        25        18        24     4      180.000000       49.070827         2    ;  uncertainty k = 0.058072
         8         5        19        20     4      180.000000       14.318672         2    ;  uncertainty k = 0.052158
         8        19        20         5     4      180.000000       14.318672         2    ;  uncertainty k = 0.052158
         8        20         5        19     4      180.000000       14.318672         2    ;  uncertainty k = 0.052158
         9        23        26        27     4      180.000000       45.842474         2    ;  uncertainty k = 0.095180
         9        26        27        23     4      180.000000       45.842474         2    ;  uncertainty k = 0.095180
         9        27        23        26     4      180.000000       45.842474         2    ;  uncertainty k = 0.095180
        11        12        16        17     4      180.000000        2.772898         2    ;  uncertainty k = 0.753068
        11        16        17        12     4      180.000000        2.772898         2    ;  uncertainty k = 0.753068
        11        17        12        16     4      180.000000        2.772898         2    ;  uncertainty k = 0.753068
        12        11        18        31     4      180.000000        7.740396         2    ;  uncertainty k = 0.324666
        12        18        31        11     4      180.000000        7.740396         2    ;  uncertainty k = 0.324666
        12        31        11        18     4      180.000000        7.740396         2    ;  uncertainty k = 0.324666
        13         5        14        21     4      180.000000       17.110314         2    ;  uncertainty k = 0.053382
        13        14        21         5     4      180.000000       17.110314         2    ;  uncertainty k = 0.053382
        13        21         5        14     4      180.000000       17.110314         2    ;  uncertainty k = 0.053382
        14        13        15        28     4      180.000000        2.090574         2    ;  uncertainty k = 0.191083
        14        15        28        13     4      180.000000        2.090574         2    ;  uncertainty k = 0.191083
        14        28        13        15     4      180.000000        2.090574         2    ;  uncertainty k = 0.191083
        15        14        19        29     4      180.000000        3.395592         2    ;  uncertainty k = 0.158338
        15        19        29        14     4      180.000000        3.395592         2    ;  uncertainty k = 0.158338
        15        29        14        19     4      180.000000        3.395592         2    ;  uncertainty k = 0.158338
        16        11        25        26     4      180.000000       30.906749         2    ;  uncertainty k = 0.095459
        16        25        26        11     4      180.000000       30.906749         2    ;  uncertainty k = 0.095459
        16        26        11        25     4      180.000000       30.906749         2    ;  uncertainty k = 0.095459
        17        11        23        32     4      180.000000       17.082719         2    ;  uncertainty k = 0.043230
        17        23        32        11     4      180.000000       17.082719         2    ;  uncertainty k = 0.043230
        17        32        11        23     4      180.000000       17.082719         2    ;  uncertainty k = 0.043230
        18         7        12        22     4      180.000000       13.156201         2    ;  uncertainty k = 0.245448
        18        12        22         7     4      180.000000       13.156201         2    ;  uncertainty k = 0.245448
        18        22         7        12     4      180.000000       13.156201         2    ;  uncertainty k = 0.245448
        19         8        15        22     4      180.000000       11.909887         2    ;  uncertainty k = 0.191881
        19        15        22         8     4      180.000000       11.909887         2    ;  uncertainty k = 0.191881
        19        22         8        15     4      180.000000       11.909887         2    ;  uncertainty k = 0.191881
        25         7        16        43     4      180.000000        1.145741         2    ;  uncertainty k = 0.575394
        25        16        43         7     4      180.000000        1.145741         2    ;  uncertainty k = 0.575394
        25        43         7        16     4      180.000000        1.145741         2    ;  uncertainty k = 0.575394
        27         9        10        42     4      180.000000        0.697783         2    ;  uncertainty k = 0.769517
        27        10        42         9     4      180.000000        0.697783         2    ;  uncertainty k = 0.769517
        27        42         9        10     4      180.000000        0.697783         2    ;  uncertainty k = 0.769517

[ pairs ]
;       ai        aj funct
         1         3     1
         1         9     1
         1        39     1
         1        40     1
         1        42     1
         2         4     1
         2        27     1
         2        37     1
         2        38     1
         2        41     1
         3        27     1
         3        35     1
         3        36     1
         3        41     1
         4         9     1
         4        33     1
         4        34     1
         4        42     1
         5        15     1
         5        22     1
         5        28     1
         6        10     1
         6        33     1
         6        34     1
         6        39     1
         6        40     1
         7        11     1
         7        19     1
         7        26     1
         7        31     1
         8        14     1
         8        18     1
         8        21     1
         8        29     1
         9        11     1
         9        25     1
         9        32     1
         9        41     1
        10        23     1
        10        26     1
        10        35     1
        10        36     1
        10        37     1
        10        38     1
        11        22     1
        11        43     1
        12        19     1
        12        23     1
        12        24     1
        12        25     1
        12        26     1
        12        32     1
        13        19     1
        13        20     1
        13        29     1
        14        22     1
        14        30     1
        15        18     1
        15        20     1
        15        21     1
        16        18     1
        16        23     1
        16        24     1
        16        27     1
        16        31     1
        16        32     1
        17        18     1
        17        25     1
        17        26     1
        17        27     1
        17        31     1
        18        43     1
        19        28     1
        19        30     1
        20        22     1
        20        30     1
        21        28     1
        21        30     1
        22        24     1
        22        25     1
        22        29     1
        22        31     1
        23        42     1
        24        43     1
        26        42     1
        26        43     1
        27        33     1
        27        34     1
        27        39     1
        27        40     1
        28        29     1
        33        35     1
        33        36     1
        33        41     1
        34        35     1
        34        36     1
        34        41     1
        37        39     1
        37        40     1
        38        39     1
        38        40     1
        39        41     1
        40        41     1
        41        42     1
