; ITP file created by ByteFF-joint-25, 2026-02-17 09:25:56.800744

[ atomtypes ]
;name           bonded.type        at.num        mass        charge   ptype           sigma         epsilon
 c0bf                                   6      0.0000       0.00000       A     3.39787e-01     4.51000e-01    ;  uncertainty sigma = 0.000007, epsilon = 0.000697
 c1bf                                   6      0.0000       0.00000       A     3.39778e-01     4.50893e-01    ;  uncertainty sigma = 0.000003, epsilon = 0.000829
 c2bf                                   6      0.0000       0.00000       A     3.39778e-01     4.50893e-01    ;  uncertainty sigma = 0.000003, epsilon = 0.000829
 c3bf                                   6      0.0000       0.00000       A     3.39787e-01     4.51000e-01    ;  uncertainty sigma = 0.000007, epsilon = 0.000697
 c4bf                                   6      0.0000       0.00000       A     3.31526e-01     4.13477e-01    ;  uncertainty sigma = 0.000006, epsilon = 0.000754
 o5bf                                   8      0.0000       0.00000       A     3.15613e-01     3.03556e-01    ;  uncertainty sigma = 0.000019, epsilon = 0.001085
 c6bf                                   6      0.0000       0.00000       A     3.31526e-01     4.13629e-01    ;  uncertainty sigma = 0.000021, epsilon = 0.001534
 c7bf                                   6      0.0000       0.00000       A     3.31525e-01     4.12996e-01    ;  uncertainty sigma = 0.000006, epsilon = 0.000558
 c8bf                                   6      0.0000       0.00000       A     3.31531e-01     4.13819e-01    ;  uncertainty sigma = 0.000011, epsilon = 0.000840
 c9bf                                   6      0.0000       0.00000       A     3.39779e-01     4.51067e-01    ;  uncertainty sigma = 0.000013, epsilon = 0.000925
 c10bf                                  6      0.0000       0.00000       A     3.31548e-01     4.13569e-01    ;  uncertainty sigma = 0.000015, epsilon = 0.000849
 c11bf                                  6      0.0000       0.00000       A     3.31522e-01     4.12958e-01    ;  uncertainty sigma = 0.000012, epsilon = 0.001253
 c12bf                                  6      0.0000       0.00000       A     3.31521e-01     4.13309e-01    ;  uncertainty sigma = 0.000005, epsilon = 0.000624
 c13bf                                  6      0.0000       0.00000       A     3.31522e-01     4.13402e-01    ;  uncertainty sigma = 0.000004, epsilon = 0.000568
 c14bf                                  6      0.0000       0.00000       A     3.31532e-01     4.13487e-01    ;  uncertainty sigma = 0.000005, epsilon = 0.000789
 c15bf                                  6      0.0000       0.00000       A     3.31511e-01     4.13080e-01    ;  uncertainty sigma = 0.000032, epsilon = 0.001434
 c16bf                                  6      0.0000       0.00000       A     3.31541e-01     4.13611e-01    ;  uncertainty sigma = 0.000007, epsilon = 0.001414
 c17bf                                  6      0.0000       0.00000       A     3.31533e-01     4.13472e-01    ;  uncertainty sigma = 0.000019, epsilon = 0.001268
 c18bf                                  6      0.0000       0.00000       A     3.31544e-01     4.13185e-01    ;  uncertainty sigma = 0.000012, epsilon = 0.000998
 c19bf                                  6      0.0000       0.00000       A     3.39781e-01     4.51010e-01    ;  uncertainty sigma = 0.000010, epsilon = 0.000495
 f20bf                                  9      0.0000       0.00000       A     3.03426e-01     3.47978e-01    ;  uncertainty sigma = 0.000008, epsilon = 0.000768
 o21bf                                  8      0.0000       0.00000       A     3.15661e-01     3.03543e-01    ;  uncertainty sigma = 0.000052, epsilon = 0.003674
 n22bf                                  7      0.0000       0.00000       A     3.38435e-01     3.93631e-01    ;  uncertainty sigma = 0.000019, epsilon = 0.001026
 o23bf                                  8      0.0000       0.00000       A     3.04836e-01     6.11111e-01    ;  uncertainty sigma = 0.000016, epsilon = 0.000705
 n24bf                                  7      0.0000       0.00000       A     3.18112e-01     6.85211e-01    ;  uncertainty sigma = 0.000039, epsilon = 0.001300
 n25bf                                  7      0.0000       0.00000       A     3.38454e-01     3.93310e-01    ;  uncertainty sigma = 0.000044, epsilon = 0.001741
 n26bf                                  7      0.0000       0.00000       A     3.27898e-01     6.46446e-01    ;  uncertainty sigma = 0.000031, epsilon = 0.005668
 h27bf                                  1      0.0000       0.00000       A     2.62564e-01     6.70556e-02    ;  uncertainty sigma = 0.000012, epsilon = 0.000465
 h28bf                                  1      0.0000       0.00000       A     2.62562e-01     6.73680e-02    ;  uncertainty sigma = 0.000008, epsilon = 0.000365
 h29bf                                  1      0.0000       0.00000       A     2.62521e-01     6.67593e-02    ;  uncertainty sigma = 0.000018, epsilon = 0.000881
 h30bf                                  1      0.0000       0.00000       A     2.53663e-01     6.71784e-02    ;  uncertainty sigma = 0.000041, epsilon = 0.000925
 h31bf                                  1      0.0000       0.00000       A     2.60021e-01     8.67664e-02    ;  uncertainty sigma = 0.000009, epsilon = 0.000445
 h32bf                                  1      0.0000       0.00000       A     2.60021e-01     8.67664e-02    ;  uncertainty sigma = 0.000009, epsilon = 0.000445
 h33bf                                  1      0.0000       0.00000       A     2.42188e-01     8.67182e-02    ;  uncertainty sigma = 0.000018, epsilon = 0.000739
 h34bf                                  1      0.0000       0.00000       A     2.42188e-01     8.67182e-02    ;  uncertainty sigma = 0.000018, epsilon = 0.000739
 h35bf                                  1      0.0000       0.00000       A     2.42188e-01     8.67182e-02    ;  uncertainty sigma = 0.000018, epsilon = 0.000739
 h36bf                                  1      0.0000       0.00000       A     2.42188e-01     8.67182e-02    ;  uncertainty sigma = 0.000018, epsilon = 0.000739
 h37bf                                  1      0.0000       0.00000       A     2.60021e-01     8.67664e-02    ;  uncertainty sigma = 0.000009, epsilon = 0.000445
 h38bf                                  1      0.0000       0.00000       A     2.60021e-01     8.67664e-02    ;  uncertainty sigma = 0.000009, epsilon = 0.000445
 h39bf                                  1      0.0000       0.00000       A     2.42212e-01     8.65674e-02    ;  uncertainty sigma = 0.000016, epsilon = 0.000625
 h40bf                                  1      0.0000       0.00000       A     2.42211e-01     8.62742e-02    ;  uncertainty sigma = 0.000023, epsilon = 0.000772
 h41bf                                  1      0.0000       0.00000       A     2.42211e-01     8.62742e-02    ;  uncertainty sigma = 0.000023, epsilon = 0.000772
 h42bf                                  1      0.0000       0.00000       A     1.10703e-01     4.14050e-02    ;  uncertainty sigma = 0.000035, epsilon = 0.000993
 c43bf                                  6      0.0000       0.00000       A     3.39771e-01     4.50957e-01    ;  uncertainty sigma = 0.000011, epsilon = 0.000524
 h44bf                                  1      0.0000       0.00000       A     2.60038e-01     8.68166e-02    ;  uncertainty sigma = 0.000008, epsilon = 0.000678
 h45bf                                  1      0.0000       0.00000       A     2.60038e-01     8.68166e-02    ;  uncertainty sigma = 0.000008, epsilon = 0.000678
 h46bf                                  1      0.0000       0.00000       A     2.60038e-01     8.68166e-02    ;  uncertainty sigma = 0.000008, epsilon = 0.000678
 f47bf                                  9      0.0000       0.00000       A     3.03401e-01     3.48403e-01    ;  uncertainty sigma = 0.000015, epsilon = 0.000906
 h48bf                                  1      0.0000       0.00000       A     2.62548e-01     6.71486e-02    ;  uncertainty sigma = 0.000008, epsilon = 0.000492

[ moleculetype ]
;name             nrexcl
 MOL                   3

[ atoms ]
;       nr            type      resi   res      atom      cgnr      charge          mass ; qtot
         1            c0bf         1   UNL        c0         1    -0.12711       12.0110 ; qtot   -0.127
         2            c1bf         1   UNL        c1         2     0.13209       12.0110 ; qtot    0.005
         3            c2bf         1   UNL        c2         3     0.13209       12.0110 ; qtot    0.137
         4            c3bf         1   UNL        c3         4    -0.12711       12.0110 ; qtot    0.010
         5            c4bf         1   UNL        c4         5    -0.19164       12.0110 ; qtot   -0.182
         6            o5bf         1   UNL        o5         6    -0.41527       15.9990 ; qtot   -0.597
         7            c6bf         1   UNL        c6         7     0.69966       12.0110 ; qtot    0.103
         8            c7bf         1   UNL        c7         8     0.14567       12.0110 ; qtot    0.248
         9            c8bf         1   UNL        c8         9     0.92952       12.0110 ; qtot    1.178
        10            c9bf         1   UNL        c9        10     0.24784       12.0110 ; qtot    1.426
        11           c10bf         1   UNL       c10        11    -0.40942       12.0110 ; qtot    1.016
        12           c11bf         1   UNL       c11        12    -0.04462       12.0110 ; qtot    0.972
        13           c12bf         1   UNL       c12        13     0.14413       12.0110 ; qtot    1.116
        14           c13bf         1   UNL       c13        14    -0.16248       12.0110 ; qtot    0.953
        15           c14bf         1   UNL       c14        15    -0.09069       12.0110 ; qtot    0.863
        16           c15bf         1   UNL       c15        16     0.63737       12.0110 ; qtot    1.500
        17           c16bf         1   UNL       c16        17     0.52297       12.0110 ; qtot    2.023
        18           c17bf         1   UNL       c17        18     0.00581       12.0110 ; qtot    2.029
        19           c18bf         1   UNL       c18        19     0.04787       12.0110 ; qtot    2.077
        20           c19bf         1   UNL       c19        20     0.09492       12.0110 ; qtot    2.172
        21           f20bf         1   UNL       f20        21    -0.13805       18.9980 ; qtot    2.034
        22           o21bf         1   UNL       o21        22    -0.20957       15.9990 ; qtot    1.824
        23           n22bf         1   UNL       n22        23    -0.77257       14.0070 ; qtot    1.051
        24           o23bf         1   UNL       o23        24    -0.59210       15.9990 ; qtot    0.459
        25           n24bf         1   UNL       n24        25    -0.43581       14.0070 ; qtot    0.024
        26           n25bf         1   UNL       n25        26    -0.83390       14.0070 ; qtot   -0.810
        27           n26bf         1   UNL       n26        27    -0.86394       14.0070 ; qtot   -1.674
        28           h27bf         1   UNL       h27        28     0.16075        1.0080 ; qtot   -1.514
        29           h28bf         1   UNL       h28        29     0.17297        1.0080 ; qtot   -1.341
        30           h29bf         1   UNL       h29        30     0.16397        1.0080 ; qtot   -1.177
        31           h30bf         1   UNL       h30        31     0.02960        1.0080 ; qtot   -1.147
        32           h31bf         1   UNL       h31        32     0.05892        1.0080 ; qtot   -1.088
        33           h32bf         1   UNL       h32        33     0.05892        1.0080 ; qtot   -1.029
        34           h33bf         1   UNL       h33        34     0.04655        1.0080 ; qtot   -0.983
        35           h34bf         1   UNL       h34        35     0.04655        1.0080 ; qtot   -0.936
        36           h35bf         1   UNL       h35        36     0.04655        1.0080 ; qtot   -0.890
        37           h36bf         1   UNL       h36        37     0.04655        1.0080 ; qtot   -0.843
        38           h37bf         1   UNL       h37        38     0.05892        1.0080 ; qtot   -0.784
        39           h38bf         1   UNL       h38        39     0.05892        1.0080 ; qtot   -0.725
        40           h39bf         1   UNL       h39        40     0.07162        1.0080 ; qtot   -0.654
        41           h40bf         1   UNL       h40        41     0.07170        1.0080 ; qtot   -0.582
        42           h41bf         1   UNL       h41        42     0.07170        1.0080 ; qtot   -0.510
        43           h42bf         1   UNL       h42        43     0.44845        1.0080 ; qtot   -0.062
        44           c43bf         1   UNL       c43        44    -0.11306       12.0110 ; qtot   -0.175
        45           h44bf         1   UNL       h44        45     0.04813        1.0080 ; qtot   -0.127
        46           h45bf         1   UNL       h45        46     0.04813        1.0080 ; qtot   -0.078
        47           h46bf         1   UNL       h46        47     0.04813        1.0080 ; qtot   -0.030
        48           f47bf         1   UNL       f47        48    -0.12685       18.9980 ; qtot   -0.157
        49           h48bf         1   UNL       h48        49     0.15722        1.0080 ; qtot    0.000

[ bonds ]
;       ai        aj funct               r               k
         1         2     1        0.153564   209800.351904    ;  uncertainty r = 0.000030, k = 4.398850
         1        10     1        0.153800   204926.313672    ;  uncertainty r = 0.000079, k = 2.875806
         1        32     1        0.109644   310935.400293    ;  uncertainty r = 0.000023, k = 1.135247
         1        33     1        0.109644   310935.400293    ;  uncertainty r = 0.000023, k = 1.135247
         2         6     1        0.142789   254488.480176    ;  uncertainty r = 0.000039, k = 2.801925
         2        34     1        0.109818   309244.843652    ;  uncertainty r = 0.000020, k = 0.854841
         2        35     1        0.109818   309244.843652    ;  uncertainty r = 0.000020, k = 0.854841
         3         4     1        0.153564   209800.351904    ;  uncertainty r = 0.000030, k = 4.398850
         3         6     1        0.142789   254488.480176    ;  uncertainty r = 0.000039, k = 2.801925
         3        36     1        0.109818   309244.843652    ;  uncertainty r = 0.000020, k = 0.854841
         3        37     1        0.109818   309244.843652    ;  uncertainty r = 0.000020, k = 0.854841
         4        10     1        0.153800   204926.313672    ;  uncertainty r = 0.000079, k = 2.875806
         4        38     1        0.109644   310935.400293    ;  uncertainty r = 0.000023, k = 1.135247
         4        39     1        0.109644   310935.400293    ;  uncertainty r = 0.000023, k = 1.135247
         5         8     1        0.138747   361176.981592    ;  uncertainty r = 0.000032, k = 2.643594
         5        13     1        0.139007   367691.396045    ;  uncertainty r = 0.000031, k = 2.749255
         5        29     1        0.108780   338576.282275    ;  uncertainty r = 0.000013, k = 1.210219
         7        18     1        0.146472   253801.761768    ;  uncertainty r = 0.000225, k = 30.834108
         7        24     1        0.123463   648085.818066    ;  uncertainty r = 0.000090, k = 16.127328
         7        25     1        0.140519   253107.229004    ;  uncertainty r = 0.000317, k = 28.271581
         8        19     1        0.139121   358077.006348    ;  uncertainty r = 0.000040, k = 4.650805
         8        48     1        0.134764   340072.935645    ;  uncertainty r = 0.000045, k = 2.589479
         9        23     1        0.136645   531258.650098    ;  uncertainty r = 0.000130, k = 16.870261
         9        26     1        0.135843   605002.314063    ;  uncertainty r = 0.000137, k = 21.993885
         9        27     1        0.138336   585582.159570    ;  uncertainty r = 0.000160, k = 23.152214
        10        27     1        0.145807   240009.066846    ;  uncertainty r = 0.000132, k = 9.981083
        10        40     1        0.109351   304415.163379    ;  uncertainty r = 0.000015, k = 2.578070
        11        12     1        0.142609   276741.236377    ;  uncertainty r = 0.000045, k = 22.788162
        11        16     1        0.142304   403079.445361    ;  uncertainty r = 0.000190, k = 28.254676
        11        17     1        0.140346   398727.436719    ;  uncertainty r = 0.000185, k = 20.646979
        12        18     1        0.135392   409011.792480    ;  uncertainty r = 0.000075, k = 13.944281
        12        30     1        0.108670   334774.368506    ;  uncertainty r = 0.000042, k = 1.864898
        13        14     1        0.138905   362175.303809    ;  uncertainty r = 0.000027, k = 1.862523
        13        21     1        0.135460   342148.055615    ;  uncertainty r = 0.000038, k = 2.796460
        14        15     1        0.139206   376188.256299    ;  uncertainty r = 0.000034, k = 0.837540
        14        28     1        0.108734   335618.242285    ;  uncertainty r = 0.000017, k = 1.062662
        15        19     1        0.139238   351219.066699    ;  uncertainty r = 0.000057, k = 2.910424
        15        49     1        0.108702   335466.041113    ;  uncertainty r = 0.000027, k = 2.133547
        16        25     1        0.137933   262230.003809    ;  uncertainty r = 0.000252, k = 28.711732
        16        26     1        0.134200   439782.017383    ;  uncertainty r = 0.000121, k = 18.014821
        17        23     1        0.133415   406678.594482    ;  uncertainty r = 0.000077, k = 10.237142
        17        31     1        0.108927   329046.113965    ;  uncertainty r = 0.000030, k = 1.909598
        18        22     1        0.136094   317342.073682    ;  uncertainty r = 0.000086, k = 7.248150
        19        22     1        0.138160   312130.434863    ;  uncertainty r = 0.000116, k = 5.846345
        20        25     1        0.146119   251648.013037    ;  uncertainty r = 0.000126, k = 10.141187
        20        41     1        0.109139   308351.121436    ;  uncertainty r = 0.000049, k = 2.785920
        20        42     1        0.109139   308351.121436    ;  uncertainty r = 0.000049, k = 2.785920
        20        44     1        0.153173   221268.276074    ;  uncertainty r = 0.000080, k = 9.087148
        27        43     1        0.102176   435698.173926    ;  uncertainty r = 0.000065, k = 4.933167
        44        45     1        0.109497   311013.058643    ;  uncertainty r = 0.000014, k = 2.226112
        44        46     1        0.109497   311013.058643    ;  uncertainty r = 0.000014, k = 2.226112
        44        47     1        0.109497   311013.058643    ;  uncertainty r = 0.000014, k = 2.226112

[ angles ]
;       ai        aj        ak funct           theta             cth
         1         2         6     1      111.446632      714.965579    ;  uncertainty theta = 0.001347, k = 0.063500
         1         2        34     1      109.920456      408.541080    ;  uncertainty theta = 0.002019, k = 0.035643
         1         2        35     1      109.920456      408.541080    ;  uncertainty theta = 0.002019, k = 0.035643
         1        10         4     1      108.571205      585.454959    ;  uncertainty theta = 0.002684, k = 0.080005
         1        10        27     1      110.695145      629.201113    ;  uncertainty theta = 0.003363, k = 0.060631
         1        10        40     1      108.629013      407.998416    ;  uncertainty theta = 0.002420, k = 0.060827
         2         1        10     1      109.739174      566.930979    ;  uncertainty theta = 0.002556, k = 0.101379
         2         1        32     1      108.721451      397.694416    ;  uncertainty theta = 0.000995, k = 0.058468
         2         1        33     1      108.721451      397.694416    ;  uncertainty theta = 0.000995, k = 0.058468
         2         6         3     1      109.309448      562.168308    ;  uncertainty theta = 0.002274, k = 0.150711
         3         4        10     1      109.739174      566.930979    ;  uncertainty theta = 0.002556, k = 0.101379
         3         4        38     1      108.721451      397.694416    ;  uncertainty theta = 0.000995, k = 0.058468
         3         4        39     1      108.721451      397.694416    ;  uncertainty theta = 0.000995, k = 0.058468
         4         3         6     1      111.446632      714.965579    ;  uncertainty theta = 0.001347, k = 0.063500
         4         3        36     1      109.920456      408.541080    ;  uncertainty theta = 0.002019, k = 0.035643
         4         3        37     1      109.920456      408.541080    ;  uncertainty theta = 0.002019, k = 0.035643
         4        10        27     1      110.695145      629.201113    ;  uncertainty theta = 0.003363, k = 0.060631
         4        10        40     1      108.629013      407.998416    ;  uncertainty theta = 0.002420, k = 0.060827
         5         8        19     1      123.443153      352.584549    ;  uncertainty theta = 0.005265, k = 0.202868
         5         8        48     1      118.916702      524.557093    ;  uncertainty theta = 0.000766, k = 0.063533
         5        13        14     1      122.203163      367.950323    ;  uncertainty theta = 0.004353, k = 0.037976
         5        13        21     1      118.416054      506.109309    ;  uncertainty theta = 0.002115, k = 0.044491
         6         2        34     1      107.077614      463.773059    ;  uncertainty theta = 0.001757, k = 0.022995
         6         2        35     1      107.077614      463.773059    ;  uncertainty theta = 0.001757, k = 0.022995
         6         3        36     1      107.077614      463.773059    ;  uncertainty theta = 0.001757, k = 0.022995
         6         3        37     1      107.077614      463.773059    ;  uncertainty theta = 0.001757, k = 0.022995
         7        18        12     1      124.829910      436.047515    ;  uncertainty theta = 0.006339, k = 0.172242
         7        18        22     1      108.579330      387.041132    ;  uncertainty theta = 0.010857, k = 0.251717
         7        25        16     1      122.596581      488.369286    ;  uncertainty theta = 0.007302, k = 0.142607
         7        25        20     1      113.350098      428.902647    ;  uncertainty theta = 0.003662, k = 0.223965
         8         5        13     1      117.873718      466.681991    ;  uncertainty theta = 0.002635, k = 0.148808
         8         5        29     1      120.885605      275.043414    ;  uncertainty theta = 0.003104, k = 0.026017
         8        19        15     1      120.438950      350.580333    ;  uncertainty theta = 0.005824, k = 0.197361
         8        19        22     1      117.649757      371.496853    ;  uncertainty theta = 0.004336, k = 0.212601
         9        23        17     1      116.430397      408.139285    ;  uncertainty theta = 0.008084, k = 0.292187
         9        26        16     1      117.554138      453.942708    ;  uncertainty theta = 0.007091, k = 0.106646
         9        27        10     1      115.769875      413.653066    ;  uncertainty theta = 0.005271, k = 0.143046
         9        27        43     1      116.919144      444.716566    ;  uncertainty theta = 0.004236, k = 0.155196
        10         1        32     1      108.113968      386.815958    ;  uncertainty theta = 0.001236, k = 0.022845
        10         1        33     1      108.113968      386.815958    ;  uncertainty theta = 0.001236, k = 0.022845
        10         4        38     1      108.113968      386.815958    ;  uncertainty theta = 0.001236, k = 0.022845
        10         4        39     1      108.113968      386.815958    ;  uncertainty theta = 0.001236, k = 0.022845
        10        27        43     1      112.314072      333.078060    ;  uncertainty theta = 0.005154, k = 0.136963
        11        12        18     1      121.231750      510.259855    ;  uncertainty theta = 0.006901, k = 0.205657
        11        12        30     1      118.301880      255.139520    ;  uncertainty theta = 0.002882, k = 0.281063
        11        16        25     1      117.985901      481.230227    ;  uncertainty theta = 0.008668, k = 0.216442
        11        16        26     1      122.692520      544.719822    ;  uncertainty theta = 0.005021, k = 0.162638
        11        17        23     1      122.573898      739.745194    ;  uncertainty theta = 0.001502, k = 0.185142
        11        17        31     1      120.138596      260.992195    ;  uncertainty theta = 0.003960, k = 0.108553
        12        11        16     1      120.113136      443.247799    ;  uncertainty theta = 0.011907, k = 0.207442
        12        11        17     1      123.477745      406.388429    ;  uncertainty theta = 0.007028, k = 0.174657
        12        18        22     1      122.495399      426.177039    ;  uncertainty theta = 0.003016, k = 0.092274
        13         5        29     1      122.167213      276.182880    ;  uncertainty theta = 0.001979, k = 0.047518
        13        14        15     1      117.679276      490.002065    ;  uncertainty theta = 0.001417, k = 0.046653
        13        14        28     1      120.978439      282.379204    ;  uncertainty theta = 0.000982, k = 0.023307
        14        13        21     1      119.340736      515.983232    ;  uncertainty theta = 0.001915, k = 0.014125
        14        15        19     1      121.214966      509.817585    ;  uncertainty theta = 0.002734, k = 0.081000
        14        15        49     1      120.371567      284.922126    ;  uncertainty theta = 0.002332, k = 0.030235
        15        14        28     1      121.389084      278.892591    ;  uncertainty theta = 0.001182, k = 0.028037
        15        19        22     1      121.313034      424.254318    ;  uncertainty theta = 0.004582, k = 0.111195
        16        11        17     1      117.303001      432.243220    ;  uncertainty theta = 0.005721, k = 0.211135
        16        25        20     1      114.871094      430.718399    ;  uncertainty theta = 0.006154, k = 0.144668
        18         7        24     1      123.526413      476.218059    ;  uncertainty theta = 0.002837, k = 0.079799
        18         7        25     1      114.824081      320.141471    ;  uncertainty theta = 0.011296, k = 0.614878
        18        12        30     1      120.565475      276.248606    ;  uncertainty theta = 0.006005, k = 0.204362
        18        22        19     1      112.349411      458.739759    ;  uncertainty theta = 0.005392, k = 0.291515
        19         8        48     1      117.525742      487.064754    ;  uncertainty theta = 0.002079, k = 0.147580
        19        15        49     1      118.610435      275.458648    ;  uncertainty theta = 0.003647, k = 0.058785
        20        44        45     1      107.639160      400.618160    ;  uncertainty theta = 0.002067, k = 0.035862
        20        44        46     1      107.639160      400.618160    ;  uncertainty theta = 0.002067, k = 0.035862
        20        44        47     1      107.639160      400.618160    ;  uncertainty theta = 0.002067, k = 0.035862
        23         9        26     1      128.699509      744.224276    ;  uncertainty theta = 0.002604, k = 0.101807
        23         9        27     1      120.633926      828.446045    ;  uncertainty theta = 0.008794, k = 0.131219
        23        17        31     1      117.368210      318.255364    ;  uncertainty theta = 0.003552, k = 0.161160
        24         7        25     1      122.281212      686.442927    ;  uncertainty theta = 0.003743, k = 0.090692
        25        16        26     1      117.291237      599.029274    ;  uncertainty theta = 0.012353, k = 0.110052
        25        20        41     1      103.992615      435.973553    ;  uncertainty theta = 0.003020, k = 0.059901
        25        20        42     1      103.992615      435.973553    ;  uncertainty theta = 0.003020, k = 0.059901
        25        20        44     1      110.914879      646.540682    ;  uncertainty theta = 0.002790, k = 0.107967
        26         9        27     1      121.224037      914.820147    ;  uncertainty theta = 0.007146, k = 0.101001
        27        10        40     1      103.516525      447.268585    ;  uncertainty theta = 0.003472, k = 0.117225
        32         1        33     1      105.438766      311.403087    ;  uncertainty theta = 0.002031, k = 0.016795
        34         2        35     1      106.555054      320.243013    ;  uncertainty theta = 0.001313, k = 0.032691
        36         3        37     1      106.555054      320.243013    ;  uncertainty theta = 0.001313, k = 0.032691
        38         4        39     1      105.438766      311.403087    ;  uncertainty theta = 0.002031, k = 0.016795
        41        20        42     1      106.763443      313.508079    ;  uncertainty theta = 0.005595, k = 0.063084
        41        20        44     1      108.674255      414.455442    ;  uncertainty theta = 0.002619, k = 0.018795
        42        20        44     1      108.674255      414.455442    ;  uncertainty theta = 0.002619, k = 0.018795
        45        44        46     1      105.503983      314.846192    ;  uncertainty theta = 0.002258, k = 0.018479
        45        44        47     1      105.503983      314.846192    ;  uncertainty theta = 0.002258, k = 0.018479
        46        44        47     1      105.503983      314.846192    ;  uncertainty theta = 0.002258, k = 0.018479

[ dihedrals ] ; propers for gromacs 4.5 or higher, use funct 9
;       ai        aj        ak        al funct           phase               k        pn
         1         2         6         3     9        0.000000       -3.090920         1    ;  uncertainty k = 1.764723
         1         2         6         3     9      180.000000        0.099645         2    ;  uncertainty k = 1.147878
         1         2         6         3     9        0.000000        0.937069         3    ;  uncertainty k = 0.257052
         1         2         6         3     9      180.000000       -0.348700         4    ;  uncertainty k = 0.188482
         1        10         4         3     9        0.000000       -7.182169         1    ;  uncertainty k = 1.160296
         1        10         4         3     9      180.000000        0.651721         2    ;  uncertainty k = 0.689257
         1        10         4         3     9        0.000000        1.337200         3    ;  uncertainty k = 0.165866
         1        10         4         3     9      180.000000       -1.433187         4    ;  uncertainty k = 0.219126
         1        10         4        38     9        0.000000       -1.858871         1    ;  uncertainty k = 0.333669
         1        10         4        38     9      180.000000       -0.004379         2    ;  uncertainty k = 0.147655
         1        10         4        38     9        0.000000        0.298804         3    ;  uncertainty k = 0.155785
         1        10         4        38     9      180.000000       -0.141300         4    ;  uncertainty k = 0.079428
         1        10         4        39     9        0.000000       -1.858871         1    ;  uncertainty k = 0.333669
         1        10         4        39     9      180.000000       -0.004379         2    ;  uncertainty k = 0.147655
         1        10         4        39     9        0.000000        0.298804         3    ;  uncertainty k = 0.155785
         1        10         4        39     9      180.000000       -0.141300         4    ;  uncertainty k = 0.079428
         1        10        27         9     9        0.000000       -2.505165         1    ;  uncertainty k = 0.386990
         1        10        27         9     9      180.000000        0.497922         2    ;  uncertainty k = 0.198476
         1        10        27         9     9        0.000000        0.367322         3    ;  uncertainty k = 0.126648
         1        10        27         9     9      180.000000        0.361622         4    ;  uncertainty k = 0.081111
         1        10        27        43     9        0.000000        2.787690         1    ;  uncertainty k = 0.893880
         1        10        27        43     9      180.000000       -0.663636         2    ;  uncertainty k = 0.236090
         1        10        27        43     9        0.000000        0.218247         3    ;  uncertainty k = 0.119918
         1        10        27        43     9      180.000000        0.123443         4    ;  uncertainty k = 0.073280
         2         1        10         4     9        0.000000       -7.182169         1    ;  uncertainty k = 1.160296
         2         1        10         4     9      180.000000        0.651721         2    ;  uncertainty k = 0.689257
         2         1        10         4     9        0.000000        1.337200         3    ;  uncertainty k = 0.165866
         2         1        10         4     9      180.000000       -1.433187         4    ;  uncertainty k = 0.219126
         2         1        10        27     9        0.000000       -4.805353         1    ;  uncertainty k = 0.699431
         2         1        10        27     9      180.000000       -0.187719         2    ;  uncertainty k = 0.333371
         2         1        10        27     9        0.000000        1.016385         3    ;  uncertainty k = 0.162984
         2         1        10        27     9      180.000000       -0.078100         4    ;  uncertainty k = 0.195994
         2         1        10        40     9        0.000000       -1.687319         1    ;  uncertainty k = 0.555497
         2         1        10        40     9      180.000000       -0.643722         2    ;  uncertainty k = 0.388884
         2         1        10        40     9        0.000000        0.030461         3    ;  uncertainty k = 0.099396
         2         1        10        40     9      180.000000       -0.147535         4    ;  uncertainty k = 0.108263
         2         6         3         4     9        0.000000       -3.090920         1    ;  uncertainty k = 1.764723
         2         6         3         4     9      180.000000        0.099645         2    ;  uncertainty k = 1.147878
         2         6         3         4     9        0.000000        0.937069         3    ;  uncertainty k = 0.257052
         2         6         3         4     9      180.000000       -0.348700         4    ;  uncertainty k = 0.188482
         2         6         3        36     9        0.000000       -5.435409         1    ;  uncertainty k = 1.705293
         2         6         3        36     9      180.000000        0.309318         2    ;  uncertainty k = 0.194051
         2         6         3        36     9        0.000000        0.745836         3    ;  uncertainty k = 0.129776
         2         6         3        36     9      180.000000       -0.529315         4    ;  uncertainty k = 0.148432
         2         6         3        37     9        0.000000       -5.435409         1    ;  uncertainty k = 1.705293
         2         6         3        37     9      180.000000        0.309318         2    ;  uncertainty k = 0.194051
         2         6         3        37     9        0.000000        0.745836         3    ;  uncertainty k = 0.129776
         2         6         3        37     9      180.000000       -0.529315         4    ;  uncertainty k = 0.148432
         3         4        10        27     9        0.000000       -4.805353         1    ;  uncertainty k = 0.699431
         3         4        10        27     9      180.000000       -0.187719         2    ;  uncertainty k = 0.333371
         3         4        10        27     9        0.000000        1.016385         3    ;  uncertainty k = 0.162984
         3         4        10        27     9      180.000000       -0.078100         4    ;  uncertainty k = 0.195994
         3         4        10        40     9        0.000000       -1.687319         1    ;  uncertainty k = 0.555497
         3         4        10        40     9      180.000000       -0.643722         2    ;  uncertainty k = 0.388884
         3         4        10        40     9        0.000000        0.030461         3    ;  uncertainty k = 0.099396
         3         4        10        40     9      180.000000       -0.147535         4    ;  uncertainty k = 0.108263
         3         6         2        34     9        0.000000       -5.435409         1    ;  uncertainty k = 1.705293
         3         6         2        34     9      180.000000        0.309318         2    ;  uncertainty k = 0.194051
         3         6         2        34     9        0.000000        0.745836         3    ;  uncertainty k = 0.129776
         3         6         2        34     9      180.000000       -0.529315         4    ;  uncertainty k = 0.148432
         3         6         2        35     9        0.000000       -5.435409         1    ;  uncertainty k = 1.705293
         3         6         2        35     9      180.000000        0.309318         2    ;  uncertainty k = 0.194051
         3         6         2        35     9        0.000000        0.745836         3    ;  uncertainty k = 0.129776
         3         6         2        35     9      180.000000       -0.529315         4    ;  uncertainty k = 0.148432
         4        10         1        32     9        0.000000       -1.858871         1    ;  uncertainty k = 0.333669
         4        10         1        32     9      180.000000       -0.004379         2    ;  uncertainty k = 0.147655
         4        10         1        32     9        0.000000        0.298804         3    ;  uncertainty k = 0.155785
         4        10         1        32     9      180.000000       -0.141300         4    ;  uncertainty k = 0.079428
         4        10         1        33     9        0.000000       -1.858871         1    ;  uncertainty k = 0.333669
         4        10         1        33     9      180.000000       -0.004379         2    ;  uncertainty k = 0.147655
         4        10         1        33     9        0.000000        0.298804         3    ;  uncertainty k = 0.155785
         4        10         1        33     9      180.000000       -0.141300         4    ;  uncertainty k = 0.079428
         4        10        27         9     9        0.000000       -2.505165         1    ;  uncertainty k = 0.386990
         4        10        27         9     9      180.000000        0.497922         2    ;  uncertainty k = 0.198476
         4        10        27         9     9        0.000000        0.367322         3    ;  uncertainty k = 0.126648
         4        10        27         9     9      180.000000        0.361622         4    ;  uncertainty k = 0.081111
         4        10        27        43     9        0.000000        2.787690         1    ;  uncertainty k = 0.893880
         4        10        27        43     9      180.000000       -0.663636         2    ;  uncertainty k = 0.236090
         4        10        27        43     9        0.000000        0.218247         3    ;  uncertainty k = 0.119918
         4        10        27        43     9      180.000000        0.123443         4    ;  uncertainty k = 0.073280
         5         8        19        15     9        0.000000       -0.306312         1    ;  uncertainty k = 0.505390
         5         8        19        15     9      180.000000        5.699561         2    ;  uncertainty k = 1.071993
         5         8        19        15     9        0.000000        0.341049         3    ;  uncertainty k = 0.427163
         5         8        19        15     9      180.000000        1.286695         4    ;  uncertainty k = 0.336492
         5         8        19        22     9        0.000000        0.209707         1    ;  uncertainty k = 0.181119
         5         8        19        22     9      180.000000        8.078771         2    ;  uncertainty k = 0.443297
         5         8        19        22     9        0.000000        1.333895         3    ;  uncertainty k = 0.197684
         5         8        19        22     9      180.000000        1.703363         4    ;  uncertainty k = 0.101849
         5        13        14        15     9        0.000000        0.006656         1    ;  uncertainty k = 0.178742
         5        13        14        15     9      180.000000        9.851308         2    ;  uncertainty k = 0.487067
         5        13        14        15     9        0.000000       -0.289375         3    ;  uncertainty k = 0.510037
         5        13        14        15     9      180.000000        1.102178         4    ;  uncertainty k = 0.341530
         5        13        14        28     9        0.000000        0.058690         1    ;  uncertainty k = 0.184961
         5        13        14        28     9      180.000000        5.722280         2    ;  uncertainty k = 0.634542
         5        13        14        28     9        0.000000        1.318868         3    ;  uncertainty k = 0.348930
         5        13        14        28     9      180.000000        1.524759         4    ;  uncertainty k = 0.200417
         6         2         1        10     9        0.000000       -0.987582         1    ;  uncertainty k = 1.101439
         6         2         1        10     9      180.000000       -3.903899         2    ;  uncertainty k = 0.673250
         6         2         1        10     9        0.000000        1.869479         3    ;  uncertainty k = 0.389552
         6         2         1        10     9      180.000000       -0.727265         4    ;  uncertainty k = 0.139798
         6         2         1        32     9        0.000000       -1.784485         1    ;  uncertainty k = 0.521414
         6         2         1        32     9      180.000000       -0.100756         2    ;  uncertainty k = 0.269946
         6         2         1        32     9        0.000000        1.457848         3    ;  uncertainty k = 0.236776
         6         2         1        32     9      180.000000       -0.196225         4    ;  uncertainty k = 0.165688
         6         2         1        33     9        0.000000       -1.784485         1    ;  uncertainty k = 0.521414
         6         2         1        33     9      180.000000       -0.100756         2    ;  uncertainty k = 0.269946
         6         2         1        33     9        0.000000        1.457848         3    ;  uncertainty k = 0.236776
         6         2         1        33     9      180.000000       -0.196225         4    ;  uncertainty k = 0.165688
         6         3         4        10     9        0.000000       -0.987582         1    ;  uncertainty k = 1.101439
         6         3         4        10     9      180.000000       -3.903899         2    ;  uncertainty k = 0.673250
         6         3         4        10     9        0.000000        1.869479         3    ;  uncertainty k = 0.389552
         6         3         4        10     9      180.000000       -0.727265         4    ;  uncertainty k = 0.139798
         6         3         4        38     9        0.000000       -1.784485         1    ;  uncertainty k = 0.521414
         6         3         4        38     9      180.000000       -0.100756         2    ;  uncertainty k = 0.269946
         6         3         4        38     9        0.000000        1.457848         3    ;  uncertainty k = 0.236776
         6         3         4        38     9      180.000000       -0.196225         4    ;  uncertainty k = 0.165688
         6         3         4        39     9        0.000000       -1.784485         1    ;  uncertainty k = 0.521414
         6         3         4        39     9      180.000000       -0.100756         2    ;  uncertainty k = 0.269946
         6         3         4        39     9        0.000000        1.457848         3    ;  uncertainty k = 0.236776
         6         3         4        39     9      180.000000       -0.196225         4    ;  uncertainty k = 0.165688
         7        18        12        11     9        0.000000        0.256613         1    ;  uncertainty k = 0.575026
         7        18        12        11     9      180.000000       13.401080         2    ;  uncertainty k = 0.341100
         7        18        12        11     9        0.000000        1.600538         3    ;  uncertainty k = 0.164214
         7        18        12        11     9      180.000000        1.141103         4    ;  uncertainty k = 0.258952
         7        18        12        30     9        0.000000        0.139551         1    ;  uncertainty k = 0.682926
         7        18        12        30     9      180.000000       10.921665         2    ;  uncertainty k = 0.628347
         7        18        12        30     9        0.000000        1.597373         3    ;  uncertainty k = 0.455236
         7        18        12        30     9      180.000000        1.210245         4    ;  uncertainty k = 0.071452
         7        18        22        19     9        0.000000        2.902985         1    ;  uncertainty k = 2.020008
         7        18        22        19     9      180.000000        3.090877         2    ;  uncertainty k = 0.218483
         7        18        22        19     9        0.000000        1.818534         3    ;  uncertainty k = 0.369449
         7        18        22        19     9      180.000000        0.161259         4    ;  uncertainty k = 0.202254
         7        25        16        11     9        0.000000        0.573754         1    ;  uncertainty k = 1.881961
         7        25        16        11     9      180.000000        4.335481         2    ;  uncertainty k = 0.926998
         7        25        16        11     9        0.000000        0.405799         3    ;  uncertainty k = 0.410832
         7        25        16        11     9      180.000000        0.107407         4    ;  uncertainty k = 0.097001
         7        25        16        26     9        0.000000        0.148677         1    ;  uncertainty k = 1.568123
         7        25        16        26     9      180.000000        7.543103         2    ;  uncertainty k = 0.431050
         7        25        16        26     9        0.000000        1.035712         3    ;  uncertainty k = 0.480706
         7        25        16        26     9      180.000000       -0.208642         4    ;  uncertainty k = 0.252091
         7        25        20        41     9        0.000000       -0.345242         1    ;  uncertainty k = 0.445883
         7        25        20        41     9      180.000000        1.267571         2    ;  uncertainty k = 0.279860
         7        25        20        41     9        0.000000        0.448112         3    ;  uncertainty k = 0.111020
         7        25        20        41     9      180.000000        0.589520         4    ;  uncertainty k = 0.043240
         7        25        20        42     9        0.000000       -0.345242         1    ;  uncertainty k = 0.445883
         7        25        20        42     9      180.000000        1.267571         2    ;  uncertainty k = 0.279860
         7        25        20        42     9        0.000000        0.448112         3    ;  uncertainty k = 0.111020
         7        25        20        42     9      180.000000        0.589520         4    ;  uncertainty k = 0.043240
         7        25        20        44     9        0.000000        0.500874         1    ;  uncertainty k = 0.333705
         7        25        20        44     9      180.000000        0.180034         2    ;  uncertainty k = 0.346969
         7        25        20        44     9        0.000000        0.726598         3    ;  uncertainty k = 0.208888
         7        25        20        44     9      180.000000        0.122054         4    ;  uncertainty k = 0.158631
         8         5        13        14     9        0.000000       -0.049959         1    ;  uncertainty k = 0.238364
         8         5        13        14     9      180.000000        8.709296         2    ;  uncertainty k = 0.507639
         8         5        13        14     9        0.000000       -0.103095         3    ;  uncertainty k = 0.454333
         8         5        13        14     9      180.000000        1.263123         4    ;  uncertainty k = 0.287252
         8         5        13        21     9        0.000000        0.023050         1    ;  uncertainty k = 0.157479
         8         5        13        21     9      180.000000       12.231400         2    ;  uncertainty k = 0.567990
         8         5        13        21     9        0.000000        1.527926         3    ;  uncertainty k = 0.329456
         8         5        13        21     9      180.000000        1.522411         4    ;  uncertainty k = 0.258192
         8        19        15        14     9        0.000000        0.015776         1    ;  uncertainty k = 0.049644
         8        19        15        14     9      180.000000        9.130352         2    ;  uncertainty k = 0.496855
         8        19        15        14     9        0.000000        0.154802         3    ;  uncertainty k = 0.380221
         8        19        15        14     9      180.000000        1.321067         4    ;  uncertainty k = 0.368043
         8        19        15        49     9        0.000000        0.146476         1    ;  uncertainty k = 0.242432
         8        19        15        49     9      180.000000        6.097361         2    ;  uncertainty k = 0.718867
         8        19        15        49     9        0.000000        1.323120         3    ;  uncertainty k = 0.435541
         8        19        15        49     9      180.000000        1.565701         4    ;  uncertainty k = 0.129358
         8        19        22        18     9        0.000000        3.642353         1    ;  uncertainty k = 0.787116
         8        19        22        18     9      180.000000        2.947558         2    ;  uncertainty k = 0.362365
         8        19        22        18     9        0.000000        0.855606         3    ;  uncertainty k = 0.229484
         8        19        22        18     9      180.000000        0.047733         4    ;  uncertainty k = 0.192573
         9        23        17        11     9        0.000000       -0.072405         1    ;  uncertainty k = 0.770218
         9        23        17        11     9      180.000000       17.273604         2    ;  uncertainty k = 0.605279
         9        23        17        11     9        0.000000       -0.496287         3    ;  uncertainty k = 0.676757
         9        23        17        11     9      180.000000        1.602076         4    ;  uncertainty k = 0.596362
         9        23        17        31     9        0.000000        0.074308         1    ;  uncertainty k = 0.978395
         9        23        17        31     9      180.000000       17.919801         2    ;  uncertainty k = 0.668021
         9        23        17        31     9        0.000000        1.366389         3    ;  uncertainty k = 0.782182
         9        23        17        31     9      180.000000        1.132681         4    ;  uncertainty k = 0.479665
         9        26        16        11     9        0.000000        0.234726         1    ;  uncertainty k = 0.761299
         9        26        16        11     9      180.000000       13.054612         2    ;  uncertainty k = 0.653015
         9        26        16        11     9        0.000000        0.231908         3    ;  uncertainty k = 0.871719
         9        26        16        11     9      180.000000        0.989392         4    ;  uncertainty k = 0.392380
         9        26        16        25     9        0.000000        0.437611         1    ;  uncertainty k = 0.561923
         9        26        16        25     9      180.000000       16.249550         2    ;  uncertainty k = 0.971909
         9        26        16        25     9        0.000000        1.833197         3    ;  uncertainty k = 0.320849
         9        26        16        25     9      180.000000        1.092354         4    ;  uncertainty k = 0.412916
         9        27        10        40     9        0.000000       -0.140403         1    ;  uncertainty k = 0.458987
         9        27        10        40     9      180.000000       -0.299246         2    ;  uncertainty k = 0.132432
         9        27        10        40     9        0.000000        0.051471         3    ;  uncertainty k = 0.152476
         9        27        10        40     9      180.000000        0.288509         4    ;  uncertainty k = 0.067555
        10         1         2        34     9        0.000000        3.577617         1    ;  uncertainty k = 1.073611
        10         1         2        34     9      180.000000       -2.876486         2    ;  uncertainty k = 0.518010
        10         1         2        34     9        0.000000       -0.152945         3    ;  uncertainty k = 0.197941
        10         1         2        34     9      180.000000        0.397574         4    ;  uncertainty k = 0.144225
        10         1         2        35     9        0.000000        3.577617         1    ;  uncertainty k = 1.073611
        10         1         2        35     9      180.000000       -2.876486         2    ;  uncertainty k = 0.518010
        10         1         2        35     9        0.000000       -0.152945         3    ;  uncertainty k = 0.197941
        10         1         2        35     9      180.000000        0.397574         4    ;  uncertainty k = 0.144225
        10         4         3        36     9        0.000000        3.577617         1    ;  uncertainty k = 1.073611
        10         4         3        36     9      180.000000       -2.876486         2    ;  uncertainty k = 0.518010
        10         4         3        36     9        0.000000       -0.152945         3    ;  uncertainty k = 0.197941
        10         4         3        36     9      180.000000        0.397574         4    ;  uncertainty k = 0.144225
        10         4         3        37     9        0.000000        3.577617         1    ;  uncertainty k = 1.073611
        10         4         3        37     9      180.000000       -2.876486         2    ;  uncertainty k = 0.518010
        10         4         3        37     9        0.000000       -0.152945         3    ;  uncertainty k = 0.197941
        10         4         3        37     9      180.000000        0.397574         4    ;  uncertainty k = 0.144225
        10        27         9        23     9        0.000000        9.093945         1    ;  uncertainty k = 0.673524
        10        27         9        23     9      180.000000       11.328686         2    ;  uncertainty k = 0.246478
        10        27         9        23     9        0.000000        1.388656         3    ;  uncertainty k = 0.179740
        10        27         9        23     9      180.000000       -0.343204         4    ;  uncertainty k = 0.041612
        10        27         9        26     9        0.000000       10.053080         1    ;  uncertainty k = 0.709062
        10        27         9        26     9      180.000000       11.500084         2    ;  uncertainty k = 0.166059
        10        27         9        26     9        0.000000        1.262159         3    ;  uncertainty k = 0.211791
        10        27         9        26     9      180.000000       -0.379702         4    ;  uncertainty k = 0.058109
        11        12        18        22     9        0.000000        0.134729         1    ;  uncertainty k = 0.315884
        11        12        18        22     9      180.000000       21.248794         2    ;  uncertainty k = 0.621963
        11        12        18        22     9        0.000000        2.038760         3    ;  uncertainty k = 0.327389
        11        12        18        22     9      180.000000        0.645044         4    ;  uncertainty k = 0.556736
        11        16        25        20     9        0.000000        2.878756         1    ;  uncertainty k = 1.164727
        11        16        25        20     9      180.000000        9.477015         2    ;  uncertainty k = 0.423860
        11        16        25        20     9        0.000000        0.979480         3    ;  uncertainty k = 0.822712
        11        16        25        20     9      180.000000       -0.106883         4    ;  uncertainty k = 0.469039
        12        11        16        25     9        0.000000       -0.083267         1    ;  uncertainty k = 0.274903
        12        11        16        25     9      180.000000        7.754160         2    ;  uncertainty k = 0.539898
        12        11        16        25     9        0.000000        0.311892         3    ;  uncertainty k = 0.539617
        12        11        16        25     9      180.000000        1.056198         4    ;  uncertainty k = 0.221063
        12        11        16        26     9        0.000000        0.256126         1    ;  uncertainty k = 0.905653
        12        11        16        26     9      180.000000        8.205797         2    ;  uncertainty k = 1.408001
        12        11        16        26     9        0.000000        0.028266         3    ;  uncertainty k = 0.298963
        12        11        16        26     9      180.000000        1.270996         4    ;  uncertainty k = 0.543598
        12        11        17        23     9        0.000000        0.202355         1    ;  uncertainty k = 0.365865
        12        11        17        23     9      180.000000       10.740474         2    ;  uncertainty k = 0.604175
        12        11        17        23     9        0.000000        0.288303         3    ;  uncertainty k = 0.238852
        12        11        17        23     9      180.000000        1.228552         4    ;  uncertainty k = 0.359252
        12        11        17        31     9        0.000000       -0.447713         1    ;  uncertainty k = 0.564177
        12        11        17        31     9      180.000000        5.951853         2    ;  uncertainty k = 0.610297
        12        11        17        31     9        0.000000        0.824680         3    ;  uncertainty k = 0.261455
        12        11        17        31     9      180.000000        0.694799         4    ;  uncertainty k = 0.185376
        12        18         7        24     9        0.000000       -2.840334         1    ;  uncertainty k = 1.029982
        12        18         7        24     9      180.000000        2.838927         2    ;  uncertainty k = 0.904586
        12        18         7        24     9        0.000000       -0.167650         3    ;  uncertainty k = 0.433540
        12        18         7        24     9      180.000000       -0.013948         4    ;  uncertainty k = 0.194156
        12        18         7        25     9        0.000000        2.134093         1    ;  uncertainty k = 2.129354
        12        18         7        25     9      180.000000        0.604507         2    ;  uncertainty k = 0.826757
        12        18         7        25     9        0.000000        0.438996         3    ;  uncertainty k = 0.364812
        12        18         7        25     9      180.000000        0.356171         4    ;  uncertainty k = 0.166318
        12        18        22        19     9        0.000000        6.025203         1    ;  uncertainty k = 1.077323
        12        18        22        19     9      180.000000        6.312811         2    ;  uncertainty k = 0.149858
        12        18        22        19     9        0.000000       -0.841516         3    ;  uncertainty k = 0.374149
        12        18        22        19     9      180.000000        0.115728         4    ;  uncertainty k = 0.111333
        13         5         8        19     9        0.000000       -0.028156         1    ;  uncertainty k = 0.164193
        13         5         8        19     9      180.000000        8.671004         2    ;  uncertainty k = 0.512359
        13         5         8        19     9        0.000000        0.207433         3    ;  uncertainty k = 0.509188
        13         5         8        19     9      180.000000        1.302601         4    ;  uncertainty k = 0.281851
        13         5         8        48     9        0.000000       -0.002393         1    ;  uncertainty k = 0.247130
        13         5         8        48     9      180.000000       13.084887         2    ;  uncertainty k = 0.509633
        13         5         8        48     9        0.000000        1.474366         3    ;  uncertainty k = 0.306558
        13         5         8        48     9      180.000000        1.520558         4    ;  uncertainty k = 0.243651
        13        14        15        19     9        0.000000       -0.113542         1    ;  uncertainty k = 0.211767
        13        14        15        19     9      180.000000       13.972592         2    ;  uncertainty k = 0.306737
        13        14        15        19     9        0.000000       -0.786444         3    ;  uncertainty k = 0.554355
        13        14        15        19     9      180.000000        0.930465         4    ;  uncertainty k = 0.288428
        13        14        15        49     9        0.000000       -0.003440         1    ;  uncertainty k = 0.095642
        13        14        15        49     9      180.000000        7.538138         2    ;  uncertainty k = 0.273712
        13        14        15        49     9        0.000000        1.412643         3    ;  uncertainty k = 0.270752
        13        14        15        49     9      180.000000        1.740928         4    ;  uncertainty k = 0.123790
        14        13         5        29     9        0.000000        0.138635         1    ;  uncertainty k = 0.151239
        14        13         5        29     9      180.000000        5.451074         2    ;  uncertainty k = 0.660633
        14        13         5        29     9        0.000000        1.286114         3    ;  uncertainty k = 0.294093
        14        13         5        29     9      180.000000        1.480962         4    ;  uncertainty k = 0.179055
        14        15        19        22     9        0.000000       -0.064056         1    ;  uncertainty k = 0.392115
        14        15        19        22     9      180.000000       11.007024         2    ;  uncertainty k = 0.446783
        14        15        19        22     9        0.000000        1.358780         3    ;  uncertainty k = 0.241782
        14        15        19        22     9      180.000000        1.735949         4    ;  uncertainty k = 0.120659
        15        14        13        21     9        0.000000       -0.032001         1    ;  uncertainty k = 0.254449
        15        14        13        21     9      180.000000       12.251927         2    ;  uncertainty k = 0.522356
        15        14        13        21     9        0.000000        1.414423         3    ;  uncertainty k = 0.230243
        15        14        13        21     9      180.000000        1.530094         4    ;  uncertainty k = 0.209632
        15        19         8        48     9        0.000000        0.257163         1    ;  uncertainty k = 0.251999
        15        19         8        48     9      180.000000        8.387430         2    ;  uncertainty k = 0.311299
        15        19         8        48     9        0.000000        1.426919         3    ;  uncertainty k = 0.223314
        15        19         8        48     9      180.000000        1.675064         4    ;  uncertainty k = 0.138706
        15        19        22        18     9        0.000000        4.636373         1    ;  uncertainty k = 1.026402
        15        19        22        18     9      180.000000        3.974903         2    ;  uncertainty k = 0.166262
        15        19        22        18     9        0.000000        0.382781         3    ;  uncertainty k = 0.329302
        15        19        22        18     9      180.000000        0.118990         4    ;  uncertainty k = 0.075799
        16        11        12        18     9        0.000000       -0.076518         1    ;  uncertainty k = 1.080281
        16        11        12        18     9      180.000000        6.555381         2    ;  uncertainty k = 0.923803
        16        11        12        18     9        0.000000        0.228076         3    ;  uncertainty k = 0.421581
        16        11        12        18     9      180.000000        0.553650         4    ;  uncertainty k = 0.189396
        16        11        12        30     9        0.000000        0.593873         1    ;  uncertainty k = 1.100056
        16        11        12        30     9      180.000000        6.236675         2    ;  uncertainty k = 0.580643
        16        11        12        30     9        0.000000        1.055882         3    ;  uncertainty k = 0.277166
        16        11        12        30     9      180.000000        0.214944         4    ;  uncertainty k = 0.171465
        16        11        17        23     9        0.000000       -0.016994         1    ;  uncertainty k = 0.595546
        16        11        17        23     9      180.000000       12.024062         2    ;  uncertainty k = 0.421824
        16        11        17        23     9        0.000000       -0.968238         3    ;  uncertainty k = 0.844689
        16        11        17        23     9      180.000000        0.798894         4    ;  uncertainty k = 0.159922
        16        11        17        31     9        0.000000       -0.159733         1    ;  uncertainty k = 0.854274
        16        11        17        31     9      180.000000        6.483961         2    ;  uncertainty k = 0.808849
        16        11        17        31     9        0.000000        0.638064         3    ;  uncertainty k = 0.087710
        16        11        17        31     9      180.000000        0.774618         4    ;  uncertainty k = 0.236799
        16        25         7        18     9        0.000000        1.933999         1    ;  uncertainty k = 1.951490
        16        25         7        18     9      180.000000        2.224383         2    ;  uncertainty k = 0.999916
        16        25         7        18     9        0.000000        0.983106         3    ;  uncertainty k = 0.290485
        16        25         7        18     9      180.000000        0.461488         4    ;  uncertainty k = 0.237954
        16        25         7        24     9        0.000000        2.724887         1    ;  uncertainty k = 2.500888
        16        25         7        24     9      180.000000       13.753575         2    ;  uncertainty k = 0.694594
        16        25         7        24     9        0.000000        0.922779         3    ;  uncertainty k = 0.090788
        16        25         7        24     9      180.000000       -0.444245         4    ;  uncertainty k = 0.513698
        16        25        20        41     9        0.000000        0.028515         1    ;  uncertainty k = 0.351990
        16        25        20        41     9      180.000000        1.429587         2    ;  uncertainty k = 0.441528
        16        25        20        41     9        0.000000        0.081883         3    ;  uncertainty k = 0.303274
        16        25        20        41     9      180.000000        0.560151         4    ;  uncertainty k = 0.085164
        16        25        20        42     9        0.000000        0.028515         1    ;  uncertainty k = 0.351990
        16        25        20        42     9      180.000000        1.429587         2    ;  uncertainty k = 0.441528
        16        25        20        42     9        0.000000        0.081883         3    ;  uncertainty k = 0.303274
        16        25        20        42     9      180.000000        0.560151         4    ;  uncertainty k = 0.085164
        16        25        20        44     9        0.000000       -0.577018         1    ;  uncertainty k = 0.562600
        16        25        20        44     9      180.000000        0.495605         2    ;  uncertainty k = 0.469928
        16        25        20        44     9        0.000000        0.444032         3    ;  uncertainty k = 0.182506
        16        25        20        44     9      180.000000        0.192286         4    ;  uncertainty k = 0.177669
        16        26         9        23     9        0.000000       -0.091403         1    ;  uncertainty k = 1.649492
        16        26         9        23     9      180.000000        6.625347         2    ;  uncertainty k = 0.857116
        16        26         9        23     9        0.000000        1.217486         3    ;  uncertainty k = 0.656240
        16        26         9        23     9      180.000000        0.767284         4    ;  uncertainty k = 0.322901
        16        26         9        27     9        0.000000        0.572092         1    ;  uncertainty k = 1.796524
        16        26         9        27     9      180.000000        9.076888         2    ;  uncertainty k = 0.720846
        16        26         9        27     9        0.000000        1.967773         3    ;  uncertainty k = 0.445067
        16        26         9        27     9      180.000000        0.873979         4    ;  uncertainty k = 0.276884
        17        11        12        18     9        0.000000        0.149037         1    ;  uncertainty k = 0.521768
        17        11        12        18     9      180.000000        5.253419         2    ;  uncertainty k = 1.039572
        17        11        12        18     9        0.000000        0.967220         3    ;  uncertainty k = 0.321450
        17        11        12        18     9      180.000000        0.400960         4    ;  uncertainty k = 0.240347
        17        11        12        30     9        0.000000        0.400693         1    ;  uncertainty k = 1.028720
        17        11        12        30     9      180.000000        5.374925         2    ;  uncertainty k = 0.259194
        17        11        12        30     9        0.000000        0.934403         3    ;  uncertainty k = 0.325657
        17        11        12        30     9      180.000000        0.077419         4    ;  uncertainty k = 0.144185
        17        11        16        25     9        0.000000       -0.650956         1    ;  uncertainty k = 0.644903
        17        11        16        25     9      180.000000        6.069149         2    ;  uncertainty k = 0.900827
        17        11        16        25     9        0.000000        0.130698         3    ;  uncertainty k = 0.308865
        17        11        16        25     9      180.000000        1.005233         4    ;  uncertainty k = 0.297426
        17        11        16        26     9        0.000000        0.038030         1    ;  uncertainty k = 0.419408
        17        11        16        26     9      180.000000        7.625433         2    ;  uncertainty k = 0.944440
        17        11        16        26     9        0.000000       -0.318825         3    ;  uncertainty k = 0.309960
        17        11        16        26     9      180.000000        1.207651         4    ;  uncertainty k = 0.577221
        17        23         9        26     9        0.000000        0.075359         1    ;  uncertainty k = 0.882870
        17        23         9        26     9      180.000000        6.538165         2    ;  uncertainty k = 1.384737
        17        23         9        26     9        0.000000        0.800451         3    ;  uncertainty k = 0.544209
        17        23         9        26     9      180.000000        0.515895         4    ;  uncertainty k = 0.219888
        17        23         9        27     9        0.000000        0.345932         1    ;  uncertainty k = 0.780093
        17        23         9        27     9      180.000000        7.807499         2    ;  uncertainty k = 0.530631
        17        23         9        27     9        0.000000        1.834583         3    ;  uncertainty k = 0.693167
        17        23         9        27     9      180.000000        0.637104         4    ;  uncertainty k = 0.276027
        18         7        25        20     9        0.000000        1.511528         1    ;  uncertainty k = 1.185004
        18         7        25        20     9      180.000000        7.803959         2    ;  uncertainty k = 0.626750
        18         7        25        20     9        0.000000        1.453701         3    ;  uncertainty k = 0.149057
        18         7        25        20     9      180.000000       -0.220097         4    ;  uncertainty k = 0.271334
        19         8         5        29     9        0.000000        0.057380         1    ;  uncertainty k = 0.165912
        19         8         5        29     9      180.000000        5.716951         2    ;  uncertainty k = 0.832327
        19         8         5        29     9        0.000000        1.299979         3    ;  uncertainty k = 0.327602
        19         8         5        29     9      180.000000        1.492424         4    ;  uncertainty k = 0.176810
        19        15        14        28     9        0.000000        0.076709         1    ;  uncertainty k = 0.186984
        19        15        14        28     9      180.000000        7.523892         2    ;  uncertainty k = 0.356925
        19        15        14        28     9        0.000000        1.389231         3    ;  uncertainty k = 0.254789
        19        15        14        28     9      180.000000        1.744370         4    ;  uncertainty k = 0.166848
        20        25         7        24     9        0.000000        1.477463         1    ;  uncertainty k = 1.433352
        20        25         7        24     9      180.000000       14.137884         2    ;  uncertainty k = 0.336856
        20        25         7        24     9        0.000000        0.242052         3    ;  uncertainty k = 0.430815
        20        25         7        24     9      180.000000       -0.199884         4    ;  uncertainty k = 0.324595
        20        25        16        26     9        0.000000        2.159097         1    ;  uncertainty k = 1.664973
        20        25        16        26     9      180.000000       10.824833         2    ;  uncertainty k = 0.742916
        20        25        16        26     9        0.000000        0.985294         3    ;  uncertainty k = 0.210297
        20        25        16        26     9      180.000000       -0.033924         4    ;  uncertainty k = 0.459759
        21        13         5        29     9        0.000000       -0.271890         1    ;  uncertainty k = 0.249928
        21        13         5        29     9      180.000000        8.500019         2    ;  uncertainty k = 0.281498
        21        13         5        29     9        0.000000        0.815708         3    ;  uncertainty k = 0.327842
        21        13         5        29     9      180.000000        0.992978         4    ;  uncertainty k = 0.194491
        21        13        14        28     9        0.000000       -0.357248         1    ;  uncertainty k = 0.222188
        21        13        14        28     9      180.000000        8.920407         2    ;  uncertainty k = 0.265967
        21        13        14        28     9        0.000000        0.818892         3    ;  uncertainty k = 0.249596
        21        13        14        28     9      180.000000        0.905586         4    ;  uncertainty k = 0.175017
        22        18         7        24     9        0.000000       -2.065374         1    ;  uncertainty k = 1.564903
        22        18         7        24     9      180.000000        9.700752         2    ;  uncertainty k = 0.531896
        22        18         7        24     9        0.000000        0.229408         3    ;  uncertainty k = 0.539933
        22        18         7        24     9      180.000000       -0.357082         4    ;  uncertainty k = 0.458388
        22        18         7        25     9        0.000000        1.674310         1    ;  uncertainty k = 1.320107
        22        18         7        25     9      180.000000        3.374833         2    ;  uncertainty k = 0.843919
        22        18         7        25     9        0.000000        0.697350         3    ;  uncertainty k = 0.374840
        22        18         7        25     9      180.000000        0.564164         4    ;  uncertainty k = 0.121473
        22        18        12        30     9        0.000000        0.183029         1    ;  uncertainty k = 0.788563
        22        18        12        30     9      180.000000       16.374972         2    ;  uncertainty k = 0.464730
        22        18        12        30     9        0.000000        1.923257         3    ;  uncertainty k = 0.064544
        22        18        12        30     9      180.000000        0.964566         4    ;  uncertainty k = 0.594975
        22        19         8        48     9        0.000000       -0.105793         1    ;  uncertainty k = 0.354022
        22        19         8        48     9      180.000000       12.165822         2    ;  uncertainty k = 0.214592
        22        19         8        48     9        0.000000        1.160865         3    ;  uncertainty k = 0.370829
        22        19         8        48     9      180.000000        1.261897         4    ;  uncertainty k = 0.194088
        22        19        15        49     9        0.000000       -0.025816         1    ;  uncertainty k = 0.162970
        22        19        15        49     9      180.000000        8.757822         2    ;  uncertainty k = 0.242306
        22        19        15        49     9        0.000000        0.878698         3    ;  uncertainty k = 0.265252
        22        19        15        49     9      180.000000        1.203360         4    ;  uncertainty k = 0.152721
        23         9        27        43     9        0.000000       10.289718         1    ;  uncertainty k = 0.671473
        23         9        27        43     9      180.000000        9.708731         2    ;  uncertainty k = 0.263556
        23         9        27        43     9        0.000000        1.249260         3    ;  uncertainty k = 0.563999
        23         9        27        43     9      180.000000       -0.441153         4    ;  uncertainty k = 0.253050
        25        20        44        45     9        0.000000        0.702222         1    ;  uncertainty k = 0.604000
        25        20        44        45     9      180.000000       -3.453008         2    ;  uncertainty k = 0.612439
        25        20        44        45     9        0.000000        1.381060         3    ;  uncertainty k = 0.087272
        25        20        44        45     9      180.000000       -0.207527         4    ;  uncertainty k = 0.107892
        25        20        44        46     9        0.000000        0.702222         1    ;  uncertainty k = 0.604000
        25        20        44        46     9      180.000000       -3.453008         2    ;  uncertainty k = 0.612439
        25        20        44        46     9        0.000000        1.381060         3    ;  uncertainty k = 0.087272
        25        20        44        46     9      180.000000       -0.207527         4    ;  uncertainty k = 0.107892
        25        20        44        47     9        0.000000        0.702222         1    ;  uncertainty k = 0.604000
        25        20        44        47     9      180.000000       -3.453008         2    ;  uncertainty k = 0.612439
        25        20        44        47     9        0.000000        1.381060         3    ;  uncertainty k = 0.087272
        25        20        44        47     9      180.000000       -0.207527         4    ;  uncertainty k = 0.107892
        26         9        27        43     9        0.000000       12.429669         1    ;  uncertainty k = 0.674967
        26         9        27        43     9      180.000000       10.330289         2    ;  uncertainty k = 0.421477
        26         9        27        43     9        0.000000        1.229435         3    ;  uncertainty k = 0.554087
        26         9        27        43     9      180.000000       -0.548151         4    ;  uncertainty k = 0.181940
        27        10         1        32     9        0.000000       -0.664477         1    ;  uncertainty k = 0.439753
        27        10         1        32     9      180.000000       -0.719545         2    ;  uncertainty k = 0.206247
        27        10         1        32     9        0.000000        1.110830         3    ;  uncertainty k = 0.090613
        27        10         1        32     9      180.000000       -0.312617         4    ;  uncertainty k = 0.084156
        27        10         1        33     9        0.000000       -0.664477         1    ;  uncertainty k = 0.439753
        27        10         1        33     9      180.000000       -0.719545         2    ;  uncertainty k = 0.206247
        27        10         1        33     9        0.000000        1.110830         3    ;  uncertainty k = 0.090613
        27        10         1        33     9      180.000000       -0.312617         4    ;  uncertainty k = 0.084156
        27        10         4        38     9        0.000000       -0.664477         1    ;  uncertainty k = 0.439753
        27        10         4        38     9      180.000000       -0.719545         2    ;  uncertainty k = 0.206247
        27        10         4        38     9        0.000000        1.110830         3    ;  uncertainty k = 0.090613
        27        10         4        38     9      180.000000       -0.312617         4    ;  uncertainty k = 0.084156
        27        10         4        39     9        0.000000       -0.664477         1    ;  uncertainty k = 0.439753
        27        10         4        39     9      180.000000       -0.719545         2    ;  uncertainty k = 0.206247
        27        10         4        39     9        0.000000        1.110830         3    ;  uncertainty k = 0.090613
        27        10         4        39     9      180.000000       -0.312617         4    ;  uncertainty k = 0.084156
        28        14        15        49     9        0.000000        0.032264         1    ;  uncertainty k = 0.250068
        28        14        15        49     9      180.000000        7.287468         2    ;  uncertainty k = 0.427630
        28        14        15        49     9        0.000000       -0.295848         3    ;  uncertainty k = 0.226115
        28        14        15        49     9      180.000000        0.117549         4    ;  uncertainty k = 0.137082
        29         5         8        48     9        0.000000       -0.230980         1    ;  uncertainty k = 0.291748
        29         5         8        48     9      180.000000        9.239380         2    ;  uncertainty k = 0.341179
        29         5         8        48     9        0.000000        0.839927         3    ;  uncertainty k = 0.293710
        29         5         8        48     9      180.000000        1.043063         4    ;  uncertainty k = 0.201990
        32         1         2        34     9        0.000000       -0.225271         1    ;  uncertainty k = 0.371621
        32         1         2        34     9      180.000000        0.719911         2    ;  uncertainty k = 0.314572
        32         1         2        34     9        0.000000        0.112053         3    ;  uncertainty k = 0.052184
        32         1         2        34     9      180.000000       -0.321413         4    ;  uncertainty k = 0.066104
        32         1         2        35     9        0.000000       -0.225271         1    ;  uncertainty k = 0.371621
        32         1         2        35     9      180.000000        0.719911         2    ;  uncertainty k = 0.314572
        32         1         2        35     9        0.000000        0.112053         3    ;  uncertainty k = 0.052184
        32         1         2        35     9      180.000000       -0.321413         4    ;  uncertainty k = 0.066104
        32         1        10        40     9        0.000000        1.333899         1    ;  uncertainty k = 0.470364
        32         1        10        40     9      180.000000       -0.346033         2    ;  uncertainty k = 0.220492
        32         1        10        40     9        0.000000        0.040957         3    ;  uncertainty k = 0.124052
        32         1        10        40     9      180.000000        0.039296         4    ;  uncertainty k = 0.035575
        33         1         2        34     9        0.000000       -0.225271         1    ;  uncertainty k = 0.371621
        33         1         2        34     9      180.000000        0.719911         2    ;  uncertainty k = 0.314572
        33         1         2        34     9        0.000000        0.112053         3    ;  uncertainty k = 0.052184
        33         1         2        34     9      180.000000       -0.321413         4    ;  uncertainty k = 0.066104
        33         1         2        35     9        0.000000       -0.225271         1    ;  uncertainty k = 0.371621
        33         1         2        35     9      180.000000        0.719911         2    ;  uncertainty k = 0.314572
        33         1         2        35     9        0.000000        0.112053         3    ;  uncertainty k = 0.052184
        33         1         2        35     9      180.000000       -0.321413         4    ;  uncertainty k = 0.066104
        33         1        10        40     9        0.000000        1.333899         1    ;  uncertainty k = 0.470364
        33         1        10        40     9      180.000000       -0.346033         2    ;  uncertainty k = 0.220492
        33         1        10        40     9        0.000000        0.040957         3    ;  uncertainty k = 0.124052
        33         1        10        40     9      180.000000        0.039296         4    ;  uncertainty k = 0.035575
        36         3         4        38     9        0.000000       -0.225271         1    ;  uncertainty k = 0.371621
        36         3         4        38     9      180.000000        0.719911         2    ;  uncertainty k = 0.314572
        36         3         4        38     9        0.000000        0.112053         3    ;  uncertainty k = 0.052184
        36         3         4        38     9      180.000000       -0.321413         4    ;  uncertainty k = 0.066104
        36         3         4        39     9        0.000000       -0.225271         1    ;  uncertainty k = 0.371621
        36         3         4        39     9      180.000000        0.719911         2    ;  uncertainty k = 0.314572
        36         3         4        39     9        0.000000        0.112053         3    ;  uncertainty k = 0.052184
        36         3         4        39     9      180.000000       -0.321413         4    ;  uncertainty k = 0.066104
        37         3         4        38     9        0.000000       -0.225271         1    ;  uncertainty k = 0.371621
        37         3         4        38     9      180.000000        0.719911         2    ;  uncertainty k = 0.314572
        37         3         4        38     9        0.000000        0.112053         3    ;  uncertainty k = 0.052184
        37         3         4        38     9      180.000000       -0.321413         4    ;  uncertainty k = 0.066104
        37         3         4        39     9        0.000000       -0.225271         1    ;  uncertainty k = 0.371621
        37         3         4        39     9      180.000000        0.719911         2    ;  uncertainty k = 0.314572
        37         3         4        39     9        0.000000        0.112053         3    ;  uncertainty k = 0.052184
        37         3         4        39     9      180.000000       -0.321413         4    ;  uncertainty k = 0.066104
        38         4        10        40     9        0.000000        1.333899         1    ;  uncertainty k = 0.470364
        38         4        10        40     9      180.000000       -0.346033         2    ;  uncertainty k = 0.220492
        38         4        10        40     9        0.000000        0.040957         3    ;  uncertainty k = 0.124052
        38         4        10        40     9      180.000000        0.039296         4    ;  uncertainty k = 0.035575
        39         4        10        40     9        0.000000        1.333899         1    ;  uncertainty k = 0.470364
        39         4        10        40     9      180.000000       -0.346033         2    ;  uncertainty k = 0.220492
        39         4        10        40     9        0.000000        0.040957         3    ;  uncertainty k = 0.124052
        39         4        10        40     9      180.000000        0.039296         4    ;  uncertainty k = 0.035575
        40        10        27        43     9        0.000000        0.976343         1    ;  uncertainty k = 0.742026
        40        10        27        43     9      180.000000       -1.754256         2    ;  uncertainty k = 0.294903
        40        10        27        43     9        0.000000       -0.016582         3    ;  uncertainty k = 0.098589
        40        10        27        43     9      180.000000        0.124158         4    ;  uncertainty k = 0.074181
        41        20        44        45     9        0.000000        0.001100         1    ;  uncertainty k = 0.222610
        41        20        44        45     9      180.000000       -0.097018         2    ;  uncertainty k = 0.246893
        41        20        44        45     9        0.000000        0.709250         3    ;  uncertainty k = 0.039917
        41        20        44        45     9      180.000000       -0.030464         4    ;  uncertainty k = 0.055481
        41        20        44        46     9        0.000000        0.001100         1    ;  uncertainty k = 0.222610
        41        20        44        46     9      180.000000       -0.097018         2    ;  uncertainty k = 0.246893
        41        20        44        46     9        0.000000        0.709250         3    ;  uncertainty k = 0.039917
        41        20        44        46     9      180.000000       -0.030464         4    ;  uncertainty k = 0.055481
        41        20        44        47     9        0.000000        0.001100         1    ;  uncertainty k = 0.222610
        41        20        44        47     9      180.000000       -0.097018         2    ;  uncertainty k = 0.246893
        41        20        44        47     9        0.000000        0.709250         3    ;  uncertainty k = 0.039917
        41        20        44        47     9      180.000000       -0.030464         4    ;  uncertainty k = 0.055481
        42        20        44        45     9        0.000000        0.001100         1    ;  uncertainty k = 0.222610
        42        20        44        45     9      180.000000       -0.097018         2    ;  uncertainty k = 0.246893
        42        20        44        45     9        0.000000        0.709250         3    ;  uncertainty k = 0.039917
        42        20        44        45     9      180.000000       -0.030464         4    ;  uncertainty k = 0.055481
        42        20        44        46     9        0.000000        0.001100         1    ;  uncertainty k = 0.222610
        42        20        44        46     9      180.000000       -0.097018         2    ;  uncertainty k = 0.246893
        42        20        44        46     9        0.000000        0.709250         3    ;  uncertainty k = 0.039917
        42        20        44        46     9      180.000000       -0.030464         4    ;  uncertainty k = 0.055481
        42        20        44        47     9        0.000000        0.001100         1    ;  uncertainty k = 0.222610
        42        20        44        47     9      180.000000       -0.097018         2    ;  uncertainty k = 0.246893
        42        20        44        47     9        0.000000        0.709250         3    ;  uncertainty k = 0.039917
        42        20        44        47     9      180.000000       -0.030464         4    ;  uncertainty k = 0.055481

[ dihedrals ] ; impropers
;       ai        aj        ak        al funct           phase               k        pn
         5         8        13        29     4      180.000000        1.109681         2    ;  uncertainty k = 0.271256
         5        13        29         8     4      180.000000        1.109681         2    ;  uncertainty k = 0.271256
         5        29         8        13     4      180.000000        1.109681         2    ;  uncertainty k = 0.271256
         7        18        24        25     4      180.000000       48.919621         2    ;  uncertainty k = 0.026708
         7        24        25        18     4      180.000000       48.919621         2    ;  uncertainty k = 0.026708
         7        25        18        24     4      180.000000       48.919621         2    ;  uncertainty k = 0.026708
         8         5        19        48     4      180.000000       14.318672         2    ;  uncertainty k = 0.052158
         8        19        48         5     4      180.000000       14.318672         2    ;  uncertainty k = 0.052158
         8        48         5        19     4      180.000000       14.318672         2    ;  uncertainty k = 0.052158
         9        23        26        27     4      180.000000       45.765607         2    ;  uncertainty k = 0.102375
         9        26        27        23     4      180.000000       45.765607         2    ;  uncertainty k = 0.102375
         9        27        23        26     4      180.000000       45.765607         2    ;  uncertainty k = 0.102375
        11        12        16        17     4      180.000000        3.785022         2    ;  uncertainty k = 0.563290
        11        16        17        12     4      180.000000        3.785022         2    ;  uncertainty k = 0.563290
        11        17        12        16     4      180.000000        3.785022         2    ;  uncertainty k = 0.563290
        12        11        18        30     4      180.000000        7.515582         2    ;  uncertainty k = 0.359961
        12        18        30        11     4      180.000000        7.515582         2    ;  uncertainty k = 0.359961
        12        30        11        18     4      180.000000        7.515582         2    ;  uncertainty k = 0.359961
        13         5        14        21     4      180.000000       17.110313         2    ;  uncertainty k = 0.053382
        13        14        21         5     4      180.000000       17.110313         2    ;  uncertainty k = 0.053382
        13        21         5        14     4      180.000000       17.110313         2    ;  uncertainty k = 0.053382
        14        13        15        28     4      180.000000        2.090574         2    ;  uncertainty k = 0.191082
        14        15        28        13     4      180.000000        2.090574         2    ;  uncertainty k = 0.191082
        14        28        13        15     4      180.000000        2.090574         2    ;  uncertainty k = 0.191082
        15        14        19        49     4      180.000000        3.395591         2    ;  uncertainty k = 0.158338
        15        19        49        14     4      180.000000        3.395591         2    ;  uncertainty k = 0.158338
        15        49        14        19     4      180.000000        3.395591         2    ;  uncertainty k = 0.158338
        16        11        25        26     4      180.000000       30.988490         2    ;  uncertainty k = 0.077984
        16        25        26        11     4      180.000000       30.988490         2    ;  uncertainty k = 0.077984
        16        26        11        25     4      180.000000       30.988490         2    ;  uncertainty k = 0.077984
        17        11        23        31     4      180.000000       16.728421         2    ;  uncertainty k = 0.076499
        17        23        31        11     4      180.000000       16.728421         2    ;  uncertainty k = 0.076499
        17        31        11        23     4      180.000000       16.728421         2    ;  uncertainty k = 0.076499
        18         7        12        22     4      180.000000       13.128886         2    ;  uncertainty k = 0.273237
        18        12        22         7     4      180.000000       13.128886         2    ;  uncertainty k = 0.273237
        18        22         7        12     4      180.000000       13.128886         2    ;  uncertainty k = 0.273237
        19         8        15        22     4      180.000000       11.882715         2    ;  uncertainty k = 0.189067
        19        15        22         8     4      180.000000       11.882715         2    ;  uncertainty k = 0.189067
        19        22         8        15     4      180.000000       11.882715         2    ;  uncertainty k = 0.189067
        25         7        16        20     4      180.000000        4.046059         2    ;  uncertainty k = 0.630791
        25        16        20         7     4      180.000000        4.046059         2    ;  uncertainty k = 0.630791
        25        20         7        16     4      180.000000        4.046059         2    ;  uncertainty k = 0.630791
        27         9        10        43     4      180.000000        0.693580         2    ;  uncertainty k = 0.786577
        27        10        43         9     4      180.000000        0.693580         2    ;  uncertainty k = 0.786577
        27        43         9        10     4      180.000000        0.693580         2    ;  uncertainty k = 0.786577

[ pairs ]
;       ai        aj funct
         1         3     1
         1         9     1
         1        38     1
         1        39     1
         1        43     1
         2         4     1
         2        27     1
         2        36     1
         2        37     1
         2        40     1
         3        27     1
         3        34     1
         3        35     1
         3        40     1
         4         9     1
         4        32     1
         4        33     1
         4        43     1
         5        15     1
         5        22     1
         5        28     1
         6        10     1
         6        32     1
         6        33     1
         6        38     1
         6        39     1
         7        11     1
         7        19     1
         7        26     1
         7        30     1
         7        41     1
         7        42     1
         7        44     1
         8        14     1
         8        18     1
         8        21     1
         8        49     1
         9        11     1
         9        25     1
         9        31     1
         9        40     1
        10        23     1
        10        26     1
        10        34     1
        10        35     1
        10        36     1
        10        37     1
        11        20     1
        11        22     1
        12        19     1
        12        23     1
        12        24     1
        12        25     1
        12        26     1
        12        31     1
        13        19     1
        13        48     1
        13        49     1
        14        22     1
        14        29     1
        15        18     1
        15        21     1
        15        48     1
        16        18     1
        16        23     1
        16        24     1
        16        27     1
        16        30     1
        16        31     1
        16        41     1
        16        42     1
        16        44     1
        17        18     1
        17        25     1
        17        26     1
        17        27     1
        17        30     1
        18        20     1
        19        28     1
        19        29     1
        20        24     1
        20        26     1
        21        28     1
        21        29     1
        22        24     1
        22        25     1
        22        30     1
        22        48     1
        22        49     1
        23        43     1
        25        45     1
        25        46     1
        25        47     1
        26        43     1
        27        32     1
        27        33     1
        27        38     1
        27        39     1
        28        49     1
        29        48     1
        32        34     1
        32        35     1
        32        40     1
        33        34     1
        33        35     1
        33        40     1
        36        38     1
        36        39     1
        37        38     1
        37        39     1
        38        40     1
        39        40     1
        40        43     1
        41        45     1
        41        46     1
        41        47     1
        42        45     1
        42        46     1
        42        47     1
