; ITP file created by ByteFF-joint-25, 2026-02-17 09:25:27.299419

[ atomtypes ]
;name           bonded.type        at.num        mass        charge   ptype           sigma         epsilon
 c0bf                                   6      0.0000       0.00000       A     3.39787e-01     4.51000e-01    ;  uncertainty sigma = 0.000007, epsilon = 0.000697
 c1bf                                   6      0.0000       0.00000       A     3.39778e-01     4.50893e-01    ;  uncertainty sigma = 0.000003, epsilon = 0.000829
 c2bf                                   6      0.0000       0.00000       A     3.39778e-01     4.50893e-01    ;  uncertainty sigma = 0.000003, epsilon = 0.000829
 c3bf                                   6      0.0000       0.00000       A     3.39787e-01     4.51000e-01    ;  uncertainty sigma = 0.000007, epsilon = 0.000697
 c4bf                                   6      0.0000       0.00000       A     3.31526e-01     4.13477e-01    ;  uncertainty sigma = 0.000006, epsilon = 0.000754
 o5bf                                   8      0.0000       0.00000       A     3.15613e-01     3.03556e-01    ;  uncertainty sigma = 0.000019, epsilon = 0.001085
 c6bf                                   6      0.0000       0.00000       A     3.31533e-01     4.13773e-01    ;  uncertainty sigma = 0.000024, epsilon = 0.001619
 c7bf                                   6      0.0000       0.00000       A     3.31525e-01     4.12996e-01    ;  uncertainty sigma = 0.000006, epsilon = 0.000558
 c8bf                                   6      0.0000       0.00000       A     3.31531e-01     4.13742e-01    ;  uncertainty sigma = 0.000011, epsilon = 0.000896
 c9bf                                   6      0.0000       0.00000       A     3.39779e-01     4.51067e-01    ;  uncertainty sigma = 0.000013, epsilon = 0.000925
 c10bf                                  6      0.0000       0.00000       A     3.31544e-01     4.13446e-01    ;  uncertainty sigma = 0.000021, epsilon = 0.001094
 c11bf                                  6      0.0000       0.00000       A     3.31525e-01     4.12996e-01    ;  uncertainty sigma = 0.000012, epsilon = 0.001304
 c12bf                                  6      0.0000       0.00000       A     3.31521e-01     4.13309e-01    ;  uncertainty sigma = 0.000005, epsilon = 0.000623
 c13bf                                  6      0.0000       0.00000       A     3.31522e-01     4.13402e-01    ;  uncertainty sigma = 0.000004, epsilon = 0.000568
 c14bf                                  6      0.0000       0.00000       A     3.31532e-01     4.13487e-01    ;  uncertainty sigma = 0.000005, epsilon = 0.000789
 c15bf                                  6      0.0000       0.00000       A     3.31512e-01     4.13612e-01    ;  uncertainty sigma = 0.000010, epsilon = 0.001275
 c16bf                                  6      0.0000       0.00000       A     3.31535e-01     4.13522e-01    ;  uncertainty sigma = 0.000008, epsilon = 0.001502
 c17bf                                  6      0.0000       0.00000       A     3.31536e-01     4.13286e-01    ;  uncertainty sigma = 0.000019, epsilon = 0.001182
 c18bf                                  6      0.0000       0.00000       A     3.31544e-01     4.13185e-01    ;  uncertainty sigma = 0.000012, epsilon = 0.000998
 f19bf                                  9      0.0000       0.00000       A     3.03401e-01     3.48403e-01    ;  uncertainty sigma = 0.000015, epsilon = 0.000906
 f20bf                                  9      0.0000       0.00000       A     3.03426e-01     3.47978e-01    ;  uncertainty sigma = 0.000008, epsilon = 0.000768
 o21bf                                  8      0.0000       0.00000       A     3.15662e-01     3.03534e-01    ;  uncertainty sigma = 0.000053, epsilon = 0.003579
 n22bf                                  7      0.0000       0.00000       A     3.38435e-01     3.93631e-01    ;  uncertainty sigma = 0.000019, epsilon = 0.001026
 o23bf                                  8      0.0000       0.00000       A     3.04817e-01     6.11405e-01    ;  uncertainty sigma = 0.000012, epsilon = 0.000687
 n24bf                                  7      0.0000       0.00000       A     3.18063e-01     6.83808e-01    ;  uncertainty sigma = 0.000038, epsilon = 0.003349
 n25bf                                  7      0.0000       0.00000       A     3.38443e-01     3.92782e-01    ;  uncertainty sigma = 0.000043, epsilon = 0.002037
 n26bf                                  7      0.0000       0.00000       A     3.27898e-01     6.46446e-01    ;  uncertainty sigma = 0.000031, epsilon = 0.005668
 h27bf                                  1      0.0000       0.00000       A     2.62564e-01     6.70554e-02    ;  uncertainty sigma = 0.000012, epsilon = 0.000465
 h28bf                                  1      0.0000       0.00000       A     2.62548e-01     6.71486e-02    ;  uncertainty sigma = 0.000008, epsilon = 0.000492
 h29bf                                  1      0.0000       0.00000       A     2.62562e-01     6.73680e-02    ;  uncertainty sigma = 0.000008, epsilon = 0.000365
 h30bf                                  1      0.0000       0.00000       A     2.62521e-01     6.67593e-02    ;  uncertainty sigma = 0.000018, epsilon = 0.000881
 h31bf                                  1      0.0000       0.00000       A     2.53663e-01     6.71784e-02    ;  uncertainty sigma = 0.000041, epsilon = 0.000925
 h32bf                                  1      0.0000       0.00000       A     2.60021e-01     8.67664e-02    ;  uncertainty sigma = 0.000009, epsilon = 0.000445
 h33bf                                  1      0.0000       0.00000       A     2.60021e-01     8.67664e-02    ;  uncertainty sigma = 0.000009, epsilon = 0.000445
 h34bf                                  1      0.0000       0.00000       A     2.42188e-01     8.67182e-02    ;  uncertainty sigma = 0.000018, epsilon = 0.000739
 h35bf                                  1      0.0000       0.00000       A     2.42188e-01     8.67182e-02    ;  uncertainty sigma = 0.000018, epsilon = 0.000739
 h36bf                                  1      0.0000       0.00000       A     2.42188e-01     8.67182e-02    ;  uncertainty sigma = 0.000018, epsilon = 0.000739
 h37bf                                  1      0.0000       0.00000       A     2.42188e-01     8.67182e-02    ;  uncertainty sigma = 0.000018, epsilon = 0.000739
 h38bf                                  1      0.0000       0.00000       A     2.60021e-01     8.67664e-02    ;  uncertainty sigma = 0.000009, epsilon = 0.000445
 h39bf                                  1      0.0000       0.00000       A     2.60021e-01     8.67664e-02    ;  uncertainty sigma = 0.000009, epsilon = 0.000445
 h40bf                                  1      0.0000       0.00000       A     2.42212e-01     8.65674e-02    ;  uncertainty sigma = 0.000016, epsilon = 0.000625
 h41bf                                  1      0.0000       0.00000       A     2.42193e-01     8.74888e-02    ;  uncertainty sigma = 0.000115, epsilon = 0.000792
 h42bf                                  1      0.0000       0.00000       A     1.10703e-01     4.14050e-02    ;  uncertainty sigma = 0.000035, epsilon = 0.000993
 c43bf                                  6      0.0000       0.00000       A     3.39718e-01     4.49995e-01    ;  uncertainty sigma = 0.000020, epsilon = 0.000774
 c44bf                                  6      0.0000       0.00000       A     3.39754e-01     4.50808e-01    ;  uncertainty sigma = 0.000007, epsilon = 0.000984
 c45bf                                  6      0.0000       0.00000       A     3.39754e-01     4.50808e-01    ;  uncertainty sigma = 0.000007, epsilon = 0.000984
 h46bf                                  1      0.0000       0.00000       A     2.60026e-01     8.66073e-02    ;  uncertainty sigma = 0.000022, epsilon = 0.000970
 h47bf                                  1      0.0000       0.00000       A     2.60026e-01     8.66073e-02    ;  uncertainty sigma = 0.000022, epsilon = 0.000970
 h48bf                                  1      0.0000       0.00000       A     2.60026e-01     8.66075e-02    ;  uncertainty sigma = 0.000022, epsilon = 0.000970
 h49bf                                  1      0.0000       0.00000       A     2.60026e-01     8.66076e-02    ;  uncertainty sigma = 0.000022, epsilon = 0.000970

[ moleculetype ]
;name             nrexcl
 MOL                   3

[ atoms ]
;       nr            type      resi   res      atom      cgnr      charge          mass ; qtot
         1            c0bf         1   UNL        c0         1    -0.12711       12.0110 ; qtot   -0.127
         2            c1bf         1   UNL        c1         2     0.13209       12.0110 ; qtot    0.005
         3            c2bf         1   UNL        c2         3     0.13209       12.0110 ; qtot    0.137
         4            c3bf         1   UNL        c3         4    -0.12711       12.0110 ; qtot    0.010
         5            c4bf         1   UNL        c4         5    -0.19164       12.0110 ; qtot   -0.182
         6            o5bf         1   UNL        o5         6    -0.41527       15.9990 ; qtot   -0.597
         7            c6bf         1   UNL        c6         7     0.69275       12.0110 ; qtot    0.096
         8            c7bf         1   UNL        c7         8     0.14567       12.0110 ; qtot    0.241
         9            c8bf         1   UNL        c8         9     0.92716       12.0110 ; qtot    1.169
        10            c9bf         1   UNL        c9        10     0.24784       12.0110 ; qtot    1.416
        11           c10bf         1   UNL       c10        11    -0.40516       12.0110 ; qtot    1.011
        12           c11bf         1   UNL       c11        12    -0.04645       12.0110 ; qtot    0.965
        13           c12bf         1   UNL       c12        13     0.14413       12.0110 ; qtot    1.109
        14           c13bf         1   UNL       c13        14    -0.16248       12.0110 ; qtot    0.947
        15           c14bf         1   UNL       c14        15    -0.09069       12.0110 ; qtot    0.856
        16           c15bf         1   UNL       c15        16     0.64325       12.0110 ; qtot    1.499
        17           c16bf         1   UNL       c16        17     0.51965       12.0110 ; qtot    2.019
        18           c17bf         1   UNL       c17        18     0.00905       12.0110 ; qtot    2.028
        19           c18bf         1   UNL       c18        19     0.04783       12.0110 ; qtot    2.076
        20           f19bf         1   UNL       f19        20    -0.12685       18.9980 ; qtot    1.949
        21           f20bf         1   UNL       f20        21    -0.13805       18.9980 ; qtot    1.811
        22           o21bf         1   UNL       o21        22    -0.20995       15.9990 ; qtot    1.601
        23           n22bf         1   UNL       n22        23    -0.77074       14.0070 ; qtot    0.830
        24           o23bf         1   UNL       o23        24    -0.57937       15.9990 ; qtot    0.251
        25           n24bf         1   UNL       n24        25    -0.40971       14.0070 ; qtot   -0.159
        26           n25bf         1   UNL       n25        26    -0.82697       14.0070 ; qtot   -0.986
        27           n26bf         1   UNL       n26        27    -0.86397       14.0070 ; qtot   -1.850
        28           h27bf         1   UNL       h27        28     0.16075        1.0080 ; qtot   -1.689
        29           h28bf         1   UNL       h28        29     0.15721        1.0080 ; qtot   -1.532
        30           h29bf         1   UNL       h29        30     0.17297        1.0080 ; qtot   -1.359
        31           h30bf         1   UNL       h30        31     0.16430        1.0080 ; qtot   -1.195
        32           h31bf         1   UNL       h31        32     0.02973        1.0080 ; qtot   -1.165
        33           h32bf         1   UNL       h32        33     0.05892        1.0080 ; qtot   -1.106
        34           h33bf         1   UNL       h33        34     0.05892        1.0080 ; qtot   -1.047
        35           h34bf         1   UNL       h34        35     0.04655        1.0080 ; qtot   -1.001
        36           h35bf         1   UNL       h35        36     0.04655        1.0080 ; qtot   -0.954
        37           h36bf         1   UNL       h36        37     0.04655        1.0080 ; qtot   -0.908
        38           h37bf         1   UNL       h37        38     0.04655        1.0080 ; qtot   -0.861
        39           h38bf         1   UNL       h38        39     0.05892        1.0080 ; qtot   -0.802
        40           h39bf         1   UNL       h39        40     0.05892        1.0080 ; qtot   -0.743
        41           h40bf         1   UNL       h40        41     0.07162        1.0080 ; qtot   -0.672
        42           h41bf         1   UNL       h41        42     0.09996        1.0080 ; qtot   -0.572
        43           h42bf         1   UNL       h42        43     0.44845        1.0080 ; qtot   -0.123
        44           c43bf         1   UNL       c43        44     0.03679       12.0110 ; qtot   -0.086
        45           c44bf         1   UNL       c44        45    -0.12376       12.0110 ; qtot   -0.210
        46           c45bf         1   UNL       c45        46    -0.12376       12.0110 ; qtot   -0.334
        47           h46bf         1   UNL       h46        47     0.08347        1.0080 ; qtot   -0.250
        48           h47bf         1   UNL       h47        48     0.08347        1.0080 ; qtot   -0.167
        49           h48bf         1   UNL       h48        49     0.08347        1.0080 ; qtot   -0.083
        50           h49bf         1   UNL       h49        50     0.08346        1.0080 ; qtot   -0.000

[ bonds ]
;       ai        aj funct               r               k
         1         2     1        0.153564   209800.351904    ;  uncertainty r = 0.000030, k = 4.398850
         1        10     1        0.153800   204926.313672    ;  uncertainty r = 0.000079, k = 2.875806
         1        33     1        0.109644   310935.400293    ;  uncertainty r = 0.000023, k = 1.135247
         1        34     1        0.109644   310935.400293    ;  uncertainty r = 0.000023, k = 1.135247
         2         6     1        0.142789   254488.480176    ;  uncertainty r = 0.000039, k = 2.801925
         2        35     1        0.109818   309244.843652    ;  uncertainty r = 0.000020, k = 0.854841
         2        36     1        0.109818   309244.843652    ;  uncertainty r = 0.000020, k = 0.854841
         3         4     1        0.153564   209800.351904    ;  uncertainty r = 0.000030, k = 4.398850
         3         6     1        0.142789   254488.480176    ;  uncertainty r = 0.000039, k = 2.801925
         3        37     1        0.109818   309244.843652    ;  uncertainty r = 0.000020, k = 0.854841
         3        38     1        0.109818   309244.843652    ;  uncertainty r = 0.000020, k = 0.854841
         4        10     1        0.153800   204926.313672    ;  uncertainty r = 0.000079, k = 2.875806
         4        39     1        0.109644   310935.400293    ;  uncertainty r = 0.000023, k = 1.135247
         4        40     1        0.109644   310935.400293    ;  uncertainty r = 0.000023, k = 1.135247
         5         8     1        0.138747   361176.981592    ;  uncertainty r = 0.000032, k = 2.643588
         5        13     1        0.139007   367691.396045    ;  uncertainty r = 0.000031, k = 2.749259
         5        30     1        0.108780   338576.282275    ;  uncertainty r = 0.000013, k = 1.210229
         7        18     1        0.146661   252561.756348    ;  uncertainty r = 0.000154, k = 24.074399
         7        24     1        0.123269   645222.086621    ;  uncertainty r = 0.000149, k = 13.547341
         7        25     1        0.140895   253205.189355    ;  uncertainty r = 0.000390, k = 39.896973
         8        19     1        0.139121   358077.006348    ;  uncertainty r = 0.000040, k = 4.650811
         8        20     1        0.134764   340072.935645    ;  uncertainty r = 0.000045, k = 2.589505
         9        23     1        0.136721   529796.854883    ;  uncertainty r = 0.000110, k = 16.350092
         9        26     1        0.135857   615377.530859    ;  uncertainty r = 0.000160, k = 22.054106
         9        27     1        0.138299   589020.884570    ;  uncertainty r = 0.000136, k = 23.336114
        10        27     1        0.145807   240009.066846    ;  uncertainty r = 0.000132, k = 9.981083
        10        41     1        0.109351   304415.163379    ;  uncertainty r = 0.000015, k = 2.578070
        11        12     1        0.142626   276221.096533    ;  uncertainty r = 0.000059, k = 21.194278
        11        16     1        0.142324   406330.191699    ;  uncertainty r = 0.000146, k = 28.744891
        11        17     1        0.140400   403962.186621    ;  uncertainty r = 0.000228, k = 22.779279
        12        18     1        0.135390   408684.815332    ;  uncertainty r = 0.000061, k = 13.253291
        12        31     1        0.108671   334866.148877    ;  uncertainty r = 0.000042, k = 1.972621
        13        14     1        0.138905   362175.303809    ;  uncertainty r = 0.000027, k = 1.862514
        13        21     1        0.135460   342148.081152    ;  uncertainty r = 0.000038, k = 2.796473
        14        15     1        0.139206   376188.256299    ;  uncertainty r = 0.000034, k = 0.837546
        14        28     1        0.108734   335618.242285    ;  uncertainty r = 0.000017, k = 1.062658
        15        19     1        0.139238   351219.066699    ;  uncertainty r = 0.000057, k = 2.910415
        15        29     1        0.108702   335466.041113    ;  uncertainty r = 0.000027, k = 2.133558
        16        25     1        0.138453   258364.809082    ;  uncertainty r = 0.000249, k = 21.374579
        16        26     1        0.134069   441591.934473    ;  uncertainty r = 0.000238, k = 20.297214
        17        23     1        0.133339   406573.330518    ;  uncertainty r = 0.000104, k = 9.898022
        17        32     1        0.108932   328678.175293    ;  uncertainty r = 0.000029, k = 1.251081
        18        22     1        0.136079   317368.172607    ;  uncertainty r = 0.000071, k = 8.124380
        19        22     1        0.138156   312365.555029    ;  uncertainty r = 0.000103, k = 5.960809
        25        44     1        0.144220   254016.324561    ;  uncertainty r = 0.000199, k = 31.081390
        27        43     1        0.102176   435698.173926    ;  uncertainty r = 0.000065, k = 4.933167
        42        44     1        0.108496   310981.162793    ;  uncertainty r = 0.000068, k = 7.122922
        44        45     1        0.150556   207942.552734    ;  uncertainty r = 0.000093, k = 5.020111
        44        46     1        0.150556   207942.552734    ;  uncertainty r = 0.000093, k = 5.020092
        45        46     1        0.151086   216996.632715    ;  uncertainty r = 0.000142, k = 7.682377
        45        47     1        0.108578   313613.834473    ;  uncertainty r = 0.000021, k = 1.838192
        45        48     1        0.108578   313613.834473    ;  uncertainty r = 0.000021, k = 1.838192
        46        49     1        0.108578   313613.834473    ;  uncertainty r = 0.000021, k = 1.838184
        46        50     1        0.108578   313613.834473    ;  uncertainty r = 0.000021, k = 1.838184

[ angles ]
;       ai        aj        ak funct           theta             cth
         1         2         6     1      111.446632      714.965579    ;  uncertainty theta = 0.001347, k = 0.063500
         1         2        35     1      109.920456      408.541080    ;  uncertainty theta = 0.002019, k = 0.035643
         1         2        36     1      109.920456      408.541080    ;  uncertainty theta = 0.002019, k = 0.035643
         1        10         4     1      108.571205      585.454959    ;  uncertainty theta = 0.002684, k = 0.080005
         1        10        27     1      110.695145      629.201113    ;  uncertainty theta = 0.003363, k = 0.060631
         1        10        41     1      108.629013      407.998416    ;  uncertainty theta = 0.002420, k = 0.060827
         2         1        10     1      109.739174      566.930979    ;  uncertainty theta = 0.002556, k = 0.101379
         2         1        33     1      108.721451      397.694416    ;  uncertainty theta = 0.000995, k = 0.058468
         2         1        34     1      108.721451      397.694416    ;  uncertainty theta = 0.000995, k = 0.058468
         2         6         3     1      109.309448      562.168308    ;  uncertainty theta = 0.002274, k = 0.150711
         3         4        10     1      109.739174      566.930979    ;  uncertainty theta = 0.002556, k = 0.101379
         3         4        39     1      108.721451      397.694416    ;  uncertainty theta = 0.000995, k = 0.058468
         3         4        40     1      108.721451      397.694416    ;  uncertainty theta = 0.000995, k = 0.058468
         4         3         6     1      111.446632      714.965579    ;  uncertainty theta = 0.001347, k = 0.063500
         4         3        37     1      109.920456      408.541080    ;  uncertainty theta = 0.002019, k = 0.035643
         4         3        38     1      109.920456      408.541080    ;  uncertainty theta = 0.002019, k = 0.035643
         4        10        27     1      110.695145      629.201113    ;  uncertainty theta = 0.003363, k = 0.060631
         4        10        41     1      108.629013      407.998416    ;  uncertainty theta = 0.002420, k = 0.060827
         5         8        19     1      123.443153      352.584549    ;  uncertainty theta = 0.005265, k = 0.202869
         5         8        20     1      118.916702      524.557093    ;  uncertainty theta = 0.000766, k = 0.063533
         5        13        14     1      122.203163      367.950291    ;  uncertainty theta = 0.004353, k = 0.037976
         5        13        21     1      118.416054      506.109309    ;  uncertainty theta = 0.002115, k = 0.044491
         6         2        35     1      107.077614      463.773059    ;  uncertainty theta = 0.001757, k = 0.022995
         6         2        36     1      107.077614      463.773059    ;  uncertainty theta = 0.001757, k = 0.022995
         6         3        37     1      107.077614      463.773059    ;  uncertainty theta = 0.001757, k = 0.022995
         6         3        38     1      107.077614      463.773059    ;  uncertainty theta = 0.001757, k = 0.022995
         7        18        12     1      124.956032      436.085821    ;  uncertainty theta = 0.006948, k = 0.201784
         7        18        22     1      108.623047      387.964777    ;  uncertainty theta = 0.010415, k = 0.205524
         7        25        16     1      123.049759      485.557809    ;  uncertainty theta = 0.005669, k = 0.081461
         7        25        44     1      113.023544      424.230760    ;  uncertainty theta = 0.018607, k = 0.280983
         8         5        13     1      117.873718      466.681991    ;  uncertainty theta = 0.002635, k = 0.148809
         8         5        30     1      120.885605      275.043414    ;  uncertainty theta = 0.003104, k = 0.026017
         8        19        15     1      120.438950      350.580333    ;  uncertainty theta = 0.005824, k = 0.197361
         8        19        22     1      117.645630      371.098442    ;  uncertainty theta = 0.004397, k = 0.214153
         9        23        17     1      116.461571      408.431494    ;  uncertainty theta = 0.008507, k = 0.283757
         9        26        16     1      117.329453      449.813549    ;  uncertainty theta = 0.008511, k = 0.172106
         9        27        10     1      115.754578      413.912172    ;  uncertainty theta = 0.005368, k = 0.147821
         9        27        43     1      116.899681      443.923128    ;  uncertainty theta = 0.004308, k = 0.149187
        10         1        33     1      108.113968      386.815958    ;  uncertainty theta = 0.001236, k = 0.022845
        10         1        34     1      108.113968      386.815958    ;  uncertainty theta = 0.001236, k = 0.022845
        10         4        39     1      108.113968      386.815958    ;  uncertainty theta = 0.001236, k = 0.022845
        10         4        40     1      108.113968      386.815958    ;  uncertainty theta = 0.001236, k = 0.022845
        10        27        43     1      112.314072      333.078060    ;  uncertainty theta = 0.005154, k = 0.136963
        11        12        18     1      121.138878      510.663214    ;  uncertainty theta = 0.006823, k = 0.210403
        11        12        31     1      118.338097      256.302943    ;  uncertainty theta = 0.003104, k = 0.241408
        11        16        25     1      118.004173      466.011642    ;  uncertainty theta = 0.010588, k = 0.249392
        11        16        26     1      122.628273      544.366516    ;  uncertainty theta = 0.007179, k = 0.148569
        11        17        23     1      122.528725      739.858707    ;  uncertainty theta = 0.001104, k = 0.183965
        11        17        32     1      120.261795      260.863360    ;  uncertainty theta = 0.004921, k = 0.124797
        12        11        16     1      120.168900      440.657698    ;  uncertainty theta = 0.010489, k = 0.183778
        12        11        17     1      123.585526      405.346483    ;  uncertainty theta = 0.006646, k = 0.164690
        12        18        22     1      122.482239      425.323047    ;  uncertainty theta = 0.003043, k = 0.078328
        13         5        30     1      122.167213      276.182816    ;  uncertainty theta = 0.001979, k = 0.047518
        13        14        15     1      117.679276      490.002065    ;  uncertainty theta = 0.001416, k = 0.046653
        13        14        28     1      120.978439      282.379204    ;  uncertainty theta = 0.000982, k = 0.023307
        14        13        21     1      119.340736      515.983168    ;  uncertainty theta = 0.001915, k = 0.014125
        14        15        19     1      121.214966      509.817585    ;  uncertainty theta = 0.002734, k = 0.081000
        14        15        29     1      120.371567      284.922126    ;  uncertainty theta = 0.002332, k = 0.030236
        15        14        28     1      121.389076      278.892591    ;  uncertainty theta = 0.001182, k = 0.028037
        15        19        22     1      121.300697      424.352349    ;  uncertainty theta = 0.004622, k = 0.114257
        16        11        17     1      117.476562      436.130160    ;  uncertainty theta = 0.006469, k = 0.132866
        16        25        44     1      114.572182      422.401825    ;  uncertainty theta = 0.013305, k = 0.107671
        18         7        24     1      123.615273      475.360203    ;  uncertainty theta = 0.004194, k = 0.083556
        18         7        25     1      114.890526      313.446790    ;  uncertainty theta = 0.011062, k = 0.756458
        18        12        31     1      120.592506      276.724842    ;  uncertainty theta = 0.005758, k = 0.199794
        18        22        19     1      112.337708      458.484771    ;  uncertainty theta = 0.005442, k = 0.299720
        19         8        20     1      117.525742      487.064690    ;  uncertainty theta = 0.002079, k = 0.147581
        19        15        29     1      118.610428      275.458648    ;  uncertainty theta = 0.003647, k = 0.058785
        23         9        26     1      128.687057      739.703952    ;  uncertainty theta = 0.002698, k = 0.096964
        23         9        27     1      120.614822      827.716578    ;  uncertainty theta = 0.008637, k = 0.129997
        23        17        32     1      117.378830      317.940268    ;  uncertainty theta = 0.003548, k = 0.165741
        24         7        25     1      121.719582      689.027921    ;  uncertainty theta = 0.002182, k = 0.132333
        25        16        26     1      117.020851      593.575185    ;  uncertainty theta = 0.014120, k = 0.232829
        25        44        42     1      114.707382      291.356935    ;  uncertainty theta = 0.009561, k = 0.250257
        25        44        45     1      111.612915      376.407863    ;  uncertainty theta = 0.013648, k = 0.485439
        25        44        46     1      111.612915      376.407895    ;  uncertainty theta = 0.013648, k = 0.485439
        26         9        27     1      121.261742      911.719878    ;  uncertainty theta = 0.007301, k = 0.084466
        27        10        41     1      103.516525      447.268585    ;  uncertainty theta = 0.003472, k = 0.117225
        33         1        34     1      105.438782      311.403087    ;  uncertainty theta = 0.002031, k = 0.016795
        35         2        36     1      106.555069      320.243013    ;  uncertainty theta = 0.001313, k = 0.032691
        37         3        38     1      106.555069      320.243013    ;  uncertainty theta = 0.001313, k = 0.032691
        39         4        40     1      105.438782      311.403087    ;  uncertainty theta = 0.002031, k = 0.016795
        42        44        45     1      109.555161      183.767337    ;  uncertainty theta = 0.011705, k = 0.558308
        42        44        46     1      109.555161      183.767337    ;  uncertainty theta = 0.011705, k = 0.558308
        44        45        46     1       60.395893      167.360000    ;  uncertainty theta = 0.050395, k = 0.000000
        44        45        47     1      108.949692      217.725947    ;  uncertainty theta = 0.002533, k = 0.321314
        44        45        48     1      108.949692      217.725947    ;  uncertainty theta = 0.002533, k = 0.321314
        44        46        45     1       60.395893      167.360000    ;  uncertainty theta = 0.050395, k = 0.000000
        44        46        49     1      108.949692      217.725947    ;  uncertainty theta = 0.002533, k = 0.321314
        44        46        50     1      108.949692      217.725947    ;  uncertainty theta = 0.002533, k = 0.321314
        45        44        46     1       59.769806      167.360000    ;  uncertainty theta = 0.039559, k = 0.000000
        45        46        49     1      109.937744      215.529979    ;  uncertainty theta = 0.004805, k = 0.132602
        45        46        50     1      109.937744      215.529979    ;  uncertainty theta = 0.004805, k = 0.132602
        46        45        47     1      109.937744      215.529979    ;  uncertainty theta = 0.004805, k = 0.132601
        46        45        48     1      109.937744      215.529979    ;  uncertainty theta = 0.004805, k = 0.132601
        47        45        48     1      114.569138      199.962589    ;  uncertainty theta = 0.003184, k = 0.025847
        49        46        50     1      114.569138      199.962589    ;  uncertainty theta = 0.003184, k = 0.025848

[ dihedrals ] ; propers for gromacs 4.5 or higher, use funct 9
;       ai        aj        ak        al funct           phase               k        pn
         1         2         6         3     9        0.000000       -3.090920         1    ;  uncertainty k = 1.764723
         1         2         6         3     9      180.000000        0.099645         2    ;  uncertainty k = 1.147878
         1         2         6         3     9        0.000000        0.937069         3    ;  uncertainty k = 0.257052
         1         2         6         3     9      180.000000       -0.348700         4    ;  uncertainty k = 0.188482
         1        10         4         3     9        0.000000       -7.182169         1    ;  uncertainty k = 1.160296
         1        10         4         3     9      180.000000        0.651721         2    ;  uncertainty k = 0.689257
         1        10         4         3     9        0.000000        1.337200         3    ;  uncertainty k = 0.165866
         1        10         4         3     9      180.000000       -1.433187         4    ;  uncertainty k = 0.219126
         1        10         4        39     9        0.000000       -1.858871         1    ;  uncertainty k = 0.333669
         1        10         4        39     9      180.000000       -0.004379         2    ;  uncertainty k = 0.147655
         1        10         4        39     9        0.000000        0.298804         3    ;  uncertainty k = 0.155785
         1        10         4        39     9      180.000000       -0.141300         4    ;  uncertainty k = 0.079428
         1        10         4        40     9        0.000000       -1.858871         1    ;  uncertainty k = 0.333669
         1        10         4        40     9      180.000000       -0.004379         2    ;  uncertainty k = 0.147655
         1        10         4        40     9        0.000000        0.298804         3    ;  uncertainty k = 0.155785
         1        10         4        40     9      180.000000       -0.141300         4    ;  uncertainty k = 0.079428
         1        10        27         9     9        0.000000       -2.497432         1    ;  uncertainty k = 0.380167
         1        10        27         9     9      180.000000        0.494312         2    ;  uncertainty k = 0.192168
         1        10        27         9     9        0.000000        0.367482         3    ;  uncertainty k = 0.123935
         1        10        27         9     9      180.000000        0.360895         4    ;  uncertainty k = 0.080969
         1        10        27        43     9        0.000000        2.787690         1    ;  uncertainty k = 0.893880
         1        10        27        43     9      180.000000       -0.663636         2    ;  uncertainty k = 0.236090
         1        10        27        43     9        0.000000        0.218247         3    ;  uncertainty k = 0.119918
         1        10        27        43     9      180.000000        0.123443         4    ;  uncertainty k = 0.073280
         2         1        10         4     9        0.000000       -7.182169         1    ;  uncertainty k = 1.160296
         2         1        10         4     9      180.000000        0.651721         2    ;  uncertainty k = 0.689257
         2         1        10         4     9        0.000000        1.337200         3    ;  uncertainty k = 0.165866
         2         1        10         4     9      180.000000       -1.433187         4    ;  uncertainty k = 0.219126
         2         1        10        27     9        0.000000       -4.805353         1    ;  uncertainty k = 0.699431
         2         1        10        27     9      180.000000       -0.187719         2    ;  uncertainty k = 0.333371
         2         1        10        27     9        0.000000        1.016385         3    ;  uncertainty k = 0.162984
         2         1        10        27     9      180.000000       -0.078100         4    ;  uncertainty k = 0.195994
         2         1        10        41     9        0.000000       -1.687319         1    ;  uncertainty k = 0.555497
         2         1        10        41     9      180.000000       -0.643722         2    ;  uncertainty k = 0.388884
         2         1        10        41     9        0.000000        0.030461         3    ;  uncertainty k = 0.099396
         2         1        10        41     9      180.000000       -0.147535         4    ;  uncertainty k = 0.108263
         2         6         3         4     9        0.000000       -3.090920         1    ;  uncertainty k = 1.764723
         2         6         3         4     9      180.000000        0.099645         2    ;  uncertainty k = 1.147878
         2         6         3         4     9        0.000000        0.937069         3    ;  uncertainty k = 0.257052
         2         6         3         4     9      180.000000       -0.348700         4    ;  uncertainty k = 0.188482
         2         6         3        37     9        0.000000       -5.435409         1    ;  uncertainty k = 1.705293
         2         6         3        37     9      180.000000        0.309318         2    ;  uncertainty k = 0.194051
         2         6         3        37     9        0.000000        0.745836         3    ;  uncertainty k = 0.129776
         2         6         3        37     9      180.000000       -0.529315         4    ;  uncertainty k = 0.148432
         2         6         3        38     9        0.000000       -5.435409         1    ;  uncertainty k = 1.705293
         2         6         3        38     9      180.000000        0.309318         2    ;  uncertainty k = 0.194051
         2         6         3        38     9        0.000000        0.745836         3    ;  uncertainty k = 0.129776
         2         6         3        38     9      180.000000       -0.529315         4    ;  uncertainty k = 0.148432
         3         4        10        27     9        0.000000       -4.805353         1    ;  uncertainty k = 0.699431
         3         4        10        27     9      180.000000       -0.187719         2    ;  uncertainty k = 0.333371
         3         4        10        27     9        0.000000        1.016385         3    ;  uncertainty k = 0.162984
         3         4        10        27     9      180.000000       -0.078100         4    ;  uncertainty k = 0.195994
         3         4        10        41     9        0.000000       -1.687319         1    ;  uncertainty k = 0.555497
         3         4        10        41     9      180.000000       -0.643722         2    ;  uncertainty k = 0.388884
         3         4        10        41     9        0.000000        0.030461         3    ;  uncertainty k = 0.099396
         3         4        10        41     9      180.000000       -0.147535         4    ;  uncertainty k = 0.108263
         3         6         2        35     9        0.000000       -5.435409         1    ;  uncertainty k = 1.705293
         3         6         2        35     9      180.000000        0.309318         2    ;  uncertainty k = 0.194051
         3         6         2        35     9        0.000000        0.745836         3    ;  uncertainty k = 0.129776
         3         6         2        35     9      180.000000       -0.529315         4    ;  uncertainty k = 0.148432
         3         6         2        36     9        0.000000       -5.435409         1    ;  uncertainty k = 1.705293
         3         6         2        36     9      180.000000        0.309318         2    ;  uncertainty k = 0.194051
         3         6         2        36     9        0.000000        0.745836         3    ;  uncertainty k = 0.129776
         3         6         2        36     9      180.000000       -0.529315         4    ;  uncertainty k = 0.148432
         4        10         1        33     9        0.000000       -1.858871         1    ;  uncertainty k = 0.333669
         4        10         1        33     9      180.000000       -0.004379         2    ;  uncertainty k = 0.147655
         4        10         1        33     9        0.000000        0.298804         3    ;  uncertainty k = 0.155785
         4        10         1        33     9      180.000000       -0.141300         4    ;  uncertainty k = 0.079428
         4        10         1        34     9        0.000000       -1.858871         1    ;  uncertainty k = 0.333669
         4        10         1        34     9      180.000000       -0.004379         2    ;  uncertainty k = 0.147655
         4        10         1        34     9        0.000000        0.298804         3    ;  uncertainty k = 0.155785
         4        10         1        34     9      180.000000       -0.141300         4    ;  uncertainty k = 0.079428
         4        10        27         9     9        0.000000       -2.497432         1    ;  uncertainty k = 0.380167
         4        10        27         9     9      180.000000        0.494312         2    ;  uncertainty k = 0.192168
         4        10        27         9     9        0.000000        0.367482         3    ;  uncertainty k = 0.123935
         4        10        27         9     9      180.000000        0.360895         4    ;  uncertainty k = 0.080969
         4        10        27        43     9        0.000000        2.787690         1    ;  uncertainty k = 0.893880
         4        10        27        43     9      180.000000       -0.663636         2    ;  uncertainty k = 0.236090
         4        10        27        43     9        0.000000        0.218247         3    ;  uncertainty k = 0.119918
         4        10        27        43     9      180.000000        0.123443         4    ;  uncertainty k = 0.073280
         5         8        19        15     9        0.000000       -0.306313         1    ;  uncertainty k = 0.505391
         5         8        19        15     9      180.000000        5.699560         2    ;  uncertainty k = 1.071993
         5         8        19        15     9        0.000000        0.341049         3    ;  uncertainty k = 0.427163
         5         8        19        15     9      180.000000        1.286695         4    ;  uncertainty k = 0.336491
         5         8        19        22     9        0.000000        0.213370         1    ;  uncertainty k = 0.182658
         5         8        19        22     9      180.000000        8.078827         2    ;  uncertainty k = 0.441645
         5         8        19        22     9        0.000000        1.333555         3    ;  uncertainty k = 0.196367
         5         8        19        22     9      180.000000        1.703920         4    ;  uncertainty k = 0.101417
         5        13        14        15     9        0.000000        0.006656         1    ;  uncertainty k = 0.178742
         5        13        14        15     9      180.000000        9.851306         2    ;  uncertainty k = 0.487067
         5        13        14        15     9        0.000000       -0.289375         3    ;  uncertainty k = 0.510037
         5        13        14        15     9      180.000000        1.102178         4    ;  uncertainty k = 0.341530
         5        13        14        28     9        0.000000        0.058690         1    ;  uncertainty k = 0.184961
         5        13        14        28     9      180.000000        5.722279         2    ;  uncertainty k = 0.634542
         5        13        14        28     9        0.000000        1.318867         3    ;  uncertainty k = 0.348930
         5        13        14        28     9      180.000000        1.524759         4    ;  uncertainty k = 0.200416
         6         2         1        10     9        0.000000       -0.987582         1    ;  uncertainty k = 1.101439
         6         2         1        10     9      180.000000       -3.903899         2    ;  uncertainty k = 0.673250
         6         2         1        10     9        0.000000        1.869479         3    ;  uncertainty k = 0.389552
         6         2         1        10     9      180.000000       -0.727265         4    ;  uncertainty k = 0.139798
         6         2         1        33     9        0.000000       -1.784485         1    ;  uncertainty k = 0.521414
         6         2         1        33     9      180.000000       -0.100756         2    ;  uncertainty k = 0.269946
         6         2         1        33     9        0.000000        1.457848         3    ;  uncertainty k = 0.236776
         6         2         1        33     9      180.000000       -0.196225         4    ;  uncertainty k = 0.165688
         6         2         1        34     9        0.000000       -1.784485         1    ;  uncertainty k = 0.521414
         6         2         1        34     9      180.000000       -0.100756         2    ;  uncertainty k = 0.269946
         6         2         1        34     9        0.000000        1.457848         3    ;  uncertainty k = 0.236776
         6         2         1        34     9      180.000000       -0.196225         4    ;  uncertainty k = 0.165688
         6         3         4        10     9        0.000000       -0.987582         1    ;  uncertainty k = 1.101439
         6         3         4        10     9      180.000000       -3.903899         2    ;  uncertainty k = 0.673250
         6         3         4        10     9        0.000000        1.869479         3    ;  uncertainty k = 0.389552
         6         3         4        10     9      180.000000       -0.727265         4    ;  uncertainty k = 0.139798
         6         3         4        39     9        0.000000       -1.784485         1    ;  uncertainty k = 0.521414
         6         3         4        39     9      180.000000       -0.100756         2    ;  uncertainty k = 0.269946
         6         3         4        39     9        0.000000        1.457848         3    ;  uncertainty k = 0.236776
         6         3         4        39     9      180.000000       -0.196225         4    ;  uncertainty k = 0.165688
         6         3         4        40     9        0.000000       -1.784485         1    ;  uncertainty k = 0.521414
         6         3         4        40     9      180.000000       -0.100756         2    ;  uncertainty k = 0.269946
         6         3         4        40     9        0.000000        1.457848         3    ;  uncertainty k = 0.236776
         6         3         4        40     9      180.000000       -0.196225         4    ;  uncertainty k = 0.165688
         7        18        12        11     9        0.000000        0.294685         1    ;  uncertainty k = 0.637870
         7        18        12        11     9      180.000000       13.225807         2    ;  uncertainty k = 0.417108
         7        18        12        11     9        0.000000        1.604249         3    ;  uncertainty k = 0.192654
         7        18        12        11     9      180.000000        1.176387         4    ;  uncertainty k = 0.281291
         7        18        12        31     9        0.000000        0.207596         1    ;  uncertainty k = 0.653070
         7        18        12        31     9      180.000000       10.850435         2    ;  uncertainty k = 0.655261
         7        18        12        31     9        0.000000        1.618110         3    ;  uncertainty k = 0.487152
         7        18        12        31     9      180.000000        1.185335         4    ;  uncertainty k = 0.082248
         7        18        22        19     9        0.000000        2.660028         1    ;  uncertainty k = 2.307533
         7        18        22        19     9      180.000000        3.054718         2    ;  uncertainty k = 0.436597
         7        18        22        19     9        0.000000        1.845534         3    ;  uncertainty k = 0.369492
         7        18        22        19     9      180.000000        0.163463         4    ;  uncertainty k = 0.209163
         7        25        16        11     9        0.000000        0.117366         1    ;  uncertainty k = 1.935320
         7        25        16        11     9      180.000000        4.391455         2    ;  uncertainty k = 1.232580
         7        25        16        11     9        0.000000        0.412069         3    ;  uncertainty k = 0.313646
         7        25        16        11     9      180.000000        0.083738         4    ;  uncertainty k = 0.080520
         7        25        16        26     9        0.000000       -0.066801         1    ;  uncertainty k = 1.254392
         7        25        16        26     9      180.000000        7.383703         2    ;  uncertainty k = 0.417349
         7        25        16        26     9        0.000000        1.131502         3    ;  uncertainty k = 0.424019
         7        25        16        26     9      180.000000       -0.165405         4    ;  uncertainty k = 0.150095
         7        25        44        42     9        0.000000        0.661050         1    ;  uncertainty k = 0.716999
         7        25        44        42     9      180.000000        2.303470         2    ;  uncertainty k = 0.572479
         7        25        44        42     9        0.000000        1.030030         3    ;  uncertainty k = 0.283039
         7        25        44        42     9      180.000000        0.650053         4    ;  uncertainty k = 0.072499
         7        25        44        45     9        0.000000       -1.117288         1    ;  uncertainty k = 1.158125
         7        25        44        45     9      180.000000        1.761236         2    ;  uncertainty k = 0.547935
         7        25        44        45     9        0.000000        0.262613         3    ;  uncertainty k = 0.306489
         7        25        44        45     9      180.000000        0.180021         4    ;  uncertainty k = 0.112729
         7        25        44        46     9        0.000000       -1.117288         1    ;  uncertainty k = 1.158125
         7        25        44        46     9      180.000000        1.761235         2    ;  uncertainty k = 0.547935
         7        25        44        46     9        0.000000        0.262613         3    ;  uncertainty k = 0.306489
         7        25        44        46     9      180.000000        0.180021         4    ;  uncertainty k = 0.112730
         8         5        13        14     9        0.000000       -0.049959         1    ;  uncertainty k = 0.238365
         8         5        13        14     9      180.000000        8.709297         2    ;  uncertainty k = 0.507640
         8         5        13        14     9        0.000000       -0.103094         3    ;  uncertainty k = 0.454333
         8         5        13        14     9      180.000000        1.263124         4    ;  uncertainty k = 0.287252
         8         5        13        21     9        0.000000        0.023050         1    ;  uncertainty k = 0.157478
         8         5        13        21     9      180.000000       12.231401         2    ;  uncertainty k = 0.567990
         8         5        13        21     9        0.000000        1.527926         3    ;  uncertainty k = 0.329456
         8         5        13        21     9      180.000000        1.522411         4    ;  uncertainty k = 0.258192
         8        19        15        14     9        0.000000        0.015776         1    ;  uncertainty k = 0.049644
         8        19        15        14     9      180.000000        9.130352         2    ;  uncertainty k = 0.496855
         8        19        15        14     9        0.000000        0.154802         3    ;  uncertainty k = 0.380221
         8        19        15        14     9      180.000000        1.321067         4    ;  uncertainty k = 0.368043
         8        19        15        29     9        0.000000        0.146476         1    ;  uncertainty k = 0.242432
         8        19        15        29     9      180.000000        6.097361         2    ;  uncertainty k = 0.718867
         8        19        15        29     9        0.000000        1.323120         3    ;  uncertainty k = 0.435541
         8        19        15        29     9      180.000000        1.565701         4    ;  uncertainty k = 0.129358
         8        19        22        18     9        0.000000        3.609969         1    ;  uncertainty k = 0.772424
         8        19        22        18     9      180.000000        2.921751         2    ;  uncertainty k = 0.325649
         8        19        22        18     9        0.000000        0.847862         3    ;  uncertainty k = 0.233145
         8        19        22        18     9      180.000000        0.046325         4    ;  uncertainty k = 0.190703
         9        23        17        11     9        0.000000       -0.101117         1    ;  uncertainty k = 0.766492
         9        23        17        11     9      180.000000       17.326929         2    ;  uncertainty k = 0.580528
         9        23        17        11     9        0.000000       -0.524355         3    ;  uncertainty k = 0.677619
         9        23        17        11     9      180.000000        1.633067         4    ;  uncertainty k = 0.630079
         9        23        17        32     9        0.000000        0.095519         1    ;  uncertainty k = 0.991216
         9        23        17        32     9      180.000000       17.960826         2    ;  uncertainty k = 0.662562
         9        23        17        32     9        0.000000        1.366971         3    ;  uncertainty k = 0.782879
         9        23        17        32     9      180.000000        1.137676         4    ;  uncertainty k = 0.476842
         9        26        16        11     9        0.000000        0.104330         1    ;  uncertainty k = 0.563551
         9        26        16        11     9      180.000000       13.178272         2    ;  uncertainty k = 0.790241
         9        26        16        11     9        0.000000        0.193900         3    ;  uncertainty k = 0.881400
         9        26        16        11     9      180.000000        1.097569         4    ;  uncertainty k = 0.457463
         9        26        16        25     9        0.000000        0.447406         1    ;  uncertainty k = 0.859517
         9        26        16        25     9      180.000000       15.817839         2    ;  uncertainty k = 0.995118
         9        26        16        25     9        0.000000        1.797190         3    ;  uncertainty k = 0.279891
         9        26        16        25     9      180.000000        1.089994         4    ;  uncertainty k = 0.387785
         9        27        10        41     9        0.000000       -0.146853         1    ;  uncertainty k = 0.447263
         9        27        10        41     9      180.000000       -0.297014         2    ;  uncertainty k = 0.129541
         9        27        10        41     9        0.000000        0.051352         3    ;  uncertainty k = 0.153077
         9        27        10        41     9      180.000000        0.288084         4    ;  uncertainty k = 0.067876
        10         1         2        35     9        0.000000        3.577617         1    ;  uncertainty k = 1.073611
        10         1         2        35     9      180.000000       -2.876486         2    ;  uncertainty k = 0.518010
        10         1         2        35     9        0.000000       -0.152945         3    ;  uncertainty k = 0.197941
        10         1         2        35     9      180.000000        0.397574         4    ;  uncertainty k = 0.144225
        10         1         2        36     9        0.000000        3.577617         1    ;  uncertainty k = 1.073611
        10         1         2        36     9      180.000000       -2.876486         2    ;  uncertainty k = 0.518010
        10         1         2        36     9        0.000000       -0.152945         3    ;  uncertainty k = 0.197941
        10         1         2        36     9      180.000000        0.397574         4    ;  uncertainty k = 0.144225
        10         4         3        37     9        0.000000        3.577617         1    ;  uncertainty k = 1.073611
        10         4         3        37     9      180.000000       -2.876486         2    ;  uncertainty k = 0.518010
        10         4         3        37     9        0.000000       -0.152945         3    ;  uncertainty k = 0.197941
        10         4         3        37     9      180.000000        0.397574         4    ;  uncertainty k = 0.144225
        10         4         3        38     9        0.000000        3.577617         1    ;  uncertainty k = 1.073611
        10         4         3        38     9      180.000000       -2.876486         2    ;  uncertainty k = 0.518010
        10         4         3        38     9        0.000000       -0.152945         3    ;  uncertainty k = 0.197941
        10         4         3        38     9      180.000000        0.397574         4    ;  uncertainty k = 0.144225
        10        27         9        23     9        0.000000        9.083133         1    ;  uncertainty k = 0.675919
        10        27         9        23     9      180.000000       11.332399         2    ;  uncertainty k = 0.234664
        10        27         9        23     9        0.000000        1.390640         3    ;  uncertainty k = 0.177766
        10        27         9        23     9      180.000000       -0.346642         4    ;  uncertainty k = 0.039246
        10        27         9        26     9        0.000000        9.976527         1    ;  uncertainty k = 0.740467
        10        27         9        26     9      180.000000       11.651352         2    ;  uncertainty k = 0.164158
        10        27         9        26     9        0.000000        1.289622         3    ;  uncertainty k = 0.216418
        10        27         9        26     9      180.000000       -0.389819         4    ;  uncertainty k = 0.080107
        11        12        18        22     9        0.000000        0.162249         1    ;  uncertainty k = 0.328795
        11        12        18        22     9      180.000000       21.149686         2    ;  uncertainty k = 0.629701
        11        12        18        22     9        0.000000        2.036428         3    ;  uncertainty k = 0.296179
        11        12        18        22     9      180.000000        0.660188         4    ;  uncertainty k = 0.544457
        11        16        25        44     9        0.000000        1.156822         1    ;  uncertainty k = 0.548344
        11        16        25        44     9      180.000000        9.073599         2    ;  uncertainty k = 0.713502
        11        16        25        44     9        0.000000        1.071337         3    ;  uncertainty k = 0.501565
        11        16        25        44     9      180.000000       -0.001798         4    ;  uncertainty k = 0.354172
        12        11        16        25     9        0.000000       -0.158214         1    ;  uncertainty k = 0.372305
        12        11        16        25     9      180.000000        7.664089         2    ;  uncertainty k = 0.485584
        12        11        16        25     9        0.000000        0.301742         3    ;  uncertainty k = 0.480982
        12        11        16        25     9      180.000000        1.089597         4    ;  uncertainty k = 0.197653
        12        11        16        26     9        0.000000        0.111289         1    ;  uncertainty k = 0.942982
        12        11        16        26     9      180.000000        8.370399         2    ;  uncertainty k = 1.325838
        12        11        16        26     9        0.000000        0.017175         3    ;  uncertainty k = 0.331009
        12        11        16        26     9      180.000000        1.304223         4    ;  uncertainty k = 0.536270
        12        11        17        23     9        0.000000        0.202885         1    ;  uncertainty k = 0.442211
        12        11        17        23     9      180.000000       10.823068         2    ;  uncertainty k = 0.572804
        12        11        17        23     9        0.000000        0.261463         3    ;  uncertainty k = 0.273958
        12        11        17        23     9      180.000000        1.226008         4    ;  uncertainty k = 0.359630
        12        11        17        32     9        0.000000       -0.402297         1    ;  uncertainty k = 0.573661
        12        11        17        32     9      180.000000        5.997827         2    ;  uncertainty k = 0.656739
        12        11        17        32     9        0.000000        0.802769         3    ;  uncertainty k = 0.257804
        12        11        17        32     9      180.000000        0.672145         4    ;  uncertainty k = 0.178451
        12        18         7        24     9        0.000000       -2.853337         1    ;  uncertainty k = 0.957098
        12        18         7        24     9      180.000000        2.866870         2    ;  uncertainty k = 0.947025
        12        18         7        24     9        0.000000       -0.147451         3    ;  uncertainty k = 0.424092
        12        18         7        24     9      180.000000       -0.012580         4    ;  uncertainty k = 0.195262
        12        18         7        25     9        0.000000        2.268702         1    ;  uncertainty k = 2.196501
        12        18         7        25     9      180.000000        0.438344         2    ;  uncertainty k = 0.933149
        12        18         7        25     9        0.000000        0.450578         3    ;  uncertainty k = 0.412921
        12        18         7        25     9      180.000000        0.361929         4    ;  uncertainty k = 0.172879
        12        18        22        19     9        0.000000        6.021294         1    ;  uncertainty k = 1.052098
        12        18        22        19     9      180.000000        6.342482         2    ;  uncertainty k = 0.140038
        12        18        22        19     9        0.000000       -0.843495         3    ;  uncertainty k = 0.361211
        12        18        22        19     9      180.000000        0.130763         4    ;  uncertainty k = 0.101672
        13         5         8        19     9        0.000000       -0.028157         1    ;  uncertainty k = 0.164194
        13         5         8        19     9      180.000000        8.671004         2    ;  uncertainty k = 0.512359
        13         5         8        19     9        0.000000        0.207433         3    ;  uncertainty k = 0.509188
        13         5         8        19     9      180.000000        1.302601         4    ;  uncertainty k = 0.281851
        13         5         8        20     9        0.000000       -0.002392         1    ;  uncertainty k = 0.247129
        13         5         8        20     9      180.000000       13.084887         2    ;  uncertainty k = 0.509633
        13         5         8        20     9        0.000000        1.474366         3    ;  uncertainty k = 0.306558
        13         5         8        20     9      180.000000        1.520558         4    ;  uncertainty k = 0.243651
        13        14        15        19     9        0.000000       -0.113542         1    ;  uncertainty k = 0.211768
        13        14        15        19     9      180.000000       13.972594         2    ;  uncertainty k = 0.306737
        13        14        15        19     9        0.000000       -0.786444         3    ;  uncertainty k = 0.554355
        13        14        15        19     9      180.000000        0.930464         4    ;  uncertainty k = 0.288428
        13        14        15        29     9        0.000000       -0.003440         1    ;  uncertainty k = 0.095641
        13        14        15        29     9      180.000000        7.538138         2    ;  uncertainty k = 0.273713
        13        14        15        29     9        0.000000        1.412643         3    ;  uncertainty k = 0.270752
        13        14        15        29     9      180.000000        1.740927         4    ;  uncertainty k = 0.123790
        14        13         5        30     9        0.000000        0.138635         1    ;  uncertainty k = 0.151239
        14        13         5        30     9      180.000000        5.451074         2    ;  uncertainty k = 0.660632
        14        13         5        30     9        0.000000        1.286115         3    ;  uncertainty k = 0.294094
        14        13         5        30     9      180.000000        1.480963         4    ;  uncertainty k = 0.179055
        14        15        19        22     9        0.000000       -0.062749         1    ;  uncertainty k = 0.388805
        14        15        19        22     9      180.000000       11.000999         2    ;  uncertainty k = 0.445898
        14        15        19        22     9        0.000000        1.357038         3    ;  uncertainty k = 0.240474
        14        15        19        22     9      180.000000        1.737170         4    ;  uncertainty k = 0.120880
        15        14        13        21     9        0.000000       -0.032001         1    ;  uncertainty k = 0.254449
        15        14        13        21     9      180.000000       12.251927         2    ;  uncertainty k = 0.522356
        15        14        13        21     9        0.000000        1.414423         3    ;  uncertainty k = 0.230243
        15        14        13        21     9      180.000000        1.530094         4    ;  uncertainty k = 0.209632
        15        19         8        20     9        0.000000        0.257162         1    ;  uncertainty k = 0.251999
        15        19         8        20     9      180.000000        8.387430         2    ;  uncertainty k = 0.311300
        15        19         8        20     9        0.000000        1.426919         3    ;  uncertainty k = 0.223314
        15        19         8        20     9      180.000000        1.675064         4    ;  uncertainty k = 0.138706
        15        19        22        18     9        0.000000        4.642571         1    ;  uncertainty k = 1.010936
        15        19        22        18     9      180.000000        3.939851         2    ;  uncertainty k = 0.189571
        15        19        22        18     9        0.000000        0.375077         3    ;  uncertainty k = 0.326588
        15        19        22        18     9      180.000000        0.120013         4    ;  uncertainty k = 0.075634
        16        11        12        18     9        0.000000       -0.153368         1    ;  uncertainty k = 1.084720
        16        11        12        18     9      180.000000        6.572040         2    ;  uncertainty k = 0.931286
        16        11        12        18     9        0.000000        0.274744         3    ;  uncertainty k = 0.343549
        16        11        12        18     9      180.000000        0.518974         4    ;  uncertainty k = 0.175281
        16        11        12        31     9        0.000000        0.610136         1    ;  uncertainty k = 1.287216
        16        11        12        31     9      180.000000        6.350860         2    ;  uncertainty k = 0.661249
        16        11        12        31     9        0.000000        1.087817         3    ;  uncertainty k = 0.234975
        16        11        12        31     9      180.000000        0.165876         4    ;  uncertainty k = 0.189720
        16        11        17        23     9        0.000000        0.010553         1    ;  uncertainty k = 0.587949
        16        11        17        23     9      180.000000       11.952462         2    ;  uncertainty k = 0.350370
        16        11        17        23     9        0.000000       -0.947897         3    ;  uncertainty k = 0.795328
        16        11        17        23     9      180.000000        0.814872         4    ;  uncertainty k = 0.176111
        16        11        17        32     9        0.000000       -0.230079         1    ;  uncertainty k = 0.921595
        16        11        17        32     9      180.000000        6.484340         2    ;  uncertainty k = 0.885816
        16        11        17        32     9        0.000000        0.629039         3    ;  uncertainty k = 0.082004
        16        11        17        32     9      180.000000        0.768102         4    ;  uncertainty k = 0.227009
        16        25         7        18     9        0.000000        1.120144         1    ;  uncertainty k = 1.976609
        16        25         7        18     9      180.000000        1.795932         2    ;  uncertainty k = 0.831705
        16        25         7        18     9        0.000000        0.907357         3    ;  uncertainty k = 0.270062
        16        25         7        18     9      180.000000        0.429634         4    ;  uncertainty k = 0.138050
        16        25         7        24     9        0.000000        2.869355         1    ;  uncertainty k = 2.825981
        16        25         7        24     9      180.000000       12.571229         2    ;  uncertainty k = 0.613711
        16        25         7        24     9        0.000000        0.973680         3    ;  uncertainty k = 0.225054
        16        25         7        24     9      180.000000       -0.289384         4    ;  uncertainty k = 0.539842
        16        25        44        42     9        0.000000        1.345804         1    ;  uncertainty k = 1.009673
        16        25        44        42     9      180.000000        2.649076         2    ;  uncertainty k = 0.817879
        16        25        44        42     9        0.000000        1.092798         3    ;  uncertainty k = 0.299361
        16        25        44        42     9      180.000000        0.621146         4    ;  uncertainty k = 0.087714
        16        25        44        45     9        0.000000       -1.795919         1    ;  uncertainty k = 1.258568
        16        25        44        45     9      180.000000        1.438980         2    ;  uncertainty k = 0.404323
        16        25        44        45     9        0.000000        0.647908         3    ;  uncertainty k = 0.489668
        16        25        44        45     9      180.000000        0.253991         4    ;  uncertainty k = 0.189993
        16        25        44        46     9        0.000000       -1.795918         1    ;  uncertainty k = 1.258568
        16        25        44        46     9      180.000000        1.438980         2    ;  uncertainty k = 0.404324
        16        25        44        46     9        0.000000        0.647908         3    ;  uncertainty k = 0.489668
        16        25        44        46     9      180.000000        0.253991         4    ;  uncertainty k = 0.189993
        16        26         9        23     9        0.000000       -0.252713         1    ;  uncertainty k = 1.782185
        16        26         9        23     9      180.000000        6.562867         2    ;  uncertainty k = 0.961327
        16        26         9        23     9        0.000000        1.226002         3    ;  uncertainty k = 0.706462
        16        26         9        23     9      180.000000        0.755105         4    ;  uncertainty k = 0.290432
        16        26         9        27     9        0.000000        0.237971         1    ;  uncertainty k = 1.536963
        16        26         9        27     9      180.000000        8.906548         2    ;  uncertainty k = 0.651466
        16        26         9        27     9        0.000000        1.921146         3    ;  uncertainty k = 0.382915
        16        26         9        27     9      180.000000        0.865284         4    ;  uncertainty k = 0.309608
        17        11        12        18     9        0.000000        0.201544         1    ;  uncertainty k = 0.707573
        17        11        12        18     9      180.000000        5.331884         2    ;  uncertainty k = 1.077142
        17        11        12        18     9        0.000000        0.935182         3    ;  uncertainty k = 0.359073
        17        11        12        18     9      180.000000        0.392619         4    ;  uncertainty k = 0.266022
        17        11        12        31     9        0.000000        0.379574         1    ;  uncertainty k = 0.901712
        17        11        12        31     9      180.000000        5.404795         2    ;  uncertainty k = 0.326764
        17        11        12        31     9        0.000000        0.953618         3    ;  uncertainty k = 0.332799
        17        11        12        31     9      180.000000        0.084645         4    ;  uncertainty k = 0.160109
        17        11        16        25     9        0.000000       -1.036884         1    ;  uncertainty k = 0.939829
        17        11        16        25     9      180.000000        5.888123         2    ;  uncertainty k = 1.095828
        17        11        16        25     9        0.000000        0.033923         3    ;  uncertainty k = 0.273238
        17        11        16        25     9      180.000000        1.039031         4    ;  uncertainty k = 0.322210
        17        11        16        26     9        0.000000       -0.203034         1    ;  uncertainty k = 0.593751
        17        11        16        26     9      180.000000        7.692740         2    ;  uncertainty k = 1.023321
        17        11        16        26     9        0.000000       -0.366302         3    ;  uncertainty k = 0.316703
        17        11        16        26     9      180.000000        1.229582         4    ;  uncertainty k = 0.579556
        17        23         9        26     9        0.000000       -0.042610         1    ;  uncertainty k = 0.782014
        17        23         9        26     9      180.000000        6.549756         2    ;  uncertainty k = 1.355250
        17        23         9        26     9        0.000000        0.827991         3    ;  uncertainty k = 0.536083
        17        23         9        26     9      180.000000        0.515564         4    ;  uncertainty k = 0.204843
        17        23         9        27     9        0.000000        0.363457         1    ;  uncertainty k = 0.803238
        17        23         9        27     9      180.000000        7.700470         2    ;  uncertainty k = 0.532479
        17        23         9        27     9        0.000000        1.841659         3    ;  uncertainty k = 0.697341
        17        23         9        27     9      180.000000        0.630690         4    ;  uncertainty k = 0.281715
        18         7        25        44     9        0.000000        0.935799         1    ;  uncertainty k = 2.105669
        18         7        25        44     9      180.000000        7.094274         2    ;  uncertainty k = 0.730667
        18         7        25        44     9        0.000000        1.747598         3    ;  uncertainty k = 0.281272
        18         7        25        44     9      180.000000       -0.283176         4    ;  uncertainty k = 0.136136
        19         8         5        30     9        0.000000        0.057379         1    ;  uncertainty k = 0.165911
        19         8         5        30     9      180.000000        5.716951         2    ;  uncertainty k = 0.832327
        19         8         5        30     9        0.000000        1.299980         3    ;  uncertainty k = 0.327602
        19         8         5        30     9      180.000000        1.492424         4    ;  uncertainty k = 0.176810
        19        15        14        28     9        0.000000        0.076709         1    ;  uncertainty k = 0.186984
        19        15        14        28     9      180.000000        7.523892         2    ;  uncertainty k = 0.356925
        19        15        14        28     9        0.000000        1.389232         3    ;  uncertainty k = 0.254789
        19        15        14        28     9      180.000000        1.744370         4    ;  uncertainty k = 0.166848
        20         8         5        30     9        0.000000       -0.230980         1    ;  uncertainty k = 0.291748
        20         8         5        30     9      180.000000        9.239380         2    ;  uncertainty k = 0.341179
        20         8         5        30     9        0.000000        0.839928         3    ;  uncertainty k = 0.293710
        20         8         5        30     9      180.000000        1.043063         4    ;  uncertainty k = 0.201990
        20         8        19        22     9        0.000000       -0.103955         1    ;  uncertainty k = 0.355229
        20         8        19        22     9      180.000000       12.165713         2    ;  uncertainty k = 0.216212
        20         8        19        22     9        0.000000        1.160957         3    ;  uncertainty k = 0.366339
        20         8        19        22     9      180.000000        1.263629         4    ;  uncertainty k = 0.191989
        21        13         5        30     9        0.000000       -0.271891         1    ;  uncertainty k = 0.249928
        21        13         5        30     9      180.000000        8.500019         2    ;  uncertainty k = 0.281498
        21        13         5        30     9        0.000000        0.815708         3    ;  uncertainty k = 0.327842
        21        13         5        30     9      180.000000        0.992978         4    ;  uncertainty k = 0.194491
        21        13        14        28     9        0.000000       -0.357248         1    ;  uncertainty k = 0.222188
        21        13        14        28     9      180.000000        8.920407         2    ;  uncertainty k = 0.265967
        21        13        14        28     9        0.000000        0.818892         3    ;  uncertainty k = 0.249596
        21        13        14        28     9      180.000000        0.905586         4    ;  uncertainty k = 0.175017
        22        18         7        24     9        0.000000       -1.984419         1    ;  uncertainty k = 1.671879
        22        18         7        24     9      180.000000        9.602266         2    ;  uncertainty k = 0.621109
        22        18         7        24     9        0.000000        0.231552         3    ;  uncertainty k = 0.537675
        22        18         7        24     9      180.000000       -0.341783         4    ;  uncertainty k = 0.478366
        22        18         7        25     9        0.000000        1.156060         1    ;  uncertainty k = 1.250728
        22        18         7        25     9      180.000000        3.342035         2    ;  uncertainty k = 0.774389
        22        18         7        25     9        0.000000        0.738764         3    ;  uncertainty k = 0.343530
        22        18         7        25     9      180.000000        0.607204         4    ;  uncertainty k = 0.093756
        22        18        12        31     9        0.000000        0.195702         1    ;  uncertainty k = 0.776437
        22        18        12        31     9      180.000000       16.249337         2    ;  uncertainty k = 0.426475
        22        18        12        31     9        0.000000        1.913210         3    ;  uncertainty k = 0.087036
        22        18        12        31     9      180.000000        0.974176         4    ;  uncertainty k = 0.564687
        22        19        15        29     9        0.000000       -0.023672         1    ;  uncertainty k = 0.162631
        22        19        15        29     9      180.000000        8.760227         2    ;  uncertainty k = 0.243285
        22        19        15        29     9        0.000000        0.881754         3    ;  uncertainty k = 0.265393
        22        19        15        29     9      180.000000        1.206432         4    ;  uncertainty k = 0.153909
        23         9        27        43     9        0.000000       10.258125         1    ;  uncertainty k = 0.668859
        23         9        27        43     9      180.000000        9.713672         2    ;  uncertainty k = 0.275205
        23         9        27        43     9        0.000000        1.248988         3    ;  uncertainty k = 0.561955
        23         9        27        43     9      180.000000       -0.445873         4    ;  uncertainty k = 0.259356
        24         7        25        44     9        0.000000        1.452961         1    ;  uncertainty k = 1.692873
        24         7        25        44     9      180.000000       13.277371         2    ;  uncertainty k = 0.458309
        24         7        25        44     9        0.000000        0.406588         3    ;  uncertainty k = 0.417348
        24         7        25        44     9      180.000000       -0.129362         4    ;  uncertainty k = 0.193473
        25        44        45        46     9        0.000000       69.377878         1    ;  uncertainty k = 0.227614
        25        44        45        46     9      180.000000       -5.210155         2    ;  uncertainty k = 5.211866
        25        44        45        46     9        0.000000      -13.050380         3    ;  uncertainty k = 1.885449
        25        44        45        46     9      180.000000        9.580079         4    ;  uncertainty k = 0.437103
        25        44        45        47     9        0.000000       -0.863783         1    ;  uncertainty k = 1.648085
        25        44        45        47     9      180.000000       -3.783268         2    ;  uncertainty k = 1.718951
        25        44        45        47     9        0.000000        0.381461         3    ;  uncertainty k = 0.597714
        25        44        45        47     9      180.000000       -0.828350         4    ;  uncertainty k = 0.367246
        25        44        45        48     9        0.000000       -0.863783         1    ;  uncertainty k = 1.648085
        25        44        45        48     9      180.000000       -3.783268         2    ;  uncertainty k = 1.718951
        25        44        45        48     9        0.000000        0.381461         3    ;  uncertainty k = 0.597714
        25        44        45        48     9      180.000000       -0.828350         4    ;  uncertainty k = 0.367246
        25        44        46        45     9        0.000000       69.377878         1    ;  uncertainty k = 0.227614
        25        44        46        45     9      180.000000       -5.210154         2    ;  uncertainty k = 5.211867
        25        44        46        45     9        0.000000      -13.050382         3    ;  uncertainty k = 1.885448
        25        44        46        45     9      180.000000        9.580080         4    ;  uncertainty k = 0.437103
        25        44        46        49     9        0.000000       -0.863781         1    ;  uncertainty k = 1.648087
        25        44        46        49     9      180.000000       -3.783267         2    ;  uncertainty k = 1.718951
        25        44        46        49     9        0.000000        0.381461         3    ;  uncertainty k = 0.597715
        25        44        46        49     9      180.000000       -0.828350         4    ;  uncertainty k = 0.367246
        25        44        46        50     9        0.000000       -0.863781         1    ;  uncertainty k = 1.648087
        25        44        46        50     9      180.000000       -3.783267         2    ;  uncertainty k = 1.718951
        25        44        46        50     9        0.000000        0.381461         3    ;  uncertainty k = 0.597715
        25        44        46        50     9      180.000000       -0.828350         4    ;  uncertainty k = 0.367246
        26         9        27        43     9        0.000000       12.418012         1    ;  uncertainty k = 0.700747
        26         9        27        43     9      180.000000       10.389145         2    ;  uncertainty k = 0.366360
        26         9        27        43     9        0.000000        1.219637         3    ;  uncertainty k = 0.556228
        26         9        27        43     9      180.000000       -0.548976         4    ;  uncertainty k = 0.168870
        26        16        25        44     9        0.000000        1.631703         1    ;  uncertainty k = 0.790193
        26        16        25        44     9      180.000000       10.309640         2    ;  uncertainty k = 0.333625
        26        16        25        44     9        0.000000        1.075540         3    ;  uncertainty k = 0.317361
        26        16        25        44     9      180.000000        0.080142         4    ;  uncertainty k = 0.213966
        27        10         1        33     9        0.000000       -0.664477         1    ;  uncertainty k = 0.439753
        27        10         1        33     9      180.000000       -0.719545         2    ;  uncertainty k = 0.206247
        27        10         1        33     9        0.000000        1.110830         3    ;  uncertainty k = 0.090613
        27        10         1        33     9      180.000000       -0.312617         4    ;  uncertainty k = 0.084156
        27        10         1        34     9        0.000000       -0.664477         1    ;  uncertainty k = 0.439753
        27        10         1        34     9      180.000000       -0.719545         2    ;  uncertainty k = 0.206247
        27        10         1        34     9        0.000000        1.110830         3    ;  uncertainty k = 0.090613
        27        10         1        34     9      180.000000       -0.312617         4    ;  uncertainty k = 0.084156
        27        10         4        39     9        0.000000       -0.664477         1    ;  uncertainty k = 0.439753
        27        10         4        39     9      180.000000       -0.719545         2    ;  uncertainty k = 0.206247
        27        10         4        39     9        0.000000        1.110830         3    ;  uncertainty k = 0.090613
        27        10         4        39     9      180.000000       -0.312617         4    ;  uncertainty k = 0.084156
        27        10         4        40     9        0.000000       -0.664477         1    ;  uncertainty k = 0.439753
        27        10         4        40     9      180.000000       -0.719545         2    ;  uncertainty k = 0.206247
        27        10         4        40     9        0.000000        1.110830         3    ;  uncertainty k = 0.090613
        27        10         4        40     9      180.000000       -0.312617         4    ;  uncertainty k = 0.084156
        28        14        15        29     9        0.000000        0.032265         1    ;  uncertainty k = 0.250069
        28        14        15        29     9      180.000000        7.287468         2    ;  uncertainty k = 0.427630
        28        14        15        29     9        0.000000       -0.295849         3    ;  uncertainty k = 0.226115
        28        14        15        29     9      180.000000        0.117549         4    ;  uncertainty k = 0.137082
        33         1         2        35     9        0.000000       -0.225271         1    ;  uncertainty k = 0.371621
        33         1         2        35     9      180.000000        0.719911         2    ;  uncertainty k = 0.314572
        33         1         2        35     9        0.000000        0.112053         3    ;  uncertainty k = 0.052184
        33         1         2        35     9      180.000000       -0.321413         4    ;  uncertainty k = 0.066104
        33         1         2        36     9        0.000000       -0.225271         1    ;  uncertainty k = 0.371621
        33         1         2        36     9      180.000000        0.719911         2    ;  uncertainty k = 0.314572
        33         1         2        36     9        0.000000        0.112053         3    ;  uncertainty k = 0.052184
        33         1         2        36     9      180.000000       -0.321413         4    ;  uncertainty k = 0.066104
        33         1        10        41     9        0.000000        1.333899         1    ;  uncertainty k = 0.470364
        33         1        10        41     9      180.000000       -0.346033         2    ;  uncertainty k = 0.220492
        33         1        10        41     9        0.000000        0.040957         3    ;  uncertainty k = 0.124052
        33         1        10        41     9      180.000000        0.039296         4    ;  uncertainty k = 0.035575
        34         1         2        35     9        0.000000       -0.225271         1    ;  uncertainty k = 0.371621
        34         1         2        35     9      180.000000        0.719911         2    ;  uncertainty k = 0.314572
        34         1         2        35     9        0.000000        0.112053         3    ;  uncertainty k = 0.052184
        34         1         2        35     9      180.000000       -0.321413         4    ;  uncertainty k = 0.066104
        34         1         2        36     9        0.000000       -0.225271         1    ;  uncertainty k = 0.371621
        34         1         2        36     9      180.000000        0.719911         2    ;  uncertainty k = 0.314572
        34         1         2        36     9        0.000000        0.112053         3    ;  uncertainty k = 0.052184
        34         1         2        36     9      180.000000       -0.321413         4    ;  uncertainty k = 0.066104
        34         1        10        41     9        0.000000        1.333899         1    ;  uncertainty k = 0.470364
        34         1        10        41     9      180.000000       -0.346033         2    ;  uncertainty k = 0.220492
        34         1        10        41     9        0.000000        0.040957         3    ;  uncertainty k = 0.124052
        34         1        10        41     9      180.000000        0.039296         4    ;  uncertainty k = 0.035575
        37         3         4        39     9        0.000000       -0.225271         1    ;  uncertainty k = 0.371621
        37         3         4        39     9      180.000000        0.719911         2    ;  uncertainty k = 0.314572
        37         3         4        39     9        0.000000        0.112053         3    ;  uncertainty k = 0.052184
        37         3         4        39     9      180.000000       -0.321413         4    ;  uncertainty k = 0.066104
        37         3         4        40     9        0.000000       -0.225271         1    ;  uncertainty k = 0.371621
        37         3         4        40     9      180.000000        0.719911         2    ;  uncertainty k = 0.314572
        37         3         4        40     9        0.000000        0.112053         3    ;  uncertainty k = 0.052184
        37         3         4        40     9      180.000000       -0.321413         4    ;  uncertainty k = 0.066104
        38         3         4        39     9        0.000000       -0.225271         1    ;  uncertainty k = 0.371621
        38         3         4        39     9      180.000000        0.719911         2    ;  uncertainty k = 0.314572
        38         3         4        39     9        0.000000        0.112053         3    ;  uncertainty k = 0.052184
        38         3         4        39     9      180.000000       -0.321413         4    ;  uncertainty k = 0.066104
        38         3         4        40     9        0.000000       -0.225271         1    ;  uncertainty k = 0.371621
        38         3         4        40     9      180.000000        0.719911         2    ;  uncertainty k = 0.314572
        38         3         4        40     9        0.000000        0.112053         3    ;  uncertainty k = 0.052184
        38         3         4        40     9      180.000000       -0.321413         4    ;  uncertainty k = 0.066104
        39         4        10        41     9        0.000000        1.333899         1    ;  uncertainty k = 0.470364
        39         4        10        41     9      180.000000       -0.346033         2    ;  uncertainty k = 0.220492
        39         4        10        41     9        0.000000        0.040957         3    ;  uncertainty k = 0.124052
        39         4        10        41     9      180.000000        0.039296         4    ;  uncertainty k = 0.035575
        40         4        10        41     9        0.000000        1.333899         1    ;  uncertainty k = 0.470364
        40         4        10        41     9      180.000000       -0.346033         2    ;  uncertainty k = 0.220492
        40         4        10        41     9        0.000000        0.040957         3    ;  uncertainty k = 0.124052
        40         4        10        41     9      180.000000        0.039296         4    ;  uncertainty k = 0.035575
        41        10        27        43     9        0.000000        0.976343         1    ;  uncertainty k = 0.742026
        41        10        27        43     9      180.000000       -1.754256         2    ;  uncertainty k = 0.294903
        41        10        27        43     9        0.000000       -0.016582         3    ;  uncertainty k = 0.098589
        41        10        27        43     9      180.000000        0.124158         4    ;  uncertainty k = 0.074181
        42        44        45        46     9        0.000000       46.257385         1    ;  uncertainty k = 0.382331
        42        44        45        46     9      180.000000       -2.418860         2    ;  uncertainty k = 3.129071
        42        44        45        46     9        0.000000      -10.629625         3    ;  uncertainty k = 0.906303
        42        44        45        46     9      180.000000        5.812569         4    ;  uncertainty k = 0.438081
        42        44        45        47     9        0.000000        0.155305         1    ;  uncertainty k = 1.658371
        42        44        45        47     9      180.000000       -0.991080         2    ;  uncertainty k = 1.424764
        42        44        45        47     9        0.000000        0.618084         3    ;  uncertainty k = 0.255998
        42        44        45        47     9      180.000000       -0.726987         4    ;  uncertainty k = 0.130132
        42        44        45        48     9        0.000000        0.155305         1    ;  uncertainty k = 1.658371
        42        44        45        48     9      180.000000       -0.991080         2    ;  uncertainty k = 1.424764
        42        44        45        48     9        0.000000        0.618084         3    ;  uncertainty k = 0.255998
        42        44        45        48     9      180.000000       -0.726987         4    ;  uncertainty k = 0.130132
        42        44        46        45     9        0.000000       46.257377         1    ;  uncertainty k = 0.382330
        42        44        46        45     9      180.000000       -2.418861         2    ;  uncertainty k = 3.129071
        42        44        46        45     9        0.000000      -10.629625         3    ;  uncertainty k = 0.906303
        42        44        46        45     9      180.000000        5.812568         4    ;  uncertainty k = 0.438081
        42        44        46        49     9        0.000000        0.155308         1    ;  uncertainty k = 1.658367
        42        44        46        49     9      180.000000       -0.991080         2    ;  uncertainty k = 1.424764
        42        44        46        49     9        0.000000        0.618083         3    ;  uncertainty k = 0.255998
        42        44        46        49     9      180.000000       -0.726986         4    ;  uncertainty k = 0.130132
        42        44        46        50     9        0.000000        0.155308         1    ;  uncertainty k = 1.658367
        42        44        46        50     9      180.000000       -0.991080         2    ;  uncertainty k = 1.424764
        42        44        46        50     9        0.000000        0.618083         3    ;  uncertainty k = 0.255998
        42        44        46        50     9      180.000000       -0.726986         4    ;  uncertainty k = 0.130132
        44        45        46        49     9        0.000000       41.363170         1    ;  uncertainty k = 0.432931
        44        45        46        49     9      180.000000       -4.547464         2    ;  uncertainty k = 1.545578
        44        45        46        49     9        0.000000       -9.314033         3    ;  uncertainty k = 1.050374
        44        45        46        49     9      180.000000        4.153482         4    ;  uncertainty k = 0.466777
        44        45        46        50     9        0.000000       41.363170         1    ;  uncertainty k = 0.432931
        44        45        46        50     9      180.000000       -4.547464         2    ;  uncertainty k = 1.545578
        44        45        46        50     9        0.000000       -9.314033         3    ;  uncertainty k = 1.050374
        44        45        46        50     9      180.000000        4.153482         4    ;  uncertainty k = 0.466777
        44        46        45        47     9        0.000000       41.363170         1    ;  uncertainty k = 0.432930
        44        46        45        47     9      180.000000       -4.547466         2    ;  uncertainty k = 1.545578
        44        46        45        47     9        0.000000       -9.314032         3    ;  uncertainty k = 1.050374
        44        46        45        47     9      180.000000        4.153481         4    ;  uncertainty k = 0.466777
        44        46        45        48     9        0.000000       41.363170         1    ;  uncertainty k = 0.432930
        44        46        45        48     9      180.000000       -4.547466         2    ;  uncertainty k = 1.545578
        44        46        45        48     9        0.000000       -9.314032         3    ;  uncertainty k = 1.050374
        44        46        45        48     9      180.000000        4.153481         4    ;  uncertainty k = 0.466777
        45        44        46        49     9        0.000000       41.213152         1    ;  uncertainty k = 0.297849
        45        44        46        49     9      180.000000       -4.516299         2    ;  uncertainty k = 0.301430
        45        44        46        49     9        0.000000       -9.672301         3    ;  uncertainty k = 1.160535
        45        44        46        49     9      180.000000        4.602763         4    ;  uncertainty k = 0.354310
        45        44        46        50     9        0.000000       41.213152         1    ;  uncertainty k = 0.297849
        45        44        46        50     9      180.000000       -4.516299         2    ;  uncertainty k = 0.301430
        45        44        46        50     9        0.000000       -9.672301         3    ;  uncertainty k = 1.160535
        45        44        46        50     9      180.000000        4.602763         4    ;  uncertainty k = 0.354310
        46        44        45        47     9        0.000000       41.213152         1    ;  uncertainty k = 0.297849
        46        44        45        47     9      180.000000       -4.516300         2    ;  uncertainty k = 0.301428
        46        44        45        47     9        0.000000       -9.672300         3    ;  uncertainty k = 1.160536
        46        44        45        47     9      180.000000        4.602764         4    ;  uncertainty k = 0.354310
        46        44        45        48     9        0.000000       41.213152         1    ;  uncertainty k = 0.297849
        46        44        45        48     9      180.000000       -4.516300         2    ;  uncertainty k = 0.301428
        46        44        45        48     9        0.000000       -9.672300         3    ;  uncertainty k = 1.160536
        46        44        45        48     9      180.000000        4.602764         4    ;  uncertainty k = 0.354310
        47        45        46        49     9        0.000000        0.302813         1    ;  uncertainty k = 0.854180
        47        45        46        49     9      180.000000       -1.613703         2    ;  uncertainty k = 0.876319
        47        45        46        49     9        0.000000        0.949480         3    ;  uncertainty k = 0.357327
        47        45        46        49     9      180.000000       -0.588939         4    ;  uncertainty k = 0.160178
        47        45        46        50     9        0.000000        0.302813         1    ;  uncertainty k = 0.854180
        47        45        46        50     9      180.000000       -1.613703         2    ;  uncertainty k = 0.876319
        47        45        46        50     9        0.000000        0.949480         3    ;  uncertainty k = 0.357327
        47        45        46        50     9      180.000000       -0.588939         4    ;  uncertainty k = 0.160178
        48        45        46        49     9        0.000000        0.302813         1    ;  uncertainty k = 0.854180
        48        45        46        49     9      180.000000       -1.613703         2    ;  uncertainty k = 0.876319
        48        45        46        49     9        0.000000        0.949480         3    ;  uncertainty k = 0.357327
        48        45        46        49     9      180.000000       -0.588939         4    ;  uncertainty k = 0.160178
        48        45        46        50     9        0.000000        0.302813         1    ;  uncertainty k = 0.854180
        48        45        46        50     9      180.000000       -1.613703         2    ;  uncertainty k = 0.876319
        48        45        46        50     9        0.000000        0.949480         3    ;  uncertainty k = 0.357327
        48        45        46        50     9      180.000000       -0.588939         4    ;  uncertainty k = 0.160178

[ dihedrals ] ; impropers
;       ai        aj        ak        al funct           phase               k        pn
         5         8        13        30     4      180.000000        1.109680         2    ;  uncertainty k = 0.271256
         5        13        30         8     4      180.000000        1.109680         2    ;  uncertainty k = 0.271256
         5        30         8        13     4      180.000000        1.109680         2    ;  uncertainty k = 0.271256
         7        18        24        25     4      180.000000       49.923006         2    ;  uncertainty k = 0.016155
         7        24        25        18     4      180.000000       49.923006         2    ;  uncertainty k = 0.016155
         7        25        18        24     4      180.000000       49.923006         2    ;  uncertainty k = 0.016155
         8         5        19        20     4      180.000000       14.318672         2    ;  uncertainty k = 0.052158
         8        19        20         5     4      180.000000       14.318672         2    ;  uncertainty k = 0.052158
         8        20         5        19     4      180.000000       14.318672         2    ;  uncertainty k = 0.052158
         9        23        26        27     4      180.000000       45.922575         2    ;  uncertainty k = 0.099050
         9        26        27        23     4      180.000000       45.922575         2    ;  uncertainty k = 0.099050
         9        27        23        26     4      180.000000       45.922575         2    ;  uncertainty k = 0.099050
        11        12        16        17     4      180.000000        4.050507         2    ;  uncertainty k = 0.553719
        11        16        17        12     4      180.000000        4.050507         2    ;  uncertainty k = 0.553719
        11        17        12        16     4      180.000000        4.050507         2    ;  uncertainty k = 0.553719
        12        11        18        31     4      180.000000        7.354644         2    ;  uncertainty k = 0.337762
        12        18        31        11     4      180.000000        7.354644         2    ;  uncertainty k = 0.337762
        12        31        11        18     4      180.000000        7.354644         2    ;  uncertainty k = 0.337762
        13         5        14        21     4      180.000000       17.110314         2    ;  uncertainty k = 0.053382
        13        14        21         5     4      180.000000       17.110314         2    ;  uncertainty k = 0.053382
        13        21         5        14     4      180.000000       17.110314         2    ;  uncertainty k = 0.053382
        14        13        15        28     4      180.000000        2.090574         2    ;  uncertainty k = 0.191083
        14        15        28        13     4      180.000000        2.090574         2    ;  uncertainty k = 0.191083
        14        28        13        15     4      180.000000        2.090574         2    ;  uncertainty k = 0.191083
        15        14        19        29     4      180.000000        3.395592         2    ;  uncertainty k = 0.158338
        15        19        29        14     4      180.000000        3.395592         2    ;  uncertainty k = 0.158338
        15        29        14        19     4      180.000000        3.395592         2    ;  uncertainty k = 0.158338
        16        11        25        26     4      180.000000       30.603257         2    ;  uncertainty k = 0.108129
        16        25        26        11     4      180.000000       30.603257         2    ;  uncertainty k = 0.108129
        16        26        11        25     4      180.000000       30.603257         2    ;  uncertainty k = 0.108129
        17        11        23        32     4      180.000000       16.881467         2    ;  uncertainty k = 0.078015
        17        23        32        11     4      180.000000       16.881467         2    ;  uncertainty k = 0.078015
        17        32        11        23     4      180.000000       16.881467         2    ;  uncertainty k = 0.078015
        18         7        12        22     4      180.000000       13.173505         2    ;  uncertainty k = 0.253921
        18        12        22         7     4      180.000000       13.173505         2    ;  uncertainty k = 0.253921
        18        22         7        12     4      180.000000       13.173505         2    ;  uncertainty k = 0.253921
        19         8        15        22     4      180.000000       11.898710         2    ;  uncertainty k = 0.189016
        19        15        22         8     4      180.000000       11.898710         2    ;  uncertainty k = 0.189016
        19        22         8        15     4      180.000000       11.898710         2    ;  uncertainty k = 0.189016
        25         7        16        44     4      180.000000        5.742278         2    ;  uncertainty k = 0.499951
        25        16        44         7     4      180.000000        5.742278         2    ;  uncertainty k = 0.499951
        25        44         7        16     4      180.000000        5.742278         2    ;  uncertainty k = 0.499951
        27         9        10        43     4      180.000000        0.707553         2    ;  uncertainty k = 0.805268
        27        10        43         9     4      180.000000        0.707553         2    ;  uncertainty k = 0.805268
        27        43         9        10     4      180.000000        0.707553         2    ;  uncertainty k = 0.805268

[ pairs ]
;       ai        aj funct
         1         3     1
         1         9     1
         1        39     1
         1        40     1
         1        43     1
         2         4     1
         2        27     1
         2        37     1
         2        38     1
         2        41     1
         3        27     1
         3        35     1
         3        36     1
         3        41     1
         4         9     1
         4        33     1
         4        34     1
         4        43     1
         5        15     1
         5        22     1
         5        28     1
         6        10     1
         6        33     1
         6        34     1
         6        39     1
         6        40     1
         7        11     1
         7        19     1
         7        26     1
         7        31     1
         7        42     1
         7        45     1
         7        46     1
         8        14     1
         8        18     1
         8        21     1
         8        29     1
         9        11     1
         9        25     1
         9        32     1
         9        41     1
        10        23     1
        10        26     1
        10        35     1
        10        36     1
        10        37     1
        10        38     1
        11        22     1
        11        44     1
        12        19     1
        12        23     1
        12        24     1
        12        25     1
        12        26     1
        12        32     1
        13        19     1
        13        20     1
        13        29     1
        14        22     1
        14        30     1
        15        18     1
        15        20     1
        15        21     1
        16        18     1
        16        23     1
        16        24     1
        16        27     1
        16        31     1
        16        32     1
        16        42     1
        16        45     1
        16        46     1
        17        18     1
        17        25     1
        17        26     1
        17        27     1
        17        31     1
        18        44     1
        19        28     1
        19        30     1
        20        22     1
        20        30     1
        21        28     1
        21        30     1
        22        24     1
        22        25     1
        22        29     1
        22        31     1
        23        43     1
        24        44     1
        25        47     1
        25        48     1
        25        49     1
        25        50     1
        26        43     1
        26        44     1
        27        33     1
        27        34     1
        27        39     1
        27        40     1
        28        29     1
        33        35     1
        33        36     1
        33        41     1
        34        35     1
        34        36     1
        34        41     1
        37        39     1
        37        40     1
        38        39     1
        38        40     1
        39        41     1
        40        41     1
        41        43     1
        42        47     1
        42        48     1
        42        49     1
        42        50     1
        47        49     1
        47        50     1
        48        49     1
        48        50     1
