; ITP file created by ByteFF-joint-25, 2026-02-17 09:26:40.696957

[ atomtypes ]
;name           bonded.type        at.num        mass        charge   ptype           sigma         epsilon
 c0bf                                   6      0.0000       0.00000       A     3.39787e-01     4.51000e-01    ;  uncertainty sigma = 0.000007, epsilon = 0.000697
 c1bf                                   6      0.0000       0.00000       A     3.39778e-01     4.50893e-01    ;  uncertainty sigma = 0.000003, epsilon = 0.000829
 c2bf                                   6      0.0000       0.00000       A     3.39778e-01     4.50893e-01    ;  uncertainty sigma = 0.000003, epsilon = 0.000829
 c3bf                                   6      0.0000       0.00000       A     3.39787e-01     4.51000e-01    ;  uncertainty sigma = 0.000007, epsilon = 0.000697
 c4bf                                   6      0.0000       0.00000       A     3.31526e-01     4.13477e-01    ;  uncertainty sigma = 0.000006, epsilon = 0.000754
 o5bf                                   8      0.0000       0.00000       A     3.15613e-01     3.03556e-01    ;  uncertainty sigma = 0.000019, epsilon = 0.001085
 c6bf                                   6      0.0000       0.00000       A     3.31527e-01     4.13571e-01    ;  uncertainty sigma = 0.000020, epsilon = 0.001489
 c7bf                                   6      0.0000       0.00000       A     3.31525e-01     4.12996e-01    ;  uncertainty sigma = 0.000006, epsilon = 0.000558
 c8bf                                   6      0.0000       0.00000       A     3.31531e-01     4.13819e-01    ;  uncertainty sigma = 0.000011, epsilon = 0.000840
 c9bf                                   6      0.0000       0.00000       A     3.39779e-01     4.51067e-01    ;  uncertainty sigma = 0.000013, epsilon = 0.000925
 c10bf                                  6      0.0000       0.00000       A     3.31548e-01     4.13569e-01    ;  uncertainty sigma = 0.000015, epsilon = 0.000849
 c11bf                                  6      0.0000       0.00000       A     3.31522e-01     4.12958e-01    ;  uncertainty sigma = 0.000012, epsilon = 0.001253
 c12bf                                  6      0.0000       0.00000       A     3.31521e-01     4.13309e-01    ;  uncertainty sigma = 0.000005, epsilon = 0.000623
 c13bf                                  6      0.0000       0.00000       A     3.31522e-01     4.13402e-01    ;  uncertainty sigma = 0.000004, epsilon = 0.000568
 c14bf                                  6      0.0000       0.00000       A     3.31532e-01     4.13487e-01    ;  uncertainty sigma = 0.000005, epsilon = 0.000789
 c15bf                                  6      0.0000       0.00000       A     3.31514e-01     4.12984e-01    ;  uncertainty sigma = 0.000030, epsilon = 0.001335
 c16bf                                  6      0.0000       0.00000       A     3.31541e-01     4.13611e-01    ;  uncertainty sigma = 0.000007, epsilon = 0.001414
 c17bf                                  6      0.0000       0.00000       A     3.31533e-01     4.13473e-01    ;  uncertainty sigma = 0.000019, epsilon = 0.001268
 c18bf                                  6      0.0000       0.00000       A     3.31544e-01     4.13185e-01    ;  uncertainty sigma = 0.000012, epsilon = 0.000998
 c19bf                                  6      0.0000       0.00000       A     3.39784e-01     4.50730e-01    ;  uncertainty sigma = 0.000019, epsilon = 0.001436
 f20bf                                  9      0.0000       0.00000       A     3.03401e-01     3.48403e-01    ;  uncertainty sigma = 0.000015, epsilon = 0.000906
 f21bf                                  9      0.0000       0.00000       A     3.03426e-01     3.47978e-01    ;  uncertainty sigma = 0.000008, epsilon = 0.000768
 o22bf                                  8      0.0000       0.00000       A     3.15661e-01     3.03543e-01    ;  uncertainty sigma = 0.000052, epsilon = 0.003674
 n23bf                                  7      0.0000       0.00000       A     3.38435e-01     3.93631e-01    ;  uncertainty sigma = 0.000019, epsilon = 0.001026
 o24bf                                  8      0.0000       0.00000       A     3.04836e-01     6.11111e-01    ;  uncertainty sigma = 0.000016, epsilon = 0.000705
 n25bf                                  7      0.0000       0.00000       A     3.18114e-01     6.85394e-01    ;  uncertainty sigma = 0.000044, epsilon = 0.001778
 n26bf                                  7      0.0000       0.00000       A     3.38454e-01     3.93310e-01    ;  uncertainty sigma = 0.000044, epsilon = 0.001741
 n27bf                                  7      0.0000       0.00000       A     3.27898e-01     6.46446e-01    ;  uncertainty sigma = 0.000031, epsilon = 0.005668
 h28bf                                  1      0.0000       0.00000       A     2.62564e-01     6.70554e-02    ;  uncertainty sigma = 0.000012, epsilon = 0.000465
 h29bf                                  1      0.0000       0.00000       A     2.62548e-01     6.71486e-02    ;  uncertainty sigma = 0.000008, epsilon = 0.000492
 h30bf                                  1      0.0000       0.00000       A     2.62562e-01     6.73680e-02    ;  uncertainty sigma = 0.000008, epsilon = 0.000365
 h31bf                                  1      0.0000       0.00000       A     2.62521e-01     6.67593e-02    ;  uncertainty sigma = 0.000018, epsilon = 0.000881
 h32bf                                  1      0.0000       0.00000       A     2.53663e-01     6.71784e-02    ;  uncertainty sigma = 0.000041, epsilon = 0.000925
 h33bf                                  1      0.0000       0.00000       A     2.60021e-01     8.67664e-02    ;  uncertainty sigma = 0.000009, epsilon = 0.000445
 h34bf                                  1      0.0000       0.00000       A     2.60021e-01     8.67664e-02    ;  uncertainty sigma = 0.000009, epsilon = 0.000445
 h35bf                                  1      0.0000       0.00000       A     2.42188e-01     8.67182e-02    ;  uncertainty sigma = 0.000018, epsilon = 0.000739
 h36bf                                  1      0.0000       0.00000       A     2.42188e-01     8.67182e-02    ;  uncertainty sigma = 0.000018, epsilon = 0.000739
 h37bf                                  1      0.0000       0.00000       A     2.42188e-01     8.67182e-02    ;  uncertainty sigma = 0.000018, epsilon = 0.000739
 h38bf                                  1      0.0000       0.00000       A     2.42188e-01     8.67182e-02    ;  uncertainty sigma = 0.000018, epsilon = 0.000739
 h39bf                                  1      0.0000       0.00000       A     2.60021e-01     8.67664e-02    ;  uncertainty sigma = 0.000009, epsilon = 0.000445
 h40bf                                  1      0.0000       0.00000       A     2.60021e-01     8.67664e-02    ;  uncertainty sigma = 0.000009, epsilon = 0.000445
 h41bf                                  1      0.0000       0.00000       A     2.42212e-01     8.65674e-02    ;  uncertainty sigma = 0.000016, epsilon = 0.000625
 h42bf                                  1      0.0000       0.00000       A     2.42233e-01     8.67501e-02    ;  uncertainty sigma = 0.000041, epsilon = 0.000745
 h43bf                                  1      0.0000       0.00000       A     2.42233e-01     8.67501e-02    ;  uncertainty sigma = 0.000041, epsilon = 0.000745
 h44bf                                  1      0.0000       0.00000       A     1.10703e-01     4.14050e-02    ;  uncertainty sigma = 0.000035, epsilon = 0.000993
 c45bf                                  6      0.0000       0.00000       A     3.39809e-01     4.49872e-01    ;  uncertainty sigma = 0.000004, epsilon = 0.000719
 h46bf                                  1      0.0000       0.00000       A     2.42122e-01     8.67353e-02    ;  uncertainty sigma = 0.000083, epsilon = 0.000704
 h47bf                                  1      0.0000       0.00000       A     2.42122e-01     8.67353e-02    ;  uncertainty sigma = 0.000083, epsilon = 0.000704
 s48bf                                 16      0.0000       0.00000       A     4.05832e-01     2.56389e-01    ;  uncertainty sigma = 0.000015, epsilon = 0.000794
 o49bf                                  8      0.0000       0.00000       A     3.04792e-01     6.12453e-01    ;  uncertainty sigma = 0.000023, epsilon = 0.000771
 o50bf                                  8      0.0000       0.00000       A     3.04792e-01     6.12453e-01    ;  uncertainty sigma = 0.000023, epsilon = 0.000771
 c51bf                                  6      0.0000       0.00000       A     3.39783e-01     4.50876e-01    ;  uncertainty sigma = 0.000008, epsilon = 0.000533
 h52bf                                  1      0.0000       0.00000       A     2.42199e-01     8.68149e-02    ;  uncertainty sigma = 0.000022, epsilon = 0.000550
 h53bf                                  1      0.0000       0.00000       A     2.42199e-01     8.68148e-02    ;  uncertainty sigma = 0.000022, epsilon = 0.000550
 h54bf                                  1      0.0000       0.00000       A     2.42199e-01     8.68149e-02    ;  uncertainty sigma = 0.000022, epsilon = 0.000550

[ moleculetype ]
;name             nrexcl
 MOL                   3

[ atoms ]
;       nr            type      resi   res      atom      cgnr      charge          mass ; qtot
         1            c0bf         1   UNL        c0         1    -0.12711       12.0110 ; qtot   -0.127
         2            c1bf         1   UNL        c1         2     0.13209       12.0110 ; qtot    0.005
         3            c2bf         1   UNL        c2         3     0.13209       12.0110 ; qtot    0.137
         4            c3bf         1   UNL        c3         4    -0.12711       12.0110 ; qtot    0.010
         5            c4bf         1   UNL        c4         5    -0.19164       12.0110 ; qtot   -0.182
         6            o5bf         1   UNL        o5         6    -0.41527       15.9990 ; qtot   -0.597
         7            c6bf         1   UNL        c6         7     0.70508       12.0110 ; qtot    0.108
         8            c7bf         1   UNL        c7         8     0.14567       12.0110 ; qtot    0.254
         9            c8bf         1   UNL        c8         9     0.92952       12.0110 ; qtot    1.183
        10            c9bf         1   UNL        c9        10     0.24784       12.0110 ; qtot    1.431
        11           c10bf         1   UNL       c10        11    -0.40903       12.0110 ; qtot    1.022
        12           c11bf         1   UNL       c11        12    -0.04462       12.0110 ; qtot    0.978
        13           c12bf         1   UNL       c12        13     0.14413       12.0110 ; qtot    1.122
        14           c13bf         1   UNL       c13        14    -0.16248       12.0110 ; qtot    0.959
        15           c14bf         1   UNL       c14        15    -0.09069       12.0110 ; qtot    0.868
        16           c15bf         1   UNL       c15        16     0.63950       12.0110 ; qtot    1.508
        17           c16bf         1   UNL       c16        17     0.52297       12.0110 ; qtot    2.031
        18           c17bf         1   UNL       c17        18     0.00594       12.0110 ; qtot    2.037
        19           c18bf         1   UNL       c18        19     0.04787       12.0110 ; qtot    2.085
        20           c19bf         1   UNL       c19        20     0.13406       12.0110 ; qtot    2.219
        21           f20bf         1   UNL       f20        21    -0.12685       18.9980 ; qtot    2.092
        22           f21bf         1   UNL       f21        22    -0.13805       18.9980 ; qtot    1.954
        23           o22bf         1   UNL       o22        23    -0.20957       15.9990 ; qtot    1.744
        24           n23bf         1   UNL       n23        24    -0.77257       14.0070 ; qtot    0.972
        25           o24bf         1   UNL       o24        25    -0.59187       15.9990 ; qtot    0.380
        26           n25bf         1   UNL       n25        26    -0.43444       14.0070 ; qtot   -0.055
        27           n26bf         1   UNL       n26        27    -0.83328       14.0070 ; qtot   -0.888
        28           n27bf         1   UNL       n27        28    -0.86394       14.0070 ; qtot   -1.752
        29           h28bf         1   UNL       h28        29     0.16075        1.0080 ; qtot   -1.591
        30           h29bf         1   UNL       h29        30     0.15721        1.0080 ; qtot   -1.434
        31           h30bf         1   UNL       h30        31     0.17297        1.0080 ; qtot   -1.261
        32           h31bf         1   UNL       h31        32     0.16397        1.0080 ; qtot   -1.097
        33           h32bf         1   UNL       h32        33     0.02960        1.0080 ; qtot   -1.067
        34           h33bf         1   UNL       h33        34     0.05892        1.0080 ; qtot   -1.008
        35           h34bf         1   UNL       h34        35     0.05892        1.0080 ; qtot   -0.949
        36           h35bf         1   UNL       h35        36     0.04655        1.0080 ; qtot   -0.903
        37           h36bf         1   UNL       h36        37     0.04655        1.0080 ; qtot   -0.856
        38           h37bf         1   UNL       h37        38     0.04655        1.0080 ; qtot   -0.810
        39           h38bf         1   UNL       h38        39     0.04655        1.0080 ; qtot   -0.763
        40           h39bf         1   UNL       h39        40     0.05892        1.0080 ; qtot   -0.704
        41           h40bf         1   UNL       h40        41     0.05892        1.0080 ; qtot   -0.645
        42           h41bf         1   UNL       h41        42     0.07162        1.0080 ; qtot   -0.574
        43           h42bf         1   UNL       h42        43     0.09155        1.0080 ; qtot   -0.482
        44           h43bf         1   UNL       h43        44     0.09155        1.0080 ; qtot   -0.391
        45           h44bf         1   UNL       h44        45     0.44845        1.0080 ; qtot    0.058
        46           c45bf         1   UNL       c45        46    -0.19034       12.0110 ; qtot   -0.133
        47           h46bf         1   UNL       h46        47     0.11186        1.0080 ; qtot   -0.021
        48           h47bf         1   UNL       h47        48     0.11186        1.0080 ; qtot    0.091
        49           s48bf         1   UNL       s48        49     0.93447       32.0670 ; qtot    1.026
        50           o49bf         1   UNL       o49        50    -0.57470       15.9990 ; qtot    0.451
        51           o50bf         1   UNL       o50        51    -0.57470       15.9990 ; qtot   -0.124
        52           c51bf         1   UNL       c51        52    -0.18618       12.0110 ; qtot   -0.310
        53           h52bf         1   UNL       h52        53     0.10332        1.0080 ; qtot   -0.207
        54           h53bf         1   UNL       h53        54     0.10332        1.0080 ; qtot   -0.103
        55           h54bf         1   UNL       h54        55     0.10330        1.0080 ; qtot   -0.000

[ bonds ]
;       ai        aj funct               r               k
         1         2     1        0.153564   209800.351904    ;  uncertainty r = 0.000030, k = 4.398850
         1        10     1        0.153800   204926.313672    ;  uncertainty r = 0.000079, k = 2.875806
         1        34     1        0.109644   310935.400293    ;  uncertainty r = 0.000023, k = 1.135247
         1        35     1        0.109644   310935.400293    ;  uncertainty r = 0.000023, k = 1.135247
         2         6     1        0.142789   254488.480176    ;  uncertainty r = 0.000039, k = 2.801925
         2        36     1        0.109818   309244.843652    ;  uncertainty r = 0.000020, k = 0.854841
         2        37     1        0.109818   309244.843652    ;  uncertainty r = 0.000020, k = 0.854841
         3         4     1        0.153564   209800.351904    ;  uncertainty r = 0.000030, k = 4.398850
         3         6     1        0.142789   254488.480176    ;  uncertainty r = 0.000039, k = 2.801925
         3        38     1        0.109818   309244.843652    ;  uncertainty r = 0.000020, k = 0.854841
         3        39     1        0.109818   309244.843652    ;  uncertainty r = 0.000020, k = 0.854841
         4        10     1        0.153800   204926.313672    ;  uncertainty r = 0.000079, k = 2.875806
         4        40     1        0.109644   310935.400293    ;  uncertainty r = 0.000023, k = 1.135247
         4        41     1        0.109644   310935.400293    ;  uncertainty r = 0.000023, k = 1.135247
         5         8     1        0.138747   361176.981592    ;  uncertainty r = 0.000032, k = 2.643588
         5        13     1        0.139007   367691.396045    ;  uncertainty r = 0.000031, k = 2.749259
         5        31     1        0.108780   338576.282275    ;  uncertainty r = 0.000013, k = 1.210229
         7        18     1        0.146396   254331.758936    ;  uncertainty r = 0.000250, k = 28.799715
         7        25     1        0.123475   649037.381836    ;  uncertainty r = 0.000075, k = 16.067945
         7        26     1        0.140657   257499.765039    ;  uncertainty r = 0.000332, k = 23.019842
         8        19     1        0.139121   358077.006348    ;  uncertainty r = 0.000040, k = 4.650811
         8        21     1        0.134764   340072.935645    ;  uncertainty r = 0.000045, k = 2.589505
         9        24     1        0.136645   531258.650098    ;  uncertainty r = 0.000130, k = 16.870261
         9        27     1        0.135843   605002.314063    ;  uncertainty r = 0.000137, k = 21.993885
         9        28     1        0.138336   585582.159570    ;  uncertainty r = 0.000160, k = 23.152214
        10        28     1        0.145807   240009.066846    ;  uncertainty r = 0.000132, k = 9.981083
        10        42     1        0.109351   304415.163379    ;  uncertainty r = 0.000015, k = 2.578070
        11        12     1        0.142609   276741.236377    ;  uncertainty r = 0.000045, k = 22.788162
        11        16     1        0.142268   402520.284814    ;  uncertainty r = 0.000189, k = 28.856937
        11        17     1        0.140346   398727.436719    ;  uncertainty r = 0.000185, k = 20.646979
        12        18     1        0.135392   409011.792480    ;  uncertainty r = 0.000075, k = 13.944295
        12        32     1        0.108670   334774.368506    ;  uncertainty r = 0.000042, k = 1.864898
        13        14     1        0.138905   362175.303809    ;  uncertainty r = 0.000027, k = 1.862514
        13        22     1        0.135460   342148.081152    ;  uncertainty r = 0.000038, k = 2.796473
        14        15     1        0.139206   376188.256299    ;  uncertainty r = 0.000034, k = 0.837546
        14        29     1        0.108734   335618.242285    ;  uncertainty r = 0.000017, k = 1.062658
        15        19     1        0.139238   351219.066699    ;  uncertainty r = 0.000057, k = 2.910415
        15        30     1        0.108702   335466.041113    ;  uncertainty r = 0.000027, k = 2.133558
        16        26     1        0.138256   273532.600732    ;  uncertainty r = 0.000214, k = 34.831582
        16        27     1        0.134193   437841.861035    ;  uncertainty r = 0.000120, k = 17.792082
        17        24     1        0.133415   406678.594482    ;  uncertainty r = 0.000077, k = 10.237142
        17        33     1        0.108927   329046.113965    ;  uncertainty r = 0.000030, k = 1.909598
        18        23     1        0.136094   317342.048145    ;  uncertainty r = 0.000086, k = 7.248126
        19        23     1        0.138160   312130.434863    ;  uncertainty r = 0.000116, k = 5.846346
        20        26     1        0.145164   260546.469873    ;  uncertainty r = 0.000147, k = 10.004552
        20        43     1        0.109119   309090.548438    ;  uncertainty r = 0.000022, k = 1.249103
        20        44     1        0.109119   309090.548438    ;  uncertainty r = 0.000022, k = 1.249103
        20        46     1        0.153360   223151.714502    ;  uncertainty r = 0.000250, k = 12.105179
        28        45     1        0.102176   435698.173926    ;  uncertainty r = 0.000065, k = 4.933167
        46        47     1        0.109576   322954.389746    ;  uncertainty r = 0.000017, k = 3.989708
        46        48     1        0.109576   322954.389746    ;  uncertainty r = 0.000017, k = 3.989708
        46        49     1        0.182555   159059.085986    ;  uncertainty r = 0.000159, k = 10.219244
        49        50     1        0.147797   544606.182129    ;  uncertainty r = 0.000029, k = 6.331784
        49        51     1        0.147797   544606.182129    ;  uncertainty r = 0.000029, k = 6.331784
        49        52     1        0.181083   169462.291455    ;  uncertainty r = 0.000097, k = 14.417687
        52        53     1        0.109278   320520.575537    ;  uncertainty r = 0.000012, k = 2.014032
        52        54     1        0.109278   320520.575537    ;  uncertainty r = 0.000012, k = 2.014027
        52        55     1        0.109278   320520.575537    ;  uncertainty r = 0.000012, k = 2.014027

[ angles ]
;       ai        aj        ak funct           theta             cth
         1         2         6     1      111.446632      714.965579    ;  uncertainty theta = 0.001347, k = 0.063500
         1         2        36     1      109.920456      408.541080    ;  uncertainty theta = 0.002019, k = 0.035643
         1         2        37     1      109.920456      408.541080    ;  uncertainty theta = 0.002019, k = 0.035643
         1        10         4     1      108.571205      585.454959    ;  uncertainty theta = 0.002684, k = 0.080005
         1        10        28     1      110.695145      629.201113    ;  uncertainty theta = 0.003363, k = 0.060631
         1        10        42     1      108.629013      407.998416    ;  uncertainty theta = 0.002420, k = 0.060827
         2         1        10     1      109.739174      566.930979    ;  uncertainty theta = 0.002556, k = 0.101379
         2         1        34     1      108.721451      397.694416    ;  uncertainty theta = 0.000995, k = 0.058468
         2         1        35     1      108.721451      397.694416    ;  uncertainty theta = 0.000995, k = 0.058468
         2         6         3     1      109.309448      562.168308    ;  uncertainty theta = 0.002274, k = 0.150711
         3         4        10     1      109.739174      566.930979    ;  uncertainty theta = 0.002556, k = 0.101379
         3         4        40     1      108.721451      397.694416    ;  uncertainty theta = 0.000995, k = 0.058468
         3         4        41     1      108.721451      397.694416    ;  uncertainty theta = 0.000995, k = 0.058468
         4         3         6     1      111.446632      714.965579    ;  uncertainty theta = 0.001347, k = 0.063500
         4         3        38     1      109.920456      408.541080    ;  uncertainty theta = 0.002019, k = 0.035643
         4         3        39     1      109.920456      408.541080    ;  uncertainty theta = 0.002019, k = 0.035643
         4        10        28     1      110.695145      629.201113    ;  uncertainty theta = 0.003363, k = 0.060631
         4        10        42     1      108.629013      407.998416    ;  uncertainty theta = 0.002420, k = 0.060827
         5         8        19     1      123.443153      352.584549    ;  uncertainty theta = 0.005265, k = 0.202869
         5         8        21     1      118.916702      524.557093    ;  uncertainty theta = 0.000766, k = 0.063533
         5        13        14     1      122.203163      367.950291    ;  uncertainty theta = 0.004353, k = 0.037976
         5        13        22     1      118.416054      506.109309    ;  uncertainty theta = 0.002115, k = 0.044491
         6         2        36     1      107.077614      463.773059    ;  uncertainty theta = 0.001757, k = 0.022995
         6         2        37     1      107.077614      463.773059    ;  uncertainty theta = 0.001757, k = 0.022995
         6         3        38     1      107.077614      463.773059    ;  uncertainty theta = 0.001757, k = 0.022995
         6         3        39     1      107.077614      463.773059    ;  uncertainty theta = 0.001757, k = 0.022995
         7        18        12     1      124.745934      435.105866    ;  uncertainty theta = 0.006023, k = 0.166353
         7        18        23     1      108.520126      386.578272    ;  uncertainty theta = 0.011312, k = 0.253207
         7        26        16     1      122.771011      488.568379    ;  uncertainty theta = 0.007635, k = 0.126084
         7        26        20     1      112.947594      427.467270    ;  uncertainty theta = 0.006113, k = 0.177086
         8         5        13     1      117.873718      466.681991    ;  uncertainty theta = 0.002635, k = 0.148809
         8         5        31     1      120.885605      275.043414    ;  uncertainty theta = 0.003104, k = 0.026017
         8        19        15     1      120.438950      350.580333    ;  uncertainty theta = 0.005824, k = 0.197361
         8        19        23     1      117.649757      371.496917    ;  uncertainty theta = 0.004336, k = 0.212601
         9        24        17     1      116.430397      408.139285    ;  uncertainty theta = 0.008084, k = 0.292187
         9        27        16     1      117.559799      454.120702    ;  uncertainty theta = 0.007021, k = 0.113441
         9        28        10     1      115.769875      413.653066    ;  uncertainty theta = 0.005271, k = 0.143046
         9        28        45     1      116.919144      444.716566    ;  uncertainty theta = 0.004236, k = 0.155196
        10         1        34     1      108.113968      386.815958    ;  uncertainty theta = 0.001236, k = 0.022845
        10         1        35     1      108.113968      386.815958    ;  uncertainty theta = 0.001236, k = 0.022845
        10         4        40     1      108.113968      386.815958    ;  uncertainty theta = 0.001236, k = 0.022845
        10         4        41     1      108.113968      386.815958    ;  uncertainty theta = 0.001236, k = 0.022845
        10        28        45     1      112.314072      333.078060    ;  uncertainty theta = 0.005154, k = 0.136963
        11        12        18     1      121.231750      510.259951    ;  uncertainty theta = 0.006901, k = 0.205657
        11        12        32     1      118.301880      255.139520    ;  uncertainty theta = 0.002882, k = 0.281063
        11        16        26     1      117.936806      482.407392    ;  uncertainty theta = 0.008267, k = 0.236581
        11        16        27     1      122.766014      544.859127    ;  uncertainty theta = 0.005056, k = 0.165723
        11        17        24     1      122.573898      739.745194    ;  uncertainty theta = 0.001502, k = 0.185142
        11        17        33     1      120.138596      260.992195    ;  uncertainty theta = 0.003960, k = 0.108553
        12        11        16     1      120.111740      442.984128    ;  uncertainty theta = 0.011733, k = 0.206568
        12        11        17     1      123.477745      406.388429    ;  uncertainty theta = 0.007028, k = 0.174657
        12        18        23     1      122.495399      426.177135    ;  uncertainty theta = 0.003016, k = 0.092274
        13         5        31     1      122.167213      276.182816    ;  uncertainty theta = 0.001979, k = 0.047518
        13        14        15     1      117.679276      490.002065    ;  uncertainty theta = 0.001416, k = 0.046653
        13        14        29     1      120.978439      282.379204    ;  uncertainty theta = 0.000982, k = 0.023307
        14        13        22     1      119.340736      515.983168    ;  uncertainty theta = 0.001915, k = 0.014125
        14        15        19     1      121.214966      509.817585    ;  uncertainty theta = 0.002734, k = 0.081000
        14        15        30     1      120.371567      284.922126    ;  uncertainty theta = 0.002332, k = 0.030236
        15        14        29     1      121.389076      278.892591    ;  uncertainty theta = 0.001182, k = 0.028037
        15        19        23     1      121.313034      424.254318    ;  uncertainty theta = 0.004582, k = 0.111195
        16        11        17     1      117.246353      432.834691    ;  uncertainty theta = 0.005706, k = 0.195410
        16        26        20     1      114.538879      425.638143    ;  uncertainty theta = 0.005711, k = 0.153553
        18         7        25     1      123.622292      477.851221    ;  uncertainty theta = 0.002385, k = 0.055060
        18         7        26     1      114.773903      324.182016    ;  uncertainty theta = 0.011678, k = 0.582033
        18        12        32     1      120.565475      276.248606    ;  uncertainty theta = 0.006005, k = 0.204362
        18        23        19     1      112.349411      458.739759    ;  uncertainty theta = 0.005392, k = 0.291515
        19         8        21     1      117.525742      487.064690    ;  uncertainty theta = 0.002079, k = 0.147581
        19        15        30     1      118.610428      275.458648    ;  uncertainty theta = 0.003647, k = 0.058785
        20        46        47     1      110.064537      382.367905    ;  uncertainty theta = 0.001972, k = 0.071251
        20        46        48     1      110.064537      382.367905    ;  uncertainty theta = 0.001972, k = 0.071251
        20        46        49     1      108.587448      489.062203    ;  uncertainty theta = 0.005406, k = 0.102421
        24         9        27     1      128.699509      744.224276    ;  uncertainty theta = 0.002604, k = 0.101807
        24         9        28     1      120.633926      828.446109    ;  uncertainty theta = 0.008794, k = 0.131219
        24        17        33     1      117.368210      318.255364    ;  uncertainty theta = 0.003552, k = 0.161160
        25         7        26     1      122.339127      690.565701    ;  uncertainty theta = 0.003843, k = 0.088782
        26        16        27     1      117.414207      603.259304    ;  uncertainty theta = 0.012394, k = 0.120048
        26        20        43     1      104.949341      444.312313    ;  uncertainty theta = 0.004666, k = 0.097050
        26        20        44     1      104.949341      444.312313    ;  uncertainty theta = 0.004666, k = 0.097050
        26        20        46     1      109.718285      622.895171    ;  uncertainty theta = 0.004154, k = 0.098874
        27         9        28     1      121.224037      914.820083    ;  uncertainty theta = 0.007146, k = 0.101001
        28        10        42     1      103.516525      447.268585    ;  uncertainty theta = 0.003472, k = 0.117225
        34         1        35     1      105.438782      311.403087    ;  uncertainty theta = 0.002031, k = 0.016795
        36         2        37     1      106.555069      320.243013    ;  uncertainty theta = 0.001313, k = 0.032691
        38         3        39     1      106.555069      320.243013    ;  uncertainty theta = 0.001313, k = 0.032691
        40         4        41     1      105.438782      311.403087    ;  uncertainty theta = 0.002031, k = 0.016795
        43        20        44     1      107.486588      314.120459    ;  uncertainty theta = 0.003211, k = 0.030954
        43        20        46     1      107.797318      412.120297    ;  uncertainty theta = 0.001800, k = 0.079891
        44        20        46     1      107.797318      412.120297    ;  uncertainty theta = 0.001800, k = 0.079891
        46        49        50     1      112.049789      710.196077    ;  uncertainty theta = 0.002282, k = 0.019017
        46        49        51     1      112.049789      710.196077    ;  uncertainty theta = 0.002282, k = 0.019017
        46        49        52     1      102.709900      715.816157    ;  uncertainty theta = 0.003930, k = 0.098406
        47        46        48     1      108.434586      304.152910    ;  uncertainty theta = 0.002903, k = 0.044924
        47        46        49     1      106.556335      377.488976    ;  uncertainty theta = 0.002623, k = 0.116362
        48        46        49     1      106.556335      377.488976    ;  uncertainty theta = 0.002623, k = 0.116362
        49        52        53     1      106.987625      364.270681    ;  uncertainty theta = 0.001601, k = 0.075179
        49        52        54     1      106.987625      364.270681    ;  uncertainty theta = 0.001601, k = 0.075179
        49        52        55     1      106.987625      364.270681    ;  uncertainty theta = 0.001601, k = 0.075179
        50        49        51     1      123.242386      865.615563    ;  uncertainty theta = 0.001985, k = 0.063238
        50        49        52     1      112.425583      727.448055    ;  uncertainty theta = 0.002708, k = 0.060217
        51        49        52     1      112.425583      727.448055    ;  uncertainty theta = 0.002708, k = 0.060217
        53        52        54     1      108.676834      297.945318    ;  uncertainty theta = 0.002863, k = 0.031751
        53        52        55     1      108.676834      297.945318    ;  uncertainty theta = 0.002863, k = 0.031751
        54        52        55     1      108.676834      297.945318    ;  uncertainty theta = 0.002863, k = 0.031751

[ dihedrals ] ; propers for gromacs 4.5 or higher, use funct 9
;       ai        aj        ak        al funct           phase               k        pn
         1         2         6         3     9        0.000000       -3.090920         1    ;  uncertainty k = 1.764723
         1         2         6         3     9      180.000000        0.099645         2    ;  uncertainty k = 1.147878
         1         2         6         3     9        0.000000        0.937069         3    ;  uncertainty k = 0.257052
         1         2         6         3     9      180.000000       -0.348700         4    ;  uncertainty k = 0.188482
         1        10         4         3     9        0.000000       -7.182169         1    ;  uncertainty k = 1.160296
         1        10         4         3     9      180.000000        0.651721         2    ;  uncertainty k = 0.689257
         1        10         4         3     9        0.000000        1.337200         3    ;  uncertainty k = 0.165866
         1        10         4         3     9      180.000000       -1.433187         4    ;  uncertainty k = 0.219126
         1        10         4        40     9        0.000000       -1.858871         1    ;  uncertainty k = 0.333669
         1        10         4        40     9      180.000000       -0.004379         2    ;  uncertainty k = 0.147655
         1        10         4        40     9        0.000000        0.298804         3    ;  uncertainty k = 0.155785
         1        10         4        40     9      180.000000       -0.141300         4    ;  uncertainty k = 0.079428
         1        10         4        41     9        0.000000       -1.858871         1    ;  uncertainty k = 0.333669
         1        10         4        41     9      180.000000       -0.004379         2    ;  uncertainty k = 0.147655
         1        10         4        41     9        0.000000        0.298804         3    ;  uncertainty k = 0.155785
         1        10         4        41     9      180.000000       -0.141300         4    ;  uncertainty k = 0.079428
         1        10        28         9     9        0.000000       -2.505165         1    ;  uncertainty k = 0.386990
         1        10        28         9     9      180.000000        0.497922         2    ;  uncertainty k = 0.198476
         1        10        28         9     9        0.000000        0.367322         3    ;  uncertainty k = 0.126648
         1        10        28         9     9      180.000000        0.361622         4    ;  uncertainty k = 0.081111
         1        10        28        45     9        0.000000        2.787690         1    ;  uncertainty k = 0.893880
         1        10        28        45     9      180.000000       -0.663636         2    ;  uncertainty k = 0.236090
         1        10        28        45     9        0.000000        0.218247         3    ;  uncertainty k = 0.119918
         1        10        28        45     9      180.000000        0.123443         4    ;  uncertainty k = 0.073280
         2         1        10         4     9        0.000000       -7.182169         1    ;  uncertainty k = 1.160296
         2         1        10         4     9      180.000000        0.651721         2    ;  uncertainty k = 0.689257
         2         1        10         4     9        0.000000        1.337200         3    ;  uncertainty k = 0.165866
         2         1        10         4     9      180.000000       -1.433187         4    ;  uncertainty k = 0.219126
         2         1        10        28     9        0.000000       -4.805353         1    ;  uncertainty k = 0.699431
         2         1        10        28     9      180.000000       -0.187719         2    ;  uncertainty k = 0.333371
         2         1        10        28     9        0.000000        1.016385         3    ;  uncertainty k = 0.162984
         2         1        10        28     9      180.000000       -0.078100         4    ;  uncertainty k = 0.195994
         2         1        10        42     9        0.000000       -1.687319         1    ;  uncertainty k = 0.555497
         2         1        10        42     9      180.000000       -0.643722         2    ;  uncertainty k = 0.388884
         2         1        10        42     9        0.000000        0.030461         3    ;  uncertainty k = 0.099396
         2         1        10        42     9      180.000000       -0.147535         4    ;  uncertainty k = 0.108263
         2         6         3         4     9        0.000000       -3.090920         1    ;  uncertainty k = 1.764723
         2         6         3         4     9      180.000000        0.099645         2    ;  uncertainty k = 1.147878
         2         6         3         4     9        0.000000        0.937069         3    ;  uncertainty k = 0.257052
         2         6         3         4     9      180.000000       -0.348700         4    ;  uncertainty k = 0.188482
         2         6         3        38     9        0.000000       -5.435409         1    ;  uncertainty k = 1.705293
         2         6         3        38     9      180.000000        0.309318         2    ;  uncertainty k = 0.194051
         2         6         3        38     9        0.000000        0.745836         3    ;  uncertainty k = 0.129776
         2         6         3        38     9      180.000000       -0.529315         4    ;  uncertainty k = 0.148432
         2         6         3        39     9        0.000000       -5.435409         1    ;  uncertainty k = 1.705293
         2         6         3        39     9      180.000000        0.309318         2    ;  uncertainty k = 0.194051
         2         6         3        39     9        0.000000        0.745836         3    ;  uncertainty k = 0.129776
         2         6         3        39     9      180.000000       -0.529315         4    ;  uncertainty k = 0.148432
         3         4        10        28     9        0.000000       -4.805353         1    ;  uncertainty k = 0.699431
         3         4        10        28     9      180.000000       -0.187719         2    ;  uncertainty k = 0.333371
         3         4        10        28     9        0.000000        1.016385         3    ;  uncertainty k = 0.162984
         3         4        10        28     9      180.000000       -0.078100         4    ;  uncertainty k = 0.195994
         3         4        10        42     9        0.000000       -1.687319         1    ;  uncertainty k = 0.555497
         3         4        10        42     9      180.000000       -0.643722         2    ;  uncertainty k = 0.388884
         3         4        10        42     9        0.000000        0.030461         3    ;  uncertainty k = 0.099396
         3         4        10        42     9      180.000000       -0.147535         4    ;  uncertainty k = 0.108263
         3         6         2        36     9        0.000000       -5.435409         1    ;  uncertainty k = 1.705293
         3         6         2        36     9      180.000000        0.309318         2    ;  uncertainty k = 0.194051
         3         6         2        36     9        0.000000        0.745836         3    ;  uncertainty k = 0.129776
         3         6         2        36     9      180.000000       -0.529315         4    ;  uncertainty k = 0.148432
         3         6         2        37     9        0.000000       -5.435409         1    ;  uncertainty k = 1.705293
         3         6         2        37     9      180.000000        0.309318         2    ;  uncertainty k = 0.194051
         3         6         2        37     9        0.000000        0.745836         3    ;  uncertainty k = 0.129776
         3         6         2        37     9      180.000000       -0.529315         4    ;  uncertainty k = 0.148432
         4        10         1        34     9        0.000000       -1.858871         1    ;  uncertainty k = 0.333669
         4        10         1        34     9      180.000000       -0.004379         2    ;  uncertainty k = 0.147655
         4        10         1        34     9        0.000000        0.298804         3    ;  uncertainty k = 0.155785
         4        10         1        34     9      180.000000       -0.141300         4    ;  uncertainty k = 0.079428
         4        10         1        35     9        0.000000       -1.858871         1    ;  uncertainty k = 0.333669
         4        10         1        35     9      180.000000       -0.004379         2    ;  uncertainty k = 0.147655
         4        10         1        35     9        0.000000        0.298804         3    ;  uncertainty k = 0.155785
         4        10         1        35     9      180.000000       -0.141300         4    ;  uncertainty k = 0.079428
         4        10        28         9     9        0.000000       -2.505165         1    ;  uncertainty k = 0.386990
         4        10        28         9     9      180.000000        0.497922         2    ;  uncertainty k = 0.198476
         4        10        28         9     9        0.000000        0.367322         3    ;  uncertainty k = 0.126648
         4        10        28         9     9      180.000000        0.361622         4    ;  uncertainty k = 0.081111
         4        10        28        45     9        0.000000        2.787690         1    ;  uncertainty k = 0.893880
         4        10        28        45     9      180.000000       -0.663636         2    ;  uncertainty k = 0.236090
         4        10        28        45     9        0.000000        0.218247         3    ;  uncertainty k = 0.119918
         4        10        28        45     9      180.000000        0.123443         4    ;  uncertainty k = 0.073280
         5         8        19        15     9        0.000000       -0.306313         1    ;  uncertainty k = 0.505391
         5         8        19        15     9      180.000000        5.699560         2    ;  uncertainty k = 1.071993
         5         8        19        15     9        0.000000        0.341049         3    ;  uncertainty k = 0.427163
         5         8        19        15     9      180.000000        1.286695         4    ;  uncertainty k = 0.336491
         5         8        19        23     9        0.000000        0.209707         1    ;  uncertainty k = 0.181119
         5         8        19        23     9      180.000000        8.078772         2    ;  uncertainty k = 0.443297
         5         8        19        23     9        0.000000        1.333895         3    ;  uncertainty k = 0.197684
         5         8        19        23     9      180.000000        1.703363         4    ;  uncertainty k = 0.101848
         5        13        14        15     9        0.000000        0.006656         1    ;  uncertainty k = 0.178742
         5        13        14        15     9      180.000000        9.851306         2    ;  uncertainty k = 0.487067
         5        13        14        15     9        0.000000       -0.289375         3    ;  uncertainty k = 0.510037
         5        13        14        15     9      180.000000        1.102178         4    ;  uncertainty k = 0.341530
         5        13        14        29     9        0.000000        0.058690         1    ;  uncertainty k = 0.184961
         5        13        14        29     9      180.000000        5.722279         2    ;  uncertainty k = 0.634542
         5        13        14        29     9        0.000000        1.318867         3    ;  uncertainty k = 0.348930
         5        13        14        29     9      180.000000        1.524759         4    ;  uncertainty k = 0.200416
         6         2         1        10     9        0.000000       -0.987582         1    ;  uncertainty k = 1.101439
         6         2         1        10     9      180.000000       -3.903899         2    ;  uncertainty k = 0.673250
         6         2         1        10     9        0.000000        1.869479         3    ;  uncertainty k = 0.389552
         6         2         1        10     9      180.000000       -0.727265         4    ;  uncertainty k = 0.139798
         6         2         1        34     9        0.000000       -1.784485         1    ;  uncertainty k = 0.521414
         6         2         1        34     9      180.000000       -0.100756         2    ;  uncertainty k = 0.269946
         6         2         1        34     9        0.000000        1.457848         3    ;  uncertainty k = 0.236776
         6         2         1        34     9      180.000000       -0.196225         4    ;  uncertainty k = 0.165688
         6         2         1        35     9        0.000000       -1.784485         1    ;  uncertainty k = 0.521414
         6         2         1        35     9      180.000000       -0.100756         2    ;  uncertainty k = 0.269946
         6         2         1        35     9        0.000000        1.457848         3    ;  uncertainty k = 0.236776
         6         2         1        35     9      180.000000       -0.196225         4    ;  uncertainty k = 0.165688
         6         3         4        10     9        0.000000       -0.987582         1    ;  uncertainty k = 1.101439
         6         3         4        10     9      180.000000       -3.903899         2    ;  uncertainty k = 0.673250
         6         3         4        10     9        0.000000        1.869479         3    ;  uncertainty k = 0.389552
         6         3         4        10     9      180.000000       -0.727265         4    ;  uncertainty k = 0.139798
         6         3         4        40     9        0.000000       -1.784485         1    ;  uncertainty k = 0.521414
         6         3         4        40     9      180.000000       -0.100756         2    ;  uncertainty k = 0.269946
         6         3         4        40     9        0.000000        1.457848         3    ;  uncertainty k = 0.236776
         6         3         4        40     9      180.000000       -0.196225         4    ;  uncertainty k = 0.165688
         6         3         4        41     9        0.000000       -1.784485         1    ;  uncertainty k = 0.521414
         6         3         4        41     9      180.000000       -0.100756         2    ;  uncertainty k = 0.269946
         6         3         4        41     9        0.000000        1.457848         3    ;  uncertainty k = 0.236776
         6         3         4        41     9      180.000000       -0.196225         4    ;  uncertainty k = 0.165688
         7        18        12        11     9        0.000000        0.267775         1    ;  uncertainty k = 0.568564
         7        18        12        11     9      180.000000       13.355447         2    ;  uncertainty k = 0.333911
         7        18        12        11     9        0.000000        1.596073         3    ;  uncertainty k = 0.166270
         7        18        12        11     9      180.000000        1.146659         4    ;  uncertainty k = 0.254131
         7        18        12        32     9        0.000000        0.144503         1    ;  uncertainty k = 0.664602
         7        18        12        32     9      180.000000       10.903416         2    ;  uncertainty k = 0.635165
         7        18        12        32     9        0.000000        1.595222         3    ;  uncertainty k = 0.456495
         7        18        12        32     9      180.000000        1.210490         4    ;  uncertainty k = 0.072849
         7        18        23        19     9        0.000000        2.951704         1    ;  uncertainty k = 2.001584
         7        18        23        19     9      180.000000        3.109458         2    ;  uncertainty k = 0.216710
         7        18        23        19     9        0.000000        1.813835         3    ;  uncertainty k = 0.364624
         7        18        23        19     9      180.000000        0.163468         4    ;  uncertainty k = 0.210349
         7        26        16        11     9        0.000000        0.536588         1    ;  uncertainty k = 2.100523
         7        26        16        11     9      180.000000        4.150629         2    ;  uncertainty k = 1.092990
         7        26        16        11     9        0.000000        0.458942         3    ;  uncertainty k = 0.348248
         7        26        16        11     9      180.000000        0.119999         4    ;  uncertainty k = 0.093110
         7        26        16        27     9        0.000000        0.054590         1    ;  uncertainty k = 1.621479
         7        26        16        27     9      180.000000        7.520857         2    ;  uncertainty k = 0.462384
         7        26        16        27     9        0.000000        1.066708         3    ;  uncertainty k = 0.438705
         7        26        16        27     9      180.000000       -0.191622         4    ;  uncertainty k = 0.245575
         7        26        20        43     9        0.000000       -0.011074         1    ;  uncertainty k = 0.124907
         7        26        20        43     9      180.000000        1.251433         2    ;  uncertainty k = 0.371422
         7        26        20        43     9        0.000000        0.371343         3    ;  uncertainty k = 0.115974
         7        26        20        43     9      180.000000        0.565029         4    ;  uncertainty k = 0.062543
         7        26        20        44     9        0.000000       -0.011074         1    ;  uncertainty k = 0.124907
         7        26        20        44     9      180.000000        1.251433         2    ;  uncertainty k = 0.371422
         7        26        20        44     9        0.000000        0.371343         3    ;  uncertainty k = 0.115974
         7        26        20        44     9      180.000000        0.565029         4    ;  uncertainty k = 0.062543
         7        26        20        46     9        0.000000       -0.656084         1    ;  uncertainty k = 1.100141
         7        26        20        46     9      180.000000        0.195290         2    ;  uncertainty k = 0.519760
         7        26        20        46     9        0.000000        0.388026         3    ;  uncertainty k = 0.199093
         7        26        20        46     9      180.000000        0.234104         4    ;  uncertainty k = 0.139796
         8         5        13        14     9        0.000000       -0.049959         1    ;  uncertainty k = 0.238365
         8         5        13        14     9      180.000000        8.709297         2    ;  uncertainty k = 0.507640
         8         5        13        14     9        0.000000       -0.103094         3    ;  uncertainty k = 0.454333
         8         5        13        14     9      180.000000        1.263124         4    ;  uncertainty k = 0.287252
         8         5        13        22     9        0.000000        0.023050         1    ;  uncertainty k = 0.157478
         8         5        13        22     9      180.000000       12.231401         2    ;  uncertainty k = 0.567990
         8         5        13        22     9        0.000000        1.527926         3    ;  uncertainty k = 0.329456
         8         5        13        22     9      180.000000        1.522411         4    ;  uncertainty k = 0.258192
         8        19        15        14     9        0.000000        0.015776         1    ;  uncertainty k = 0.049644
         8        19        15        14     9      180.000000        9.130352         2    ;  uncertainty k = 0.496855
         8        19        15        14     9        0.000000        0.154802         3    ;  uncertainty k = 0.380221
         8        19        15        14     9      180.000000        1.321067         4    ;  uncertainty k = 0.368043
         8        19        15        30     9        0.000000        0.146476         1    ;  uncertainty k = 0.242432
         8        19        15        30     9      180.000000        6.097361         2    ;  uncertainty k = 0.718867
         8        19        15        30     9        0.000000        1.323120         3    ;  uncertainty k = 0.435541
         8        19        15        30     9      180.000000        1.565701         4    ;  uncertainty k = 0.129358
         8        19        23        18     9        0.000000        3.642353         1    ;  uncertainty k = 0.787116
         8        19        23        18     9      180.000000        2.947557         2    ;  uncertainty k = 0.362365
         8        19        23        18     9        0.000000        0.855606         3    ;  uncertainty k = 0.229484
         8        19        23        18     9      180.000000        0.047733         4    ;  uncertainty k = 0.192573
         9        24        17        11     9        0.000000       -0.072405         1    ;  uncertainty k = 0.770218
         9        24        17        11     9      180.000000       17.273604         2    ;  uncertainty k = 0.605279
         9        24        17        11     9        0.000000       -0.496287         3    ;  uncertainty k = 0.676757
         9        24        17        11     9      180.000000        1.602076         4    ;  uncertainty k = 0.596362
         9        24        17        33     9        0.000000        0.074308         1    ;  uncertainty k = 0.978395
         9        24        17        33     9      180.000000       17.919801         2    ;  uncertainty k = 0.668021
         9        24        17        33     9        0.000000        1.366389         3    ;  uncertainty k = 0.782182
         9        24        17        33     9      180.000000        1.132681         4    ;  uncertainty k = 0.479665
         9        27        16        11     9        0.000000        0.200639         1    ;  uncertainty k = 0.755702
         9        27        16        11     9      180.000000       13.100842         2    ;  uncertainty k = 0.636558
         9        27        16        11     9        0.000000        0.220784         3    ;  uncertainty k = 0.896709
         9        27        16        11     9      180.000000        0.995723         4    ;  uncertainty k = 0.390821
         9        27        16        26     9        0.000000        0.437654         1    ;  uncertainty k = 0.537457
         9        27        16        26     9      180.000000       16.448947         2    ;  uncertainty k = 0.978400
         9        27        16        26     9        0.000000        1.865402         3    ;  uncertainty k = 0.292981
         9        27        16        26     9      180.000000        1.123231         4    ;  uncertainty k = 0.442837
         9        28        10        42     9        0.000000       -0.140403         1    ;  uncertainty k = 0.458987
         9        28        10        42     9      180.000000       -0.299246         2    ;  uncertainty k = 0.132432
         9        28        10        42     9        0.000000        0.051471         3    ;  uncertainty k = 0.152476
         9        28        10        42     9      180.000000        0.288509         4    ;  uncertainty k = 0.067555
        10         1         2        36     9        0.000000        3.577617         1    ;  uncertainty k = 1.073611
        10         1         2        36     9      180.000000       -2.876486         2    ;  uncertainty k = 0.518010
        10         1         2        36     9        0.000000       -0.152945         3    ;  uncertainty k = 0.197941
        10         1         2        36     9      180.000000        0.397574         4    ;  uncertainty k = 0.144225
        10         1         2        37     9        0.000000        3.577617         1    ;  uncertainty k = 1.073611
        10         1         2        37     9      180.000000       -2.876486         2    ;  uncertainty k = 0.518010
        10         1         2        37     9        0.000000       -0.152945         3    ;  uncertainty k = 0.197941
        10         1         2        37     9      180.000000        0.397574         4    ;  uncertainty k = 0.144225
        10         4         3        38     9        0.000000        3.577617         1    ;  uncertainty k = 1.073611
        10         4         3        38     9      180.000000       -2.876486         2    ;  uncertainty k = 0.518010
        10         4         3        38     9        0.000000       -0.152945         3    ;  uncertainty k = 0.197941
        10         4         3        38     9      180.000000        0.397574         4    ;  uncertainty k = 0.144225
        10         4         3        39     9        0.000000        3.577617         1    ;  uncertainty k = 1.073611
        10         4         3        39     9      180.000000       -2.876486         2    ;  uncertainty k = 0.518010
        10         4         3        39     9        0.000000       -0.152945         3    ;  uncertainty k = 0.197941
        10         4         3        39     9      180.000000        0.397574         4    ;  uncertainty k = 0.144225
        10        28         9        24     9        0.000000        9.093945         1    ;  uncertainty k = 0.673524
        10        28         9        24     9      180.000000       11.328686         2    ;  uncertainty k = 0.246478
        10        28         9        24     9        0.000000        1.388656         3    ;  uncertainty k = 0.179740
        10        28         9        24     9      180.000000       -0.343204         4    ;  uncertainty k = 0.041612
        10        28         9        27     9        0.000000       10.053080         1    ;  uncertainty k = 0.709062
        10        28         9        27     9      180.000000       11.500084         2    ;  uncertainty k = 0.166059
        10        28         9        27     9        0.000000        1.262159         3    ;  uncertainty k = 0.211791
        10        28         9        27     9      180.000000       -0.379702         4    ;  uncertainty k = 0.058109
        11        12        18        23     9        0.000000        0.134730         1    ;  uncertainty k = 0.315884
        11        12        18        23     9      180.000000       21.248794         2    ;  uncertainty k = 0.621963
        11        12        18        23     9        0.000000        2.038760         3    ;  uncertainty k = 0.327390
        11        12        18        23     9      180.000000        0.645045         4    ;  uncertainty k = 0.556736
        11        16        26        20     9        0.000000        3.191699         1    ;  uncertainty k = 1.595694
        11        16        26        20     9      180.000000        8.531458         2    ;  uncertainty k = 0.721866
        11        16        26        20     9        0.000000        0.916519         3    ;  uncertainty k = 0.621214
        11        16        26        20     9      180.000000       -0.126233         4    ;  uncertainty k = 0.392990
        12        11        16        26     9        0.000000       -0.041874         1    ;  uncertainty k = 0.331397
        12        11        16        26     9      180.000000        7.903968         2    ;  uncertainty k = 0.558468
        12        11        16        26     9        0.000000        0.361966         3    ;  uncertainty k = 0.502393
        12        11        16        26     9      180.000000        1.033121         4    ;  uncertainty k = 0.228139
        12        11        16        27     9        0.000000        0.258219         1    ;  uncertainty k = 0.904820
        12        11        16        27     9      180.000000        8.239412         2    ;  uncertainty k = 1.408074
        12        11        16        27     9        0.000000        0.032364         3    ;  uncertainty k = 0.296316
        12        11        16        27     9      180.000000        1.265582         4    ;  uncertainty k = 0.554516
        12        11        17        24     9        0.000000        0.202355         1    ;  uncertainty k = 0.365865
        12        11        17        24     9      180.000000       10.740474         2    ;  uncertainty k = 0.604175
        12        11        17        24     9        0.000000        0.288303         3    ;  uncertainty k = 0.238852
        12        11        17        24     9      180.000000        1.228552         4    ;  uncertainty k = 0.359252
        12        11        17        33     9        0.000000       -0.447713         1    ;  uncertainty k = 0.564177
        12        11        17        33     9      180.000000        5.951853         2    ;  uncertainty k = 0.610297
        12        11        17        33     9        0.000000        0.824680         3    ;  uncertainty k = 0.261455
        12        11        17        33     9      180.000000        0.694799         4    ;  uncertainty k = 0.185376
        12        18         7        25     9        0.000000       -2.865767         1    ;  uncertainty k = 1.050403
        12        18         7        25     9      180.000000        2.862162         2    ;  uncertainty k = 0.891383
        12        18         7        25     9        0.000000       -0.168627         3    ;  uncertainty k = 0.442632
        12        18         7        25     9      180.000000       -0.016134         4    ;  uncertainty k = 0.192348
        12        18         7        26     9        0.000000        2.097703         1    ;  uncertainty k = 2.443045
        12        18         7        26     9      180.000000        0.676769         2    ;  uncertainty k = 0.791516
        12        18         7        26     9        0.000000        0.451472         3    ;  uncertainty k = 0.418540
        12        18         7        26     9      180.000000        0.360228         4    ;  uncertainty k = 0.184761
        12        18        23        19     9        0.000000        6.025205         1    ;  uncertainty k = 1.077323
        12        18        23        19     9      180.000000        6.312810         2    ;  uncertainty k = 0.149857
        12        18        23        19     9        0.000000       -0.841516         3    ;  uncertainty k = 0.374149
        12        18        23        19     9      180.000000        0.115728         4    ;  uncertainty k = 0.111332
        13         5         8        19     9        0.000000       -0.028157         1    ;  uncertainty k = 0.164194
        13         5         8        19     9      180.000000        8.671004         2    ;  uncertainty k = 0.512359
        13         5         8        19     9        0.000000        0.207433         3    ;  uncertainty k = 0.509188
        13         5         8        19     9      180.000000        1.302601         4    ;  uncertainty k = 0.281851
        13         5         8        21     9        0.000000       -0.002392         1    ;  uncertainty k = 0.247129
        13         5         8        21     9      180.000000       13.084887         2    ;  uncertainty k = 0.509633
        13         5         8        21     9        0.000000        1.474366         3    ;  uncertainty k = 0.306558
        13         5         8        21     9      180.000000        1.520558         4    ;  uncertainty k = 0.243651
        13        14        15        19     9        0.000000       -0.113542         1    ;  uncertainty k = 0.211768
        13        14        15        19     9      180.000000       13.972594         2    ;  uncertainty k = 0.306737
        13        14        15        19     9        0.000000       -0.786444         3    ;  uncertainty k = 0.554355
        13        14        15        19     9      180.000000        0.930464         4    ;  uncertainty k = 0.288428
        13        14        15        30     9        0.000000       -0.003440         1    ;  uncertainty k = 0.095641
        13        14        15        30     9      180.000000        7.538138         2    ;  uncertainty k = 0.273713
        13        14        15        30     9        0.000000        1.412643         3    ;  uncertainty k = 0.270752
        13        14        15        30     9      180.000000        1.740927         4    ;  uncertainty k = 0.123790
        14        13         5        31     9        0.000000        0.138635         1    ;  uncertainty k = 0.151239
        14        13         5        31     9      180.000000        5.451074         2    ;  uncertainty k = 0.660632
        14        13         5        31     9        0.000000        1.286115         3    ;  uncertainty k = 0.294094
        14        13         5        31     9      180.000000        1.480963         4    ;  uncertainty k = 0.179055
        14        15        19        23     9        0.000000       -0.064057         1    ;  uncertainty k = 0.392115
        14        15        19        23     9      180.000000       11.007024         2    ;  uncertainty k = 0.446783
        14        15        19        23     9        0.000000        1.358780         3    ;  uncertainty k = 0.241783
        14        15        19        23     9      180.000000        1.735948         4    ;  uncertainty k = 0.120659
        15        14        13        22     9        0.000000       -0.032001         1    ;  uncertainty k = 0.254449
        15        14        13        22     9      180.000000       12.251927         2    ;  uncertainty k = 0.522356
        15        14        13        22     9        0.000000        1.414423         3    ;  uncertainty k = 0.230243
        15        14        13        22     9      180.000000        1.530094         4    ;  uncertainty k = 0.209632
        15        19         8        21     9        0.000000        0.257162         1    ;  uncertainty k = 0.251999
        15        19         8        21     9      180.000000        8.387430         2    ;  uncertainty k = 0.311300
        15        19         8        21     9        0.000000        1.426919         3    ;  uncertainty k = 0.223314
        15        19         8        21     9      180.000000        1.675064         4    ;  uncertainty k = 0.138706
        15        19        23        18     9        0.000000        4.636374         1    ;  uncertainty k = 1.026403
        15        19        23        18     9      180.000000        3.974903         2    ;  uncertainty k = 0.166263
        15        19        23        18     9        0.000000        0.382780         3    ;  uncertainty k = 0.329302
        15        19        23        18     9      180.000000        0.118990         4    ;  uncertainty k = 0.075799
        16        11        12        18     9        0.000000       -0.101557         1    ;  uncertainty k = 1.074817
        16        11        12        18     9      180.000000        6.518361         2    ;  uncertainty k = 0.924601
        16        11        12        18     9        0.000000        0.239628         3    ;  uncertainty k = 0.419188
        16        11        12        18     9      180.000000        0.553992         4    ;  uncertainty k = 0.196344
        16        11        12        32     9        0.000000        0.562856         1    ;  uncertainty k = 1.140418
        16        11        12        32     9      180.000000        6.253051         2    ;  uncertainty k = 0.602921
        16        11        12        32     9        0.000000        1.066066         3    ;  uncertainty k = 0.296397
        16        11        12        32     9      180.000000        0.207037         4    ;  uncertainty k = 0.178377
        16        11        17        24     9        0.000000       -0.001071         1    ;  uncertainty k = 0.580508
        16        11        17        24     9      180.000000       12.073794         2    ;  uncertainty k = 0.434389
        16        11        17        24     9        0.000000       -0.976285         3    ;  uncertainty k = 0.833105
        16        11        17        24     9      180.000000        0.798633         4    ;  uncertainty k = 0.152792
        16        11        17        33     9        0.000000       -0.166659         1    ;  uncertainty k = 0.861878
        16        11        17        33     9      180.000000        6.469647         2    ;  uncertainty k = 0.792353
        16        11        17        33     9        0.000000        0.645881         3    ;  uncertainty k = 0.084468
        16        11        17        33     9      180.000000        0.770860         4    ;  uncertainty k = 0.239885
        16        26         7        18     9        0.000000        1.848332         1    ;  uncertainty k = 1.994159
        16        26         7        18     9      180.000000        2.336476         2    ;  uncertainty k = 1.282058
        16        26         7        18     9        0.000000        1.001290         3    ;  uncertainty k = 0.330441
        16        26         7        18     9      180.000000        0.482938         4    ;  uncertainty k = 0.262566
        16        26         7        25     9        0.000000        2.592084         1    ;  uncertainty k = 2.252163
        16        26         7        25     9      180.000000       13.988995         2    ;  uncertainty k = 0.651702
        16        26         7        25     9        0.000000        0.915453         3    ;  uncertainty k = 0.078963
        16        26         7        25     9      180.000000       -0.468531         4    ;  uncertainty k = 0.481785
        16        26        20        43     9        0.000000       -0.059483         1    ;  uncertainty k = 0.485106
        16        26        20        43     9      180.000000        1.410934         2    ;  uncertainty k = 0.447525
        16        26        20        43     9        0.000000        0.065903         3    ;  uncertainty k = 0.288858
        16        26        20        43     9      180.000000        0.509464         4    ;  uncertainty k = 0.084455
        16        26        20        44     9        0.000000       -0.059483         1    ;  uncertainty k = 0.485106
        16        26        20        44     9      180.000000        1.410934         2    ;  uncertainty k = 0.447525
        16        26        20        44     9        0.000000        0.065903         3    ;  uncertainty k = 0.288858
        16        26        20        44     9      180.000000        0.509464         4    ;  uncertainty k = 0.084455
        16        26        20        46     9        0.000000       -0.971752         1    ;  uncertainty k = 0.622808
        16        26        20        46     9      180.000000        0.684882         2    ;  uncertainty k = 0.652655
        16        26        20        46     9        0.000000        0.225987         3    ;  uncertainty k = 0.145853
        16        26        20        46     9      180.000000        0.291937         4    ;  uncertainty k = 0.143826
        16        27         9        24     9        0.000000       -0.031968         1    ;  uncertainty k = 1.697470
        16        27         9        24     9      180.000000        6.583146         2    ;  uncertainty k = 0.860423
        16        27         9        24     9        0.000000        1.229016         3    ;  uncertainty k = 0.651896
        16        27         9        24     9      180.000000        0.768438         4    ;  uncertainty k = 0.320528
        16        27         9        28     9        0.000000        0.585680         1    ;  uncertainty k = 1.764007
        16        27         9        28     9      180.000000        9.030023         2    ;  uncertainty k = 0.725696
        16        27         9        28     9        0.000000        1.967699         3    ;  uncertainty k = 0.434546
        16        27         9        28     9      180.000000        0.872656         4    ;  uncertainty k = 0.275769
        17        11        12        18     9        0.000000        0.149037         1    ;  uncertainty k = 0.521768
        17        11        12        18     9      180.000000        5.253418         2    ;  uncertainty k = 1.039572
        17        11        12        18     9        0.000000        0.967220         3    ;  uncertainty k = 0.321451
        17        11        12        18     9      180.000000        0.400959         4    ;  uncertainty k = 0.240347
        17        11        12        32     9        0.000000        0.400693         1    ;  uncertainty k = 1.028720
        17        11        12        32     9      180.000000        5.374925         2    ;  uncertainty k = 0.259194
        17        11        12        32     9        0.000000        0.934403         3    ;  uncertainty k = 0.325657
        17        11        12        32     9      180.000000        0.077419         4    ;  uncertainty k = 0.144185
        17        11        16        26     9        0.000000       -0.691054         1    ;  uncertainty k = 0.653468
        17        11        16        26     9      180.000000        6.209268         2    ;  uncertainty k = 0.801260
        17        11        16        26     9        0.000000        0.133058         3    ;  uncertainty k = 0.322085
        17        11        16        26     9      180.000000        0.987014         4    ;  uncertainty k = 0.290592
        17        11        16        27     9        0.000000        0.040344         1    ;  uncertainty k = 0.420166
        17        11        16        27     9      180.000000        7.661066         2    ;  uncertainty k = 0.930170
        17        11        16        27     9        0.000000       -0.315523         3    ;  uncertainty k = 0.316093
        17        11        16        27     9      180.000000        1.201278         4    ;  uncertainty k = 0.582599
        17        24         9        27     9        0.000000        0.075359         1    ;  uncertainty k = 0.882870
        17        24         9        27     9      180.000000        6.538165         2    ;  uncertainty k = 1.384737
        17        24         9        27     9        0.000000        0.800451         3    ;  uncertainty k = 0.544209
        17        24         9        27     9      180.000000        0.515895         4    ;  uncertainty k = 0.219888
        17        24         9        28     9        0.000000        0.345932         1    ;  uncertainty k = 0.780093
        17        24         9        28     9      180.000000        7.807499         2    ;  uncertainty k = 0.530631
        17        24         9        28     9        0.000000        1.834583         3    ;  uncertainty k = 0.693167
        17        24         9        28     9      180.000000        0.637104         4    ;  uncertainty k = 0.276027
        18         7        26        20     9        0.000000        1.831379         1    ;  uncertainty k = 1.061411
        18         7        26        20     9      180.000000        7.930303         2    ;  uncertainty k = 0.655209
        18         7        26        20     9        0.000000        1.402943         3    ;  uncertainty k = 0.122330
        18         7        26        20     9      180.000000       -0.190015         4    ;  uncertainty k = 0.296759
        19         8         5        31     9        0.000000        0.057379         1    ;  uncertainty k = 0.165911
        19         8         5        31     9      180.000000        5.716951         2    ;  uncertainty k = 0.832327
        19         8         5        31     9        0.000000        1.299980         3    ;  uncertainty k = 0.327602
        19         8         5        31     9      180.000000        1.492424         4    ;  uncertainty k = 0.176810
        19        15        14        29     9        0.000000        0.076709         1    ;  uncertainty k = 0.186984
        19        15        14        29     9      180.000000        7.523892         2    ;  uncertainty k = 0.356925
        19        15        14        29     9        0.000000        1.389232         3    ;  uncertainty k = 0.254789
        19        15        14        29     9      180.000000        1.744370         4    ;  uncertainty k = 0.166848
        20        26         7        25     9        0.000000        2.393100         1    ;  uncertainty k = 1.583798
        20        26         7        25     9      180.000000       14.315096         2    ;  uncertainty k = 0.259173
        20        26         7        25     9        0.000000        0.284496         3    ;  uncertainty k = 0.377152
        20        26         7        25     9      180.000000       -0.210837         4    ;  uncertainty k = 0.339634
        20        26        16        27     9        0.000000        2.351141         1    ;  uncertainty k = 1.739302
        20        26        16        27     9      180.000000       11.186553         2    ;  uncertainty k = 0.605978
        20        26        16        27     9        0.000000        1.058734         3    ;  uncertainty k = 0.112310
        20        26        16        27     9      180.000000       -0.137131         4    ;  uncertainty k = 0.369316
        20        46        49        50     9        0.000000       -4.548020         1    ;  uncertainty k = 0.964244
        20        46        49        50     9      180.000000        1.737796         2    ;  uncertainty k = 0.417160
        20        46        49        50     9        0.000000        0.523720         3    ;  uncertainty k = 0.057790
        20        46        49        50     9      180.000000       -0.252272         4    ;  uncertainty k = 0.116997
        20        46        49        51     9        0.000000       -4.548020         1    ;  uncertainty k = 0.964244
        20        46        49        51     9      180.000000        1.737796         2    ;  uncertainty k = 0.417160
        20        46        49        51     9        0.000000        0.523720         3    ;  uncertainty k = 0.057790
        20        46        49        51     9      180.000000       -0.252272         4    ;  uncertainty k = 0.116997
        20        46        49        52     9        0.000000       -4.905712         1    ;  uncertainty k = 0.562884
        20        46        49        52     9      180.000000       -0.101355         2    ;  uncertainty k = 0.268187
        20        46        49        52     9        0.000000        0.133646         3    ;  uncertainty k = 0.141189
        20        46        49        52     9      180.000000       -0.116678         4    ;  uncertainty k = 0.190412
        21         8         5        31     9        0.000000       -0.230980         1    ;  uncertainty k = 0.291748
        21         8         5        31     9      180.000000        9.239380         2    ;  uncertainty k = 0.341179
        21         8         5        31     9        0.000000        0.839928         3    ;  uncertainty k = 0.293710
        21         8         5        31     9      180.000000        1.043063         4    ;  uncertainty k = 0.201990
        21         8        19        23     9        0.000000       -0.105793         1    ;  uncertainty k = 0.354022
        21         8        19        23     9      180.000000       12.165824         2    ;  uncertainty k = 0.214592
        21         8        19        23     9        0.000000        1.160865         3    ;  uncertainty k = 0.370829
        21         8        19        23     9      180.000000        1.261897         4    ;  uncertainty k = 0.194088
        22        13         5        31     9        0.000000       -0.271891         1    ;  uncertainty k = 0.249928
        22        13         5        31     9      180.000000        8.500019         2    ;  uncertainty k = 0.281498
        22        13         5        31     9        0.000000        0.815708         3    ;  uncertainty k = 0.327842
        22        13         5        31     9      180.000000        0.992978         4    ;  uncertainty k = 0.194491
        22        13        14        29     9        0.000000       -0.357248         1    ;  uncertainty k = 0.222188
        22        13        14        29     9      180.000000        8.920407         2    ;  uncertainty k = 0.265967
        22        13        14        29     9        0.000000        0.818892         3    ;  uncertainty k = 0.249596
        22        13        14        29     9      180.000000        0.905586         4    ;  uncertainty k = 0.175017
        23        18         7        25     9        0.000000       -2.040818         1    ;  uncertainty k = 1.549802
        23        18         7        25     9      180.000000        9.761371         2    ;  uncertainty k = 0.523074
        23        18         7        25     9        0.000000        0.233194         3    ;  uncertainty k = 0.536671
        23        18         7        25     9      180.000000       -0.367498         4    ;  uncertainty k = 0.456668
        23        18         7        26     9        0.000000        1.652825         1    ;  uncertainty k = 1.376511
        23        18         7        26     9      180.000000        3.496722         2    ;  uncertainty k = 0.817959
        23        18         7        26     9        0.000000        0.706393         3    ;  uncertainty k = 0.414991
        23        18         7        26     9      180.000000        0.570093         4    ;  uncertainty k = 0.122420
        23        18        12        32     9        0.000000        0.183029         1    ;  uncertainty k = 0.788563
        23        18        12        32     9      180.000000       16.374971         2    ;  uncertainty k = 0.464729
        23        18        12        32     9        0.000000        1.923257         3    ;  uncertainty k = 0.064543
        23        18        12        32     9      180.000000        0.964566         4    ;  uncertainty k = 0.594975
        23        19        15        30     9        0.000000       -0.025816         1    ;  uncertainty k = 0.162969
        23        19        15        30     9      180.000000        8.757822         2    ;  uncertainty k = 0.242306
        23        19        15        30     9        0.000000        0.878698         3    ;  uncertainty k = 0.265252
        23        19        15        30     9      180.000000        1.203360         4    ;  uncertainty k = 0.152721
        24         9        28        45     9        0.000000       10.289718         1    ;  uncertainty k = 0.671473
        24         9        28        45     9      180.000000        9.708731         2    ;  uncertainty k = 0.263556
        24         9        28        45     9        0.000000        1.249260         3    ;  uncertainty k = 0.563999
        24         9        28        45     9      180.000000       -0.441153         4    ;  uncertainty k = 0.253050
        26        20        46        47     9        0.000000        0.629950         1    ;  uncertainty k = 0.435204
        26        20        46        47     9      180.000000       -2.061682         2    ;  uncertainty k = 0.612705
        26        20        46        47     9        0.000000        1.048747         3    ;  uncertainty k = 0.127182
        26        20        46        47     9      180.000000       -0.138281         4    ;  uncertainty k = 0.133138
        26        20        46        48     9        0.000000        0.629950         1    ;  uncertainty k = 0.435204
        26        20        46        48     9      180.000000       -2.061682         2    ;  uncertainty k = 0.612705
        26        20        46        48     9        0.000000        1.048747         3    ;  uncertainty k = 0.127182
        26        20        46        48     9      180.000000       -0.138281         4    ;  uncertainty k = 0.133138
        26        20        46        49     9        0.000000       -9.044415         1    ;  uncertainty k = 0.511988
        26        20        46        49     9      180.000000       -2.749185         2    ;  uncertainty k = 0.543677
        26        20        46        49     9        0.000000        0.377272         3    ;  uncertainty k = 0.387658
        26        20        46        49     9      180.000000        0.427551         4    ;  uncertainty k = 0.177806
        27         9        28        45     9        0.000000       12.429669         1    ;  uncertainty k = 0.674967
        27         9        28        45     9      180.000000       10.330289         2    ;  uncertainty k = 0.421477
        27         9        28        45     9        0.000000        1.229435         3    ;  uncertainty k = 0.554087
        27         9        28        45     9      180.000000       -0.548151         4    ;  uncertainty k = 0.181940
        28        10         1        34     9        0.000000       -0.664477         1    ;  uncertainty k = 0.439753
        28        10         1        34     9      180.000000       -0.719545         2    ;  uncertainty k = 0.206247
        28        10         1        34     9        0.000000        1.110830         3    ;  uncertainty k = 0.090613
        28        10         1        34     9      180.000000       -0.312617         4    ;  uncertainty k = 0.084156
        28        10         1        35     9        0.000000       -0.664477         1    ;  uncertainty k = 0.439753
        28        10         1        35     9      180.000000       -0.719545         2    ;  uncertainty k = 0.206247
        28        10         1        35     9        0.000000        1.110830         3    ;  uncertainty k = 0.090613
        28        10         1        35     9      180.000000       -0.312617         4    ;  uncertainty k = 0.084156
        28        10         4        40     9        0.000000       -0.664477         1    ;  uncertainty k = 0.439753
        28        10         4        40     9      180.000000       -0.719545         2    ;  uncertainty k = 0.206247
        28        10         4        40     9        0.000000        1.110830         3    ;  uncertainty k = 0.090613
        28        10         4        40     9      180.000000       -0.312617         4    ;  uncertainty k = 0.084156
        28        10         4        41     9        0.000000       -0.664477         1    ;  uncertainty k = 0.439753
        28        10         4        41     9      180.000000       -0.719545         2    ;  uncertainty k = 0.206247
        28        10         4        41     9        0.000000        1.110830         3    ;  uncertainty k = 0.090613
        28        10         4        41     9      180.000000       -0.312617         4    ;  uncertainty k = 0.084156
        29        14        15        30     9        0.000000        0.032265         1    ;  uncertainty k = 0.250069
        29        14        15        30     9      180.000000        7.287468         2    ;  uncertainty k = 0.427630
        29        14        15        30     9        0.000000       -0.295849         3    ;  uncertainty k = 0.226115
        29        14        15        30     9      180.000000        0.117549         4    ;  uncertainty k = 0.137082
        34         1         2        36     9        0.000000       -0.225271         1    ;  uncertainty k = 0.371621
        34         1         2        36     9      180.000000        0.719911         2    ;  uncertainty k = 0.314572
        34         1         2        36     9        0.000000        0.112053         3    ;  uncertainty k = 0.052184
        34         1         2        36     9      180.000000       -0.321413         4    ;  uncertainty k = 0.066104
        34         1         2        37     9        0.000000       -0.225271         1    ;  uncertainty k = 0.371621
        34         1         2        37     9      180.000000        0.719911         2    ;  uncertainty k = 0.314572
        34         1         2        37     9        0.000000        0.112053         3    ;  uncertainty k = 0.052184
        34         1         2        37     9      180.000000       -0.321413         4    ;  uncertainty k = 0.066104
        34         1        10        42     9        0.000000        1.333899         1    ;  uncertainty k = 0.470364
        34         1        10        42     9      180.000000       -0.346033         2    ;  uncertainty k = 0.220492
        34         1        10        42     9        0.000000        0.040957         3    ;  uncertainty k = 0.124052
        34         1        10        42     9      180.000000        0.039296         4    ;  uncertainty k = 0.035575
        35         1         2        36     9        0.000000       -0.225271         1    ;  uncertainty k = 0.371621
        35         1         2        36     9      180.000000        0.719911         2    ;  uncertainty k = 0.314572
        35         1         2        36     9        0.000000        0.112053         3    ;  uncertainty k = 0.052184
        35         1         2        36     9      180.000000       -0.321413         4    ;  uncertainty k = 0.066104
        35         1         2        37     9        0.000000       -0.225271         1    ;  uncertainty k = 0.371621
        35         1         2        37     9      180.000000        0.719911         2    ;  uncertainty k = 0.314572
        35         1         2        37     9        0.000000        0.112053         3    ;  uncertainty k = 0.052184
        35         1         2        37     9      180.000000       -0.321413         4    ;  uncertainty k = 0.066104
        35         1        10        42     9        0.000000        1.333899         1    ;  uncertainty k = 0.470364
        35         1        10        42     9      180.000000       -0.346033         2    ;  uncertainty k = 0.220492
        35         1        10        42     9        0.000000        0.040957         3    ;  uncertainty k = 0.124052
        35         1        10        42     9      180.000000        0.039296         4    ;  uncertainty k = 0.035575
        38         3         4        40     9        0.000000       -0.225271         1    ;  uncertainty k = 0.371621
        38         3         4        40     9      180.000000        0.719911         2    ;  uncertainty k = 0.314572
        38         3         4        40     9        0.000000        0.112053         3    ;  uncertainty k = 0.052184
        38         3         4        40     9      180.000000       -0.321413         4    ;  uncertainty k = 0.066104
        38         3         4        41     9        0.000000       -0.225271         1    ;  uncertainty k = 0.371621
        38         3         4        41     9      180.000000        0.719911         2    ;  uncertainty k = 0.314572
        38         3         4        41     9        0.000000        0.112053         3    ;  uncertainty k = 0.052184
        38         3         4        41     9      180.000000       -0.321413         4    ;  uncertainty k = 0.066104
        39         3         4        40     9        0.000000       -0.225271         1    ;  uncertainty k = 0.371621
        39         3         4        40     9      180.000000        0.719911         2    ;  uncertainty k = 0.314572
        39         3         4        40     9        0.000000        0.112053         3    ;  uncertainty k = 0.052184
        39         3         4        40     9      180.000000       -0.321413         4    ;  uncertainty k = 0.066104
        39         3         4        41     9        0.000000       -0.225271         1    ;  uncertainty k = 0.371621
        39         3         4        41     9      180.000000        0.719911         2    ;  uncertainty k = 0.314572
        39         3         4        41     9        0.000000        0.112053         3    ;  uncertainty k = 0.052184
        39         3         4        41     9      180.000000       -0.321413         4    ;  uncertainty k = 0.066104
        40         4        10        42     9        0.000000        1.333899         1    ;  uncertainty k = 0.470364
        40         4        10        42     9      180.000000       -0.346033         2    ;  uncertainty k = 0.220492
        40         4        10        42     9        0.000000        0.040957         3    ;  uncertainty k = 0.124052
        40         4        10        42     9      180.000000        0.039296         4    ;  uncertainty k = 0.035575
        41         4        10        42     9        0.000000        1.333899         1    ;  uncertainty k = 0.470364
        41         4        10        42     9      180.000000       -0.346033         2    ;  uncertainty k = 0.220492
        41         4        10        42     9        0.000000        0.040957         3    ;  uncertainty k = 0.124052
        41         4        10        42     9      180.000000        0.039296         4    ;  uncertainty k = 0.035575
        42        10        28        45     9        0.000000        0.976343         1    ;  uncertainty k = 0.742026
        42        10        28        45     9      180.000000       -1.754256         2    ;  uncertainty k = 0.294903
        42        10        28        45     9        0.000000       -0.016582         3    ;  uncertainty k = 0.098589
        42        10        28        45     9      180.000000        0.124158         4    ;  uncertainty k = 0.074181
        43        20        46        47     9        0.000000        0.247973         1    ;  uncertainty k = 0.130856
        43        20        46        47     9      180.000000       -0.449891         2    ;  uncertainty k = 0.139059
        43        20        46        47     9        0.000000        0.318325         3    ;  uncertainty k = 0.076351
        43        20        46        47     9      180.000000        0.102791         4    ;  uncertainty k = 0.082550
        43        20        46        48     9        0.000000        0.247973         1    ;  uncertainty k = 0.130856
        43        20        46        48     9      180.000000       -0.449891         2    ;  uncertainty k = 0.139059
        43        20        46        48     9        0.000000        0.318325         3    ;  uncertainty k = 0.076351
        43        20        46        48     9      180.000000        0.102791         4    ;  uncertainty k = 0.082550
        43        20        46        49     9        0.000000        2.388920         1    ;  uncertainty k = 0.327761
        43        20        46        49     9      180.000000       -1.334778         2    ;  uncertainty k = 0.528292
        43        20        46        49     9        0.000000        0.187180         3    ;  uncertainty k = 0.166195
        43        20        46        49     9      180.000000       -0.235674         4    ;  uncertainty k = 0.148751
        44        20        46        47     9        0.000000        0.247973         1    ;  uncertainty k = 0.130856
        44        20        46        47     9      180.000000       -0.449891         2    ;  uncertainty k = 0.139059
        44        20        46        47     9        0.000000        0.318325         3    ;  uncertainty k = 0.076351
        44        20        46        47     9      180.000000        0.102791         4    ;  uncertainty k = 0.082550
        44        20        46        48     9        0.000000        0.247973         1    ;  uncertainty k = 0.130856
        44        20        46        48     9      180.000000       -0.449891         2    ;  uncertainty k = 0.139059
        44        20        46        48     9        0.000000        0.318325         3    ;  uncertainty k = 0.076351
        44        20        46        48     9      180.000000        0.102791         4    ;  uncertainty k = 0.082550
        44        20        46        49     9        0.000000        2.388920         1    ;  uncertainty k = 0.327761
        44        20        46        49     9      180.000000       -1.334778         2    ;  uncertainty k = 0.528292
        44        20        46        49     9        0.000000        0.187180         3    ;  uncertainty k = 0.166195
        44        20        46        49     9      180.000000       -0.235674         4    ;  uncertainty k = 0.148751
        46        49        52        53     9        0.000000        0.583209         1    ;  uncertainty k = 0.321400
        46        49        52        53     9      180.000000       -2.195574         2    ;  uncertainty k = 0.280008
        46        49        52        53     9        0.000000        0.180673         3    ;  uncertainty k = 0.090225
        46        49        52        53     9      180.000000       -0.191983         4    ;  uncertainty k = 0.161455
        46        49        52        54     9        0.000000        0.583209         1    ;  uncertainty k = 0.321400
        46        49        52        54     9      180.000000       -2.195574         2    ;  uncertainty k = 0.280008
        46        49        52        54     9        0.000000        0.180673         3    ;  uncertainty k = 0.090225
        46        49        52        54     9      180.000000       -0.191983         4    ;  uncertainty k = 0.161455
        46        49        52        55     9        0.000000        0.583209         1    ;  uncertainty k = 0.321400
        46        49        52        55     9      180.000000       -2.195574         2    ;  uncertainty k = 0.280008
        46        49        52        55     9        0.000000        0.180673         3    ;  uncertainty k = 0.090225
        46        49        52        55     9      180.000000       -0.191983         4    ;  uncertainty k = 0.161455
        47        46        49        50     9        0.000000        0.414959         1    ;  uncertainty k = 0.152243
        47        46        49        50     9      180.000000       -0.030745         2    ;  uncertainty k = 0.210298
        47        46        49        50     9        0.000000        0.390468         3    ;  uncertainty k = 0.028825
        47        46        49        50     9      180.000000        0.152707         4    ;  uncertainty k = 0.048458
        47        46        49        51     9        0.000000        0.414959         1    ;  uncertainty k = 0.152243
        47        46        49        51     9      180.000000       -0.030745         2    ;  uncertainty k = 0.210298
        47        46        49        51     9        0.000000        0.390468         3    ;  uncertainty k = 0.028825
        47        46        49        51     9      180.000000        0.152707         4    ;  uncertainty k = 0.048458
        47        46        49        52     9        0.000000        1.143683         1    ;  uncertainty k = 0.241960
        47        46        49        52     9      180.000000       -2.071016         2    ;  uncertainty k = 0.293711
        47        46        49        52     9        0.000000        0.112628         3    ;  uncertainty k = 0.098377
        47        46        49        52     9      180.000000       -0.045106         4    ;  uncertainty k = 0.087845
        48        46        49        50     9        0.000000        0.414959         1    ;  uncertainty k = 0.152243
        48        46        49        50     9      180.000000       -0.030745         2    ;  uncertainty k = 0.210298
        48        46        49        50     9        0.000000        0.390468         3    ;  uncertainty k = 0.028825
        48        46        49        50     9      180.000000        0.152707         4    ;  uncertainty k = 0.048458
        48        46        49        51     9        0.000000        0.414959         1    ;  uncertainty k = 0.152243
        48        46        49        51     9      180.000000       -0.030745         2    ;  uncertainty k = 0.210298
        48        46        49        51     9        0.000000        0.390468         3    ;  uncertainty k = 0.028825
        48        46        49        51     9      180.000000        0.152707         4    ;  uncertainty k = 0.048458
        48        46        49        52     9        0.000000        1.143683         1    ;  uncertainty k = 0.241960
        48        46        49        52     9      180.000000       -2.071016         2    ;  uncertainty k = 0.293711
        48        46        49        52     9        0.000000        0.112628         3    ;  uncertainty k = 0.098377
        48        46        49        52     9      180.000000       -0.045106         4    ;  uncertainty k = 0.087845
        50        49        52        53     9        0.000000       -0.043878         1    ;  uncertainty k = 0.701943
        50        49        52        53     9      180.000000       -0.356487         2    ;  uncertainty k = 0.459451
        50        49        52        53     9        0.000000        0.718642         3    ;  uncertainty k = 0.077681
        50        49        52        53     9      180.000000        0.092263         4    ;  uncertainty k = 0.065512
        50        49        52        54     9        0.000000       -0.043878         1    ;  uncertainty k = 0.701943
        50        49        52        54     9      180.000000       -0.356487         2    ;  uncertainty k = 0.459451
        50        49        52        54     9        0.000000        0.718642         3    ;  uncertainty k = 0.077681
        50        49        52        54     9      180.000000        0.092263         4    ;  uncertainty k = 0.065512
        50        49        52        55     9        0.000000       -0.043878         1    ;  uncertainty k = 0.701943
        50        49        52        55     9      180.000000       -0.356487         2    ;  uncertainty k = 0.459451
        50        49        52        55     9        0.000000        0.718642         3    ;  uncertainty k = 0.077681
        50        49        52        55     9      180.000000        0.092263         4    ;  uncertainty k = 0.065512
        51        49        52        53     9        0.000000       -0.043878         1    ;  uncertainty k = 0.701943
        51        49        52        53     9      180.000000       -0.356487         2    ;  uncertainty k = 0.459451
        51        49        52        53     9        0.000000        0.718642         3    ;  uncertainty k = 0.077681
        51        49        52        53     9      180.000000        0.092263         4    ;  uncertainty k = 0.065512
        51        49        52        54     9        0.000000       -0.043878         1    ;  uncertainty k = 0.701943
        51        49        52        54     9      180.000000       -0.356487         2    ;  uncertainty k = 0.459451
        51        49        52        54     9        0.000000        0.718642         3    ;  uncertainty k = 0.077681
        51        49        52        54     9      180.000000        0.092263         4    ;  uncertainty k = 0.065512
        51        49        52        55     9        0.000000       -0.043878         1    ;  uncertainty k = 0.701943
        51        49        52        55     9      180.000000       -0.356487         2    ;  uncertainty k = 0.459451
        51        49        52        55     9        0.000000        0.718642         3    ;  uncertainty k = 0.077681
        51        49        52        55     9      180.000000        0.092263         4    ;  uncertainty k = 0.065512

[ dihedrals ] ; impropers
;       ai        aj        ak        al funct           phase               k        pn
         5         8        13        31     4      180.000000        1.109680         2    ;  uncertainty k = 0.271256
         5        13        31         8     4      180.000000        1.109680         2    ;  uncertainty k = 0.271256
         5        31         8        13     4      180.000000        1.109680         2    ;  uncertainty k = 0.271256
         7        18        25        26     4      180.000000       49.037273         2    ;  uncertainty k = 0.027688
         7        25        26        18     4      180.000000       49.037273         2    ;  uncertainty k = 0.027688
         7        26        18        25     4      180.000000       49.037273         2    ;  uncertainty k = 0.027688
         8         5        19        21     4      180.000000       14.318672         2    ;  uncertainty k = 0.052158
         8        19        21         5     4      180.000000       14.318672         2    ;  uncertainty k = 0.052158
         8        21         5        19     4      180.000000       14.318672         2    ;  uncertainty k = 0.052158
         9        24        27        28     4      180.000000       45.765607         2    ;  uncertainty k = 0.102375
         9        27        28        24     4      180.000000       45.765607         2    ;  uncertainty k = 0.102375
         9        28        24        27     4      180.000000       45.765607         2    ;  uncertainty k = 0.102375
        11        12        16        17     4      180.000000        3.729090         2    ;  uncertainty k = 0.546840
        11        16        17        12     4      180.000000        3.729090         2    ;  uncertainty k = 0.546840
        11        17        12        16     4      180.000000        3.729090         2    ;  uncertainty k = 0.546840
        12        11        18        32     4      180.000000        7.515581         2    ;  uncertainty k = 0.359961
        12        18        32        11     4      180.000000        7.515581         2    ;  uncertainty k = 0.359961
        12        32        11        18     4      180.000000        7.515581         2    ;  uncertainty k = 0.359961
        13         5        14        22     4      180.000000       17.110314         2    ;  uncertainty k = 0.053382
        13        14        22         5     4      180.000000       17.110314         2    ;  uncertainty k = 0.053382
        13        22         5        14     4      180.000000       17.110314         2    ;  uncertainty k = 0.053382
        14        13        15        29     4      180.000000        2.090574         2    ;  uncertainty k = 0.191083
        14        15        29        13     4      180.000000        2.090574         2    ;  uncertainty k = 0.191083
        14        29        13        15     4      180.000000        2.090574         2    ;  uncertainty k = 0.191083
        15        14        19        30     4      180.000000        3.395592         2    ;  uncertainty k = 0.158338
        15        19        30        14     4      180.000000        3.395592         2    ;  uncertainty k = 0.158338
        15        30        14        19     4      180.000000        3.395592         2    ;  uncertainty k = 0.158338
        16        11        26        27     4      180.000000       30.741304         2    ;  uncertainty k = 0.071828
        16        26        27        11     4      180.000000       30.741304         2    ;  uncertainty k = 0.071828
        16        27        11        26     4      180.000000       30.741304         2    ;  uncertainty k = 0.071828
        17        11        24        33     4      180.000000       16.728421         2    ;  uncertainty k = 0.076499
        17        24        33        11     4      180.000000       16.728421         2    ;  uncertainty k = 0.076499
        17        33        11        24     4      180.000000       16.728421         2    ;  uncertainty k = 0.076499
        18         7        12        23     4      180.000000       13.109198         2    ;  uncertainty k = 0.267196
        18        12        23         7     4      180.000000       13.109198         2    ;  uncertainty k = 0.267196
        18        23         7        12     4      180.000000       13.109198         2    ;  uncertainty k = 0.267196
        19         8        15        23     4      180.000000       11.882712         2    ;  uncertainty k = 0.189067
        19        15        23         8     4      180.000000       11.882712         2    ;  uncertainty k = 0.189067
        19        23         8        15     4      180.000000       11.882712         2    ;  uncertainty k = 0.189067
        26         7        16        20     4      180.000000        3.801299         2    ;  uncertainty k = 0.839231
        26        16        20         7     4      180.000000        3.801299         2    ;  uncertainty k = 0.839231
        26        20         7        16     4      180.000000        3.801299         2    ;  uncertainty k = 0.839231
        28         9        10        45     4      180.000000        0.693580         2    ;  uncertainty k = 0.786577
        28        10        45         9     4      180.000000        0.693580         2    ;  uncertainty k = 0.786577
        28        45         9        10     4      180.000000        0.693580         2    ;  uncertainty k = 0.786577

[ pairs ]
;       ai        aj funct
         1         3     1
         1         9     1
         1        40     1
         1        41     1
         1        45     1
         2         4     1
         2        28     1
         2        38     1
         2        39     1
         2        42     1
         3        28     1
         3        36     1
         3        37     1
         3        42     1
         4         9     1
         4        34     1
         4        35     1
         4        45     1
         5        15     1
         5        23     1
         5        29     1
         6        10     1
         6        34     1
         6        35     1
         6        40     1
         6        41     1
         7        11     1
         7        19     1
         7        27     1
         7        32     1
         7        43     1
         7        44     1
         7        46     1
         8        14     1
         8        18     1
         8        22     1
         8        30     1
         9        11     1
         9        26     1
         9        33     1
         9        42     1
        10        24     1
        10        27     1
        10        36     1
        10        37     1
        10        38     1
        10        39     1
        11        20     1
        11        23     1
        12        19     1
        12        24     1
        12        25     1
        12        26     1
        12        27     1
        12        33     1
        13        19     1
        13        21     1
        13        30     1
        14        23     1
        14        31     1
        15        18     1
        15        21     1
        15        22     1
        16        18     1
        16        24     1
        16        25     1
        16        28     1
        16        32     1
        16        33     1
        16        43     1
        16        44     1
        16        46     1
        17        18     1
        17        26     1
        17        27     1
        17        28     1
        17        32     1
        18        20     1
        19        29     1
        19        31     1
        20        25     1
        20        27     1
        20        50     1
        20        51     1
        20        52     1
        21        23     1
        21        31     1
        22        29     1
        22        31     1
        23        25     1
        23        26     1
        23        30     1
        23        32     1
        24        45     1
        26        47     1
        26        48     1
        26        49     1
        27        45     1
        28        34     1
        28        35     1
        28        40     1
        28        41     1
        29        30     1
        34        36     1
        34        37     1
        34        42     1
        35        36     1
        35        37     1
        35        42     1
        38        40     1
        38        41     1
        39        40     1
        39        41     1
        40        42     1
        41        42     1
        42        45     1
        43        47     1
        43        48     1
        43        49     1
        44        47     1
        44        48     1
        44        49     1
        46        53     1
        46        54     1
        46        55     1
        47        50     1
        47        51     1
        47        52     1
        48        50     1
        48        51     1
        48        52     1
        50        53     1
        50        54     1
        50        55     1
        51        53     1
        51        54     1
        51        55     1
