; ITP file created by ByteFF-joint-25, 2026-02-17 09:24:36.298920

[ atomtypes ]
;name           bonded.type        at.num        mass        charge   ptype           sigma         epsilon
 c0bf                                   6      0.0000       0.00000       A     3.39787e-01     4.51000e-01    ;  uncertainty sigma = 0.000007, epsilon = 0.000697
 c1bf                                   6      0.0000       0.00000       A     3.39778e-01     4.50893e-01    ;  uncertainty sigma = 0.000003, epsilon = 0.000829
 c2bf                                   6      0.0000       0.00000       A     3.39778e-01     4.50893e-01    ;  uncertainty sigma = 0.000003, epsilon = 0.000829
 c3bf                                   6      0.0000       0.00000       A     3.39787e-01     4.51000e-01    ;  uncertainty sigma = 0.000007, epsilon = 0.000697
 c4bf                                   6      0.0000       0.00000       A     3.31526e-01     4.13477e-01    ;  uncertainty sigma = 0.000006, epsilon = 0.000754
 o5bf                                   8      0.0000       0.00000       A     3.15613e-01     3.03556e-01    ;  uncertainty sigma = 0.000019, epsilon = 0.001085
 c6bf                                   6      0.0000       0.00000       A     3.31525e-01     4.13583e-01    ;  uncertainty sigma = 0.000021, epsilon = 0.001472
 c7bf                                   6      0.0000       0.00000       A     3.31525e-01     4.12996e-01    ;  uncertainty sigma = 0.000006, epsilon = 0.000558
 c8bf                                   6      0.0000       0.00000       A     3.31531e-01     4.13819e-01    ;  uncertainty sigma = 0.000011, epsilon = 0.000840
 c9bf                                   6      0.0000       0.00000       A     3.39779e-01     4.51067e-01    ;  uncertainty sigma = 0.000013, epsilon = 0.000925
 c10bf                                  6      0.0000       0.00000       A     3.31548e-01     4.13569e-01    ;  uncertainty sigma = 0.000015, epsilon = 0.000849
 c11bf                                  6      0.0000       0.00000       A     3.31522e-01     4.12958e-01    ;  uncertainty sigma = 0.000012, epsilon = 0.001253
 c12bf                                  6      0.0000       0.00000       A     3.31521e-01     4.13309e-01    ;  uncertainty sigma = 0.000005, epsilon = 0.000623
 c13bf                                  6      0.0000       0.00000       A     3.31522e-01     4.13402e-01    ;  uncertainty sigma = 0.000004, epsilon = 0.000568
 c14bf                                  6      0.0000       0.00000       A     3.31532e-01     4.13487e-01    ;  uncertainty sigma = 0.000005, epsilon = 0.000789
 c15bf                                  6      0.0000       0.00000       A     3.31511e-01     4.13056e-01    ;  uncertainty sigma = 0.000031, epsilon = 0.001379
 c16bf                                  6      0.0000       0.00000       A     3.31541e-01     4.13611e-01    ;  uncertainty sigma = 0.000007, epsilon = 0.001414
 c17bf                                  6      0.0000       0.00000       A     3.31533e-01     4.13473e-01    ;  uncertainty sigma = 0.000019, epsilon = 0.001268
 c18bf                                  6      0.0000       0.00000       A     3.31544e-01     4.13185e-01    ;  uncertainty sigma = 0.000012, epsilon = 0.000998
 c19bf                                  6      0.0000       0.00000       A     3.39770e-01     4.50818e-01    ;  uncertainty sigma = 0.000010, epsilon = 0.000804
 f20bf                                  9      0.0000       0.00000       A     3.03401e-01     3.48403e-01    ;  uncertainty sigma = 0.000015, epsilon = 0.000906
 f21bf                                  9      0.0000       0.00000       A     3.03426e-01     3.47978e-01    ;  uncertainty sigma = 0.000008, epsilon = 0.000768
 o22bf                                  8      0.0000       0.00000       A     3.15661e-01     3.03543e-01    ;  uncertainty sigma = 0.000052, epsilon = 0.003674
 n23bf                                  7      0.0000       0.00000       A     3.38435e-01     3.93631e-01    ;  uncertainty sigma = 0.000019, epsilon = 0.001026
 o24bf                                  8      0.0000       0.00000       A     3.04836e-01     6.11111e-01    ;  uncertainty sigma = 0.000016, epsilon = 0.000705
 n25bf                                  7      0.0000       0.00000       A     3.18105e-01     6.85136e-01    ;  uncertainty sigma = 0.000043, epsilon = 0.001744
 n26bf                                  7      0.0000       0.00000       A     3.38454e-01     3.93310e-01    ;  uncertainty sigma = 0.000044, epsilon = 0.001741
 n27bf                                  7      0.0000       0.00000       A     3.27898e-01     6.46446e-01    ;  uncertainty sigma = 0.000031, epsilon = 0.005668
 h28bf                                  1      0.0000       0.00000       A     2.62564e-01     6.70554e-02    ;  uncertainty sigma = 0.000012, epsilon = 0.000465
 h29bf                                  1      0.0000       0.00000       A     2.62548e-01     6.71486e-02    ;  uncertainty sigma = 0.000008, epsilon = 0.000492
 h30bf                                  1      0.0000       0.00000       A     2.62562e-01     6.73680e-02    ;  uncertainty sigma = 0.000008, epsilon = 0.000365
 h31bf                                  1      0.0000       0.00000       A     2.62521e-01     6.67593e-02    ;  uncertainty sigma = 0.000018, epsilon = 0.000881
 h32bf                                  1      0.0000       0.00000       A     2.53663e-01     6.71784e-02    ;  uncertainty sigma = 0.000041, epsilon = 0.000925
 h33bf                                  1      0.0000       0.00000       A     2.60021e-01     8.67664e-02    ;  uncertainty sigma = 0.000009, epsilon = 0.000445
 h34bf                                  1      0.0000       0.00000       A     2.60021e-01     8.67664e-02    ;  uncertainty sigma = 0.000009, epsilon = 0.000445
 h35bf                                  1      0.0000       0.00000       A     2.42188e-01     8.67182e-02    ;  uncertainty sigma = 0.000018, epsilon = 0.000739
 h36bf                                  1      0.0000       0.00000       A     2.42188e-01     8.67182e-02    ;  uncertainty sigma = 0.000018, epsilon = 0.000739
 h37bf                                  1      0.0000       0.00000       A     2.42188e-01     8.67182e-02    ;  uncertainty sigma = 0.000018, epsilon = 0.000739
 h38bf                                  1      0.0000       0.00000       A     2.42188e-01     8.67182e-02    ;  uncertainty sigma = 0.000018, epsilon = 0.000739
 h39bf                                  1      0.0000       0.00000       A     2.60021e-01     8.67664e-02    ;  uncertainty sigma = 0.000009, epsilon = 0.000445
 h40bf                                  1      0.0000       0.00000       A     2.60021e-01     8.67664e-02    ;  uncertainty sigma = 0.000009, epsilon = 0.000445
 h41bf                                  1      0.0000       0.00000       A     2.42212e-01     8.65674e-02    ;  uncertainty sigma = 0.000016, epsilon = 0.000625
 h42bf                                  1      0.0000       0.00000       A     2.42210e-01     8.65946e-02    ;  uncertainty sigma = 0.000023, epsilon = 0.000853
 h43bf                                  1      0.0000       0.00000       A     2.42210e-01     8.65946e-02    ;  uncertainty sigma = 0.000023, epsilon = 0.000853
 h44bf                                  1      0.0000       0.00000       A     1.10703e-01     4.14050e-02    ;  uncertainty sigma = 0.000035, epsilon = 0.000993
 c45bf                                  6      0.0000       0.00000       A     3.39767e-01     4.51310e-01    ;  uncertainty sigma = 0.000009, epsilon = 0.001140
 h46bf                                  1      0.0000       0.00000       A     2.60031e-01     8.64959e-02    ;  uncertainty sigma = 0.000027, epsilon = 0.000859
 h47bf                                  1      0.0000       0.00000       A     2.60031e-01     8.64959e-02    ;  uncertainty sigma = 0.000027, epsilon = 0.000859
 c48bf                                  6      0.0000       0.00000       A     3.39784e-01     4.50925e-01    ;  uncertainty sigma = 0.000009, epsilon = 0.000950
 h49bf                                  1      0.0000       0.00000       A     2.42205e-01     8.67516e-02    ;  uncertainty sigma = 0.000044, epsilon = 0.000864
 h50bf                                  1      0.0000       0.00000       A     2.42205e-01     8.67516e-02    ;  uncertainty sigma = 0.000044, epsilon = 0.000864
 s51bf                                 16      0.0000       0.00000       A     4.05852e-01     2.56505e-01    ;  uncertainty sigma = 0.000018, epsilon = 0.001916
 o52bf                                  8      0.0000       0.00000       A     3.04787e-01     6.12546e-01    ;  uncertainty sigma = 0.000027, epsilon = 0.000754
 o53bf                                  8      0.0000       0.00000       A     3.04787e-01     6.12546e-01    ;  uncertainty sigma = 0.000027, epsilon = 0.000754
 c54bf                                  6      0.0000       0.00000       A     3.39785e-01     4.50782e-01    ;  uncertainty sigma = 0.000007, epsilon = 0.000645
 h55bf                                  1      0.0000       0.00000       A     2.42199e-01     8.68150e-02    ;  uncertainty sigma = 0.000022, epsilon = 0.000550
 h56bf                                  1      0.0000       0.00000       A     2.42199e-01     8.68150e-02    ;  uncertainty sigma = 0.000022, epsilon = 0.000550
 h57bf                                  1      0.0000       0.00000       A     2.42199e-01     8.68150e-02    ;  uncertainty sigma = 0.000022, epsilon = 0.000550

[ moleculetype ]
;name             nrexcl
 MOL                   3

[ atoms ]
;       nr            type      resi   res      atom      cgnr      charge          mass ; qtot
         1            c0bf         1   UNL        c0         1    -0.12711       12.0110 ; qtot   -0.127
         2            c1bf         1   UNL        c1         2     0.13209       12.0110 ; qtot    0.005
         3            c2bf         1   UNL        c2         3     0.13209       12.0110 ; qtot    0.137
         4            c3bf         1   UNL        c3         4    -0.12711       12.0110 ; qtot    0.010
         5            c4bf         1   UNL        c4         5    -0.19164       12.0110 ; qtot   -0.182
         6            o5bf         1   UNL        o5         6    -0.41527       15.9990 ; qtot   -0.597
         7            c6bf         1   UNL        c6         7     0.70149       12.0110 ; qtot    0.105
         8            c7bf         1   UNL        c7         8     0.14567       12.0110 ; qtot    0.250
         9            c8bf         1   UNL        c8         9     0.92952       12.0110 ; qtot    1.180
        10            c9bf         1   UNL        c9        10     0.24784       12.0110 ; qtot    1.428
        11           c10bf         1   UNL       c10        11    -0.40941       12.0110 ; qtot    1.018
        12           c11bf         1   UNL       c11        12    -0.04462       12.0110 ; qtot    0.974
        13           c12bf         1   UNL       c12        13     0.14413       12.0110 ; qtot    1.118
        14           c13bf         1   UNL       c13        14    -0.16248       12.0110 ; qtot    0.955
        15           c14bf         1   UNL       c14        15    -0.09069       12.0110 ; qtot    0.864
        16           c15bf         1   UNL       c15        16     0.63905       12.0110 ; qtot    1.504
        17           c16bf         1   UNL       c16        17     0.52297       12.0110 ; qtot    2.027
        18           c17bf         1   UNL       c17        18     0.00593       12.0110 ; qtot    2.032
        19           c18bf         1   UNL       c18        19     0.04787       12.0110 ; qtot    2.080
        20           c19bf         1   UNL       c19        20     0.10073       12.0110 ; qtot    2.181
        21           f20bf         1   UNL       f20        21    -0.12685       18.9980 ; qtot    2.054
        22           f21bf         1   UNL       f21        22    -0.13805       18.9980 ; qtot    1.916
        23           o22bf         1   UNL       o22        23    -0.20957       15.9990 ; qtot    1.707
        24           n23bf         1   UNL       n23        24    -0.77257       14.0070 ; qtot    0.934
        25           o24bf         1   UNL       o24        25    -0.59309       15.9990 ; qtot    0.341
        26           n25bf         1   UNL       n25        26    -0.43474       14.0070 ; qtot   -0.094
        27           n26bf         1   UNL       n26        27    -0.83398       14.0070 ; qtot   -0.928
        28           n27bf         1   UNL       n27        28    -0.86394       14.0070 ; qtot   -1.792
        29           h28bf         1   UNL       h28        29     0.16075        1.0080 ; qtot   -1.631
        30           h29bf         1   UNL       h29        30     0.15721        1.0080 ; qtot   -1.474
        31           h30bf         1   UNL       h30        31     0.17297        1.0080 ; qtot   -1.301
        32           h31bf         1   UNL       h31        32     0.16397        1.0080 ; qtot   -1.137
        33           h32bf         1   UNL       h32        33     0.02960        1.0080 ; qtot   -1.107
        34           h33bf         1   UNL       h33        34     0.05892        1.0080 ; qtot   -1.048
        35           h34bf         1   UNL       h34        35     0.05892        1.0080 ; qtot   -0.989
        36           h35bf         1   UNL       h35        36     0.04655        1.0080 ; qtot   -0.943
        37           h36bf         1   UNL       h36        37     0.04655        1.0080 ; qtot   -0.896
        38           h37bf         1   UNL       h37        38     0.04655        1.0080 ; qtot   -0.850
        39           h38bf         1   UNL       h38        39     0.04655        1.0080 ; qtot   -0.803
        40           h39bf         1   UNL       h39        40     0.05892        1.0080 ; qtot   -0.744
        41           h40bf         1   UNL       h40        41     0.05892        1.0080 ; qtot   -0.685
        42           h41bf         1   UNL       h41        42     0.07162        1.0080 ; qtot   -0.614
        43           h42bf         1   UNL       h42        43     0.07786        1.0080 ; qtot   -0.536
        44           h43bf         1   UNL       h43        44     0.07786        1.0080 ; qtot   -0.458
        45           h44bf         1   UNL       h44        45     0.44845        1.0080 ; qtot   -0.010
        46           c45bf         1   UNL       c45        46    -0.06611       12.0110 ; qtot   -0.076
        47           h46bf         1   UNL       h46        47     0.07284        1.0080 ; qtot   -0.003
        48           h47bf         1   UNL       h47        48     0.07284        1.0080 ; qtot    0.070
        49           c48bf         1   UNL       c48        49    -0.15622       12.0110 ; qtot   -0.086
        50           h49bf         1   UNL       h49        50     0.09911        1.0080 ; qtot    0.013
        51           h50bf         1   UNL       h50        51     0.09911        1.0080 ; qtot    0.112
        52           s51bf         1   UNL       s51        52     0.92394       32.0670 ; qtot    1.036
        53           o52bf         1   UNL       o52        53    -0.57758       15.9990 ; qtot    0.458
        54           o53bf         1   UNL       o53        54    -0.57758       15.9990 ; qtot   -0.119
        55           c54bf         1   UNL       c54        55    -0.18778       12.0110 ; qtot   -0.307
        56           h55bf         1   UNL       h55        56     0.10234        1.0080 ; qtot   -0.205
        57           h56bf         1   UNL       h56        57     0.10234        1.0080 ; qtot   -0.102
        58           h57bf         1   UNL       h57        58     0.10232        1.0080 ; qtot    0.000

[ bonds ]
;       ai        aj funct               r               k
         1         2     1        0.153564   209800.351904    ;  uncertainty r = 0.000030, k = 4.398850
         1        10     1        0.153800   204926.313672    ;  uncertainty r = 0.000079, k = 2.875806
         1        34     1        0.109644   310935.400293    ;  uncertainty r = 0.000023, k = 1.135247
         1        35     1        0.109644   310935.400293    ;  uncertainty r = 0.000023, k = 1.135247
         2         6     1        0.142789   254488.480176    ;  uncertainty r = 0.000039, k = 2.801925
         2        36     1        0.109818   309244.843652    ;  uncertainty r = 0.000020, k = 0.854841
         2        37     1        0.109818   309244.843652    ;  uncertainty r = 0.000020, k = 0.854841
         3         4     1        0.153564   209800.351904    ;  uncertainty r = 0.000030, k = 4.398850
         3         6     1        0.142789   254488.480176    ;  uncertainty r = 0.000039, k = 2.801925
         3        38     1        0.109818   309244.843652    ;  uncertainty r = 0.000020, k = 0.854841
         3        39     1        0.109818   309244.843652    ;  uncertainty r = 0.000020, k = 0.854841
         4        10     1        0.153800   204926.313672    ;  uncertainty r = 0.000079, k = 2.875806
         4        40     1        0.109644   310935.400293    ;  uncertainty r = 0.000023, k = 1.135247
         4        41     1        0.109644   310935.400293    ;  uncertainty r = 0.000023, k = 1.135247
         5         8     1        0.138747   361176.981592    ;  uncertainty r = 0.000032, k = 2.643588
         5        13     1        0.139007   367691.396045    ;  uncertainty r = 0.000031, k = 2.749259
         5        31     1        0.108780   338576.282275    ;  uncertainty r = 0.000013, k = 1.210229
         7        18     1        0.146437   253535.230957    ;  uncertainty r = 0.000235, k = 29.764782
         7        25     1        0.123485   648936.918848    ;  uncertainty r = 0.000078, k = 15.852101
         7        26     1        0.140496   256922.243311    ;  uncertainty r = 0.000342, k = 26.720149
         8        19     1        0.139121   358077.006348    ;  uncertainty r = 0.000040, k = 4.650811
         8        21     1        0.134764   340072.935645    ;  uncertainty r = 0.000045, k = 2.589505
         9        24     1        0.136645   531258.650098    ;  uncertainty r = 0.000130, k = 16.870261
         9        27     1        0.135843   605002.314063    ;  uncertainty r = 0.000137, k = 21.993885
         9        28     1        0.138336   585582.159570    ;  uncertainty r = 0.000160, k = 23.152214
        10        28     1        0.145807   240009.066846    ;  uncertainty r = 0.000132, k = 9.981083
        10        42     1        0.109351   304415.163379    ;  uncertainty r = 0.000015, k = 2.578070
        11        12     1        0.142609   276741.236377    ;  uncertainty r = 0.000045, k = 22.788162
        11        16     1        0.142301   402509.737988    ;  uncertainty r = 0.000191, k = 28.912478
        11        17     1        0.140346   398727.436719    ;  uncertainty r = 0.000185, k = 20.646979
        12        18     1        0.135392   409011.792480    ;  uncertainty r = 0.000075, k = 13.944295
        12        32     1        0.108670   334774.368506    ;  uncertainty r = 0.000042, k = 1.864898
        13        14     1        0.138905   362175.303809    ;  uncertainty r = 0.000027, k = 1.862514
        13        22     1        0.135460   342148.081152    ;  uncertainty r = 0.000038, k = 2.796473
        14        15     1        0.139206   376188.256299    ;  uncertainty r = 0.000034, k = 0.837546
        14        29     1        0.108734   335618.242285    ;  uncertainty r = 0.000017, k = 1.062658
        15        19     1        0.139238   351219.066699    ;  uncertainty r = 0.000057, k = 2.910415
        15        30     1        0.108702   335466.041113    ;  uncertainty r = 0.000027, k = 2.133558
        16        26     1        0.138025   266876.072266    ;  uncertainty r = 0.000233, k = 33.426926
        16        27     1        0.134216   438336.565918    ;  uncertainty r = 0.000118, k = 17.577643
        17        24     1        0.133415   406678.594482    ;  uncertainty r = 0.000077, k = 10.237142
        17        33     1        0.108927   329046.113965    ;  uncertainty r = 0.000030, k = 1.909598
        18        23     1        0.136094   317342.048145    ;  uncertainty r = 0.000086, k = 7.248126
        19        23     1        0.138160   312130.434863    ;  uncertainty r = 0.000116, k = 5.846346
        20        26     1        0.145644   253916.985205    ;  uncertainty r = 0.000140, k = 13.643933
        20        43     1        0.109162   308585.577637    ;  uncertainty r = 0.000044, k = 1.498557
        20        44     1        0.109162   308585.577637    ;  uncertainty r = 0.000044, k = 1.498557
        20        46     1        0.153003   203932.281689    ;  uncertainty r = 0.000070, k = 5.639980
        28        45     1        0.102176   435698.173926    ;  uncertainty r = 0.000065, k = 4.933167
        46        47     1        0.109478   310415.234912    ;  uncertainty r = 0.000026, k = 1.851427
        46        48     1        0.109478   310415.234912    ;  uncertainty r = 0.000026, k = 1.851427
        46        49     1        0.152044   203459.666406    ;  uncertainty r = 0.000040, k = 3.414041
        49        50     1        0.109649   318697.813281    ;  uncertainty r = 0.000027, k = 3.092930
        49        51     1        0.109649   318697.813281    ;  uncertainty r = 0.000027, k = 3.092930
        49        52     1        0.182221   140274.601221    ;  uncertainty r = 0.000089, k = 9.384401
        52        53     1        0.147910   545999.640039    ;  uncertainty r = 0.000029, k = 5.745629
        52        54     1        0.147910   545999.640039    ;  uncertainty r = 0.000029, k = 5.745629
        52        55     1        0.181242   170768.782739    ;  uncertainty r = 0.000074, k = 16.469450
        55        56     1        0.109282   320407.727051    ;  uncertainty r = 0.000013, k = 2.143449
        55        57     1        0.109282   320407.727051    ;  uncertainty r = 0.000013, k = 2.143453
        55        58     1        0.109282   320407.727051    ;  uncertainty r = 0.000013, k = 2.143464

[ angles ]
;       ai        aj        ak funct           theta             cth
         1         2         6     1      111.446632      714.965579    ;  uncertainty theta = 0.001347, k = 0.063500
         1         2        36     1      109.920456      408.541080    ;  uncertainty theta = 0.002019, k = 0.035643
         1         2        37     1      109.920456      408.541080    ;  uncertainty theta = 0.002019, k = 0.035643
         1        10         4     1      108.571205      585.454959    ;  uncertainty theta = 0.002684, k = 0.080005
         1        10        28     1      110.695145      629.201113    ;  uncertainty theta = 0.003363, k = 0.060631
         1        10        42     1      108.629013      407.998416    ;  uncertainty theta = 0.002420, k = 0.060827
         2         1        10     1      109.739174      566.930979    ;  uncertainty theta = 0.002556, k = 0.101379
         2         1        34     1      108.721451      397.694416    ;  uncertainty theta = 0.000995, k = 0.058468
         2         1        35     1      108.721451      397.694416    ;  uncertainty theta = 0.000995, k = 0.058468
         2         6         3     1      109.309448      562.168308    ;  uncertainty theta = 0.002274, k = 0.150711
         3         4        10     1      109.739174      566.930979    ;  uncertainty theta = 0.002556, k = 0.101379
         3         4        40     1      108.721451      397.694416    ;  uncertainty theta = 0.000995, k = 0.058468
         3         4        41     1      108.721451      397.694416    ;  uncertainty theta = 0.000995, k = 0.058468
         4         3         6     1      111.446632      714.965579    ;  uncertainty theta = 0.001347, k = 0.063500
         4         3        38     1      109.920456      408.541080    ;  uncertainty theta = 0.002019, k = 0.035643
         4         3        39     1      109.920456      408.541080    ;  uncertainty theta = 0.002019, k = 0.035643
         4        10        28     1      110.695145      629.201113    ;  uncertainty theta = 0.003363, k = 0.060631
         4        10        42     1      108.629013      407.998416    ;  uncertainty theta = 0.002420, k = 0.060827
         5         8        19     1      123.443153      352.584549    ;  uncertainty theta = 0.005265, k = 0.202869
         5         8        21     1      118.916702      524.557093    ;  uncertainty theta = 0.000766, k = 0.063533
         5        13        14     1      122.203163      367.950291    ;  uncertainty theta = 0.004353, k = 0.037976
         5        13        22     1      118.416054      506.109309    ;  uncertainty theta = 0.002115, k = 0.044491
         6         2        36     1      107.077614      463.773059    ;  uncertainty theta = 0.001757, k = 0.022995
         6         2        37     1      107.077614      463.773059    ;  uncertainty theta = 0.001757, k = 0.022995
         6         3        38     1      107.077614      463.773059    ;  uncertainty theta = 0.001757, k = 0.022995
         6         3        39     1      107.077614      463.773059    ;  uncertainty theta = 0.001757, k = 0.022995
         7        18        12     1      124.795242      435.342851    ;  uncertainty theta = 0.006194, k = 0.170561
         7        18        23     1      108.555237      386.805488    ;  uncertainty theta = 0.011190, k = 0.254807
         7        26        16     1      122.653709      489.015534    ;  uncertainty theta = 0.007671, k = 0.143259
         7        26        20     1      113.084000      431.113075    ;  uncertainty theta = 0.003759, k = 0.211862
         8         5        13     1      117.873718      466.681991    ;  uncertainty theta = 0.002635, k = 0.148809
         8         5        31     1      120.885605      275.043414    ;  uncertainty theta = 0.003104, k = 0.026017
         8        19        15     1      120.438950      350.580333    ;  uncertainty theta = 0.005824, k = 0.197361
         8        19        23     1      117.649757      371.496917    ;  uncertainty theta = 0.004336, k = 0.212601
         9        24        17     1      116.430397      408.139285    ;  uncertainty theta = 0.008084, k = 0.292187
         9        27        16     1      117.581871      453.562237    ;  uncertainty theta = 0.007099, k = 0.108437
         9        28        10     1      115.769875      413.653066    ;  uncertainty theta = 0.005271, k = 0.143046
         9        28        45     1      116.919144      444.716566    ;  uncertainty theta = 0.004236, k = 0.155196
        10         1        34     1      108.113968      386.815958    ;  uncertainty theta = 0.001236, k = 0.022845
        10         1        35     1      108.113968      386.815958    ;  uncertainty theta = 0.001236, k = 0.022845
        10         4        40     1      108.113968      386.815958    ;  uncertainty theta = 0.001236, k = 0.022845
        10         4        41     1      108.113968      386.815958    ;  uncertainty theta = 0.001236, k = 0.022845
        10        28        45     1      112.314072      333.078060    ;  uncertainty theta = 0.005154, k = 0.136963
        11        12        18     1      121.231750      510.259951    ;  uncertainty theta = 0.006901, k = 0.205657
        11        12        32     1      118.301880      255.139520    ;  uncertainty theta = 0.002882, k = 0.281063
        11        16        26     1      118.013199      481.327460    ;  uncertainty theta = 0.008368, k = 0.235292
        11        16        27     1      122.725258      544.893347    ;  uncertainty theta = 0.005102, k = 0.162541
        11        17        24     1      122.573898      739.745194    ;  uncertainty theta = 0.001502, k = 0.185142
        11        17        33     1      120.138596      260.992195    ;  uncertainty theta = 0.003960, k = 0.108553
        12        11        16     1      120.126144      443.073540    ;  uncertainty theta = 0.011944, k = 0.208466
        12        11        17     1      123.477745      406.388429    ;  uncertainty theta = 0.007028, k = 0.174657
        12        18        23     1      122.495399      426.177135    ;  uncertainty theta = 0.003016, k = 0.092274
        13         5        31     1      122.167213      276.182816    ;  uncertainty theta = 0.001979, k = 0.047518
        13        14        15     1      117.679276      490.002065    ;  uncertainty theta = 0.001416, k = 0.046653
        13        14        29     1      120.978439      282.379204    ;  uncertainty theta = 0.000982, k = 0.023307
        14        13        22     1      119.340736      515.983168    ;  uncertainty theta = 0.001915, k = 0.014125
        14        15        19     1      121.214966      509.817585    ;  uncertainty theta = 0.002734, k = 0.081000
        14        15        30     1      120.371567      284.922126    ;  uncertainty theta = 0.002332, k = 0.030236
        15        14        29     1      121.389076      278.892591    ;  uncertainty theta = 0.001182, k = 0.028037
        15        19        23     1      121.313034      424.254318    ;  uncertainty theta = 0.004582, k = 0.111195
        16        11        17     1      117.280197      432.760378    ;  uncertainty theta = 0.005724, k = 0.201084
        16        26        20     1      114.615799      427.444510    ;  uncertainty theta = 0.006395, k = 0.169584
        18         7        25     1      123.561707      477.038821    ;  uncertainty theta = 0.002445, k = 0.064950
        18         7        26     1      114.861656      322.559995    ;  uncertainty theta = 0.011780, k = 0.593825
        18        12        32     1      120.565475      276.248606    ;  uncertainty theta = 0.006005, k = 0.204362
        18        23        19     1      112.349411      458.739759    ;  uncertainty theta = 0.005392, k = 0.291515
        19         8        21     1      117.525742      487.064690    ;  uncertainty theta = 0.002079, k = 0.147581
        19        15        30     1      118.610428      275.458648    ;  uncertainty theta = 0.003647, k = 0.058785
        20        46        47     1      107.124954      393.135276    ;  uncertainty theta = 0.002277, k = 0.023130
        20        46        48     1      107.124954      393.135276    ;  uncertainty theta = 0.002277, k = 0.023130
        20        46        49     1      108.583694      513.669155    ;  uncertainty theta = 0.004292, k = 0.139991
        24         9        27     1      128.699509      744.224276    ;  uncertainty theta = 0.002604, k = 0.101807
        24         9        28     1      120.633926      828.446109    ;  uncertainty theta = 0.008794, k = 0.131219
        24        17        33     1      117.368210      318.255364    ;  uncertainty theta = 0.003552, k = 0.161160
        25         7        26     1      122.293808      686.771015    ;  uncertainty theta = 0.003946, k = 0.082759
        26        16        27     1      117.312218      602.251738    ;  uncertainty theta = 0.012544, k = 0.108632
        26        20        43     1      104.242142      440.964845    ;  uncertainty theta = 0.003213, k = 0.074973
        26        20        44     1      104.242142      440.964845    ;  uncertainty theta = 0.003213, k = 0.074973
        26        20        46     1      110.451195      626.521313    ;  uncertainty theta = 0.003584, k = 0.069401
        27         9        28     1      121.224037      914.820083    ;  uncertainty theta = 0.007146, k = 0.101001
        28        10        42     1      103.516525      447.268585    ;  uncertainty theta = 0.003472, k = 0.117225
        34         1        35     1      105.438782      311.403087    ;  uncertainty theta = 0.002031, k = 0.016795
        36         2        37     1      106.555069      320.243013    ;  uncertainty theta = 0.001313, k = 0.032691
        38         3        39     1      106.555069      320.243013    ;  uncertainty theta = 0.001313, k = 0.032691
        40         4        41     1      105.438782      311.403087    ;  uncertainty theta = 0.002031, k = 0.016795
        43        20        44     1      107.114014      314.524456    ;  uncertainty theta = 0.005119, k = 0.045192
        43        20        46     1      108.196976      406.039273    ;  uncertainty theta = 0.002990, k = 0.073550
        44        20        46     1      108.196976      406.039273    ;  uncertainty theta = 0.002990, k = 0.073550
        46        49        50     1      110.301392      378.384978    ;  uncertainty theta = 0.002141, k = 0.068837
        46        49        51     1      110.301392      378.384978    ;  uncertainty theta = 0.002141, k = 0.068837
        46        49        52     1      107.261459      468.120752    ;  uncertainty theta = 0.002069, k = 0.067578
        47        46        48     1      105.588699      320.367219    ;  uncertainty theta = 0.001720, k = 0.029496
        47        46        49     1      106.860619      390.162086    ;  uncertainty theta = 0.002165, k = 0.077507
        48        46        49     1      106.860619      390.162086    ;  uncertainty theta = 0.002165, k = 0.077507
        49        52        53     1      112.606094      688.382023    ;  uncertainty theta = 0.003793, k = 0.052725
        49        52        54     1      112.606094      688.382023    ;  uncertainty theta = 0.003793, k = 0.052725
        49        52        55     1      103.083267      699.432505    ;  uncertainty theta = 0.004027, k = 0.090132
        50        49        51     1      107.826767      304.471773    ;  uncertainty theta = 0.002883, k = 0.068696
        50        49        52     1      105.755714      373.302422    ;  uncertainty theta = 0.001906, k = 0.071516
        51        49        52     1      105.755714      373.302422    ;  uncertainty theta = 0.001906, k = 0.071516
        52        55        56     1      107.100319      363.559249    ;  uncertainty theta = 0.001637, k = 0.073704
        52        55        57     1      107.100319      363.559249    ;  uncertainty theta = 0.001637, k = 0.073704
        52        55        58     1      107.100319      363.559249    ;  uncertainty theta = 0.001637, k = 0.073704
        53        52        54     1      123.050514      864.238730    ;  uncertainty theta = 0.001719, k = 0.082178
        53        52        55     1      112.122658      726.629016    ;  uncertainty theta = 0.002803, k = 0.047885
        54        52        55     1      112.122658      726.629016    ;  uncertainty theta = 0.002803, k = 0.047885
        56        55        57     1      108.643631      297.773900    ;  uncertainty theta = 0.002644, k = 0.028339
        56        55        58     1      108.643631      297.773900    ;  uncertainty theta = 0.002644, k = 0.028339
        57        55        58     1      108.643631      297.773868    ;  uncertainty theta = 0.002644, k = 0.028339

[ dihedrals ] ; propers for gromacs 4.5 or higher, use funct 9
;       ai        aj        ak        al funct           phase               k        pn
         1         2         6         3     9        0.000000       -3.090920         1    ;  uncertainty k = 1.764723
         1         2         6         3     9      180.000000        0.099645         2    ;  uncertainty k = 1.147878
         1         2         6         3     9        0.000000        0.937069         3    ;  uncertainty k = 0.257052
         1         2         6         3     9      180.000000       -0.348700         4    ;  uncertainty k = 0.188482
         1        10         4         3     9        0.000000       -7.182169         1    ;  uncertainty k = 1.160296
         1        10         4         3     9      180.000000        0.651721         2    ;  uncertainty k = 0.689257
         1        10         4         3     9        0.000000        1.337200         3    ;  uncertainty k = 0.165866
         1        10         4         3     9      180.000000       -1.433187         4    ;  uncertainty k = 0.219126
         1        10         4        40     9        0.000000       -1.858871         1    ;  uncertainty k = 0.333669
         1        10         4        40     9      180.000000       -0.004379         2    ;  uncertainty k = 0.147655
         1        10         4        40     9        0.000000        0.298804         3    ;  uncertainty k = 0.155785
         1        10         4        40     9      180.000000       -0.141300         4    ;  uncertainty k = 0.079428
         1        10         4        41     9        0.000000       -1.858871         1    ;  uncertainty k = 0.333669
         1        10         4        41     9      180.000000       -0.004379         2    ;  uncertainty k = 0.147655
         1        10         4        41     9        0.000000        0.298804         3    ;  uncertainty k = 0.155785
         1        10         4        41     9      180.000000       -0.141300         4    ;  uncertainty k = 0.079428
         1        10        28         9     9        0.000000       -2.505165         1    ;  uncertainty k = 0.386990
         1        10        28         9     9      180.000000        0.497922         2    ;  uncertainty k = 0.198476
         1        10        28         9     9        0.000000        0.367322         3    ;  uncertainty k = 0.126648
         1        10        28         9     9      180.000000        0.361622         4    ;  uncertainty k = 0.081111
         1        10        28        45     9        0.000000        2.787690         1    ;  uncertainty k = 0.893880
         1        10        28        45     9      180.000000       -0.663636         2    ;  uncertainty k = 0.236090
         1        10        28        45     9        0.000000        0.218247         3    ;  uncertainty k = 0.119918
         1        10        28        45     9      180.000000        0.123443         4    ;  uncertainty k = 0.073280
         2         1        10         4     9        0.000000       -7.182169         1    ;  uncertainty k = 1.160296
         2         1        10         4     9      180.000000        0.651721         2    ;  uncertainty k = 0.689257
         2         1        10         4     9        0.000000        1.337200         3    ;  uncertainty k = 0.165866
         2         1        10         4     9      180.000000       -1.433187         4    ;  uncertainty k = 0.219126
         2         1        10        28     9        0.000000       -4.805353         1    ;  uncertainty k = 0.699431
         2         1        10        28     9      180.000000       -0.187719         2    ;  uncertainty k = 0.333371
         2         1        10        28     9        0.000000        1.016385         3    ;  uncertainty k = 0.162984
         2         1        10        28     9      180.000000       -0.078100         4    ;  uncertainty k = 0.195994
         2         1        10        42     9        0.000000       -1.687319         1    ;  uncertainty k = 0.555497
         2         1        10        42     9      180.000000       -0.643722         2    ;  uncertainty k = 0.388884
         2         1        10        42     9        0.000000        0.030461         3    ;  uncertainty k = 0.099396
         2         1        10        42     9      180.000000       -0.147535         4    ;  uncertainty k = 0.108263
         2         6         3         4     9        0.000000       -3.090920         1    ;  uncertainty k = 1.764723
         2         6         3         4     9      180.000000        0.099645         2    ;  uncertainty k = 1.147878
         2         6         3         4     9        0.000000        0.937069         3    ;  uncertainty k = 0.257052
         2         6         3         4     9      180.000000       -0.348700         4    ;  uncertainty k = 0.188482
         2         6         3        38     9        0.000000       -5.435409         1    ;  uncertainty k = 1.705293
         2         6         3        38     9      180.000000        0.309318         2    ;  uncertainty k = 0.194051
         2         6         3        38     9        0.000000        0.745836         3    ;  uncertainty k = 0.129776
         2         6         3        38     9      180.000000       -0.529315         4    ;  uncertainty k = 0.148432
         2         6         3        39     9        0.000000       -5.435409         1    ;  uncertainty k = 1.705293
         2         6         3        39     9      180.000000        0.309318         2    ;  uncertainty k = 0.194051
         2         6         3        39     9        0.000000        0.745836         3    ;  uncertainty k = 0.129776
         2         6         3        39     9      180.000000       -0.529315         4    ;  uncertainty k = 0.148432
         3         4        10        28     9        0.000000       -4.805353         1    ;  uncertainty k = 0.699431
         3         4        10        28     9      180.000000       -0.187719         2    ;  uncertainty k = 0.333371
         3         4        10        28     9        0.000000        1.016385         3    ;  uncertainty k = 0.162984
         3         4        10        28     9      180.000000       -0.078100         4    ;  uncertainty k = 0.195994
         3         4        10        42     9        0.000000       -1.687319         1    ;  uncertainty k = 0.555497
         3         4        10        42     9      180.000000       -0.643722         2    ;  uncertainty k = 0.388884
         3         4        10        42     9        0.000000        0.030461         3    ;  uncertainty k = 0.099396
         3         4        10        42     9      180.000000       -0.147535         4    ;  uncertainty k = 0.108263
         3         6         2        36     9        0.000000       -5.435409         1    ;  uncertainty k = 1.705293
         3         6         2        36     9      180.000000        0.309318         2    ;  uncertainty k = 0.194051
         3         6         2        36     9        0.000000        0.745836         3    ;  uncertainty k = 0.129776
         3         6         2        36     9      180.000000       -0.529315         4    ;  uncertainty k = 0.148432
         3         6         2        37     9        0.000000       -5.435409         1    ;  uncertainty k = 1.705293
         3         6         2        37     9      180.000000        0.309318         2    ;  uncertainty k = 0.194051
         3         6         2        37     9        0.000000        0.745836         3    ;  uncertainty k = 0.129776
         3         6         2        37     9      180.000000       -0.529315         4    ;  uncertainty k = 0.148432
         4        10         1        34     9        0.000000       -1.858871         1    ;  uncertainty k = 0.333669
         4        10         1        34     9      180.000000       -0.004379         2    ;  uncertainty k = 0.147655
         4        10         1        34     9        0.000000        0.298804         3    ;  uncertainty k = 0.155785
         4        10         1        34     9      180.000000       -0.141300         4    ;  uncertainty k = 0.079428
         4        10         1        35     9        0.000000       -1.858871         1    ;  uncertainty k = 0.333669
         4        10         1        35     9      180.000000       -0.004379         2    ;  uncertainty k = 0.147655
         4        10         1        35     9        0.000000        0.298804         3    ;  uncertainty k = 0.155785
         4        10         1        35     9      180.000000       -0.141300         4    ;  uncertainty k = 0.079428
         4        10        28         9     9        0.000000       -2.505165         1    ;  uncertainty k = 0.386990
         4        10        28         9     9      180.000000        0.497922         2    ;  uncertainty k = 0.198476
         4        10        28         9     9        0.000000        0.367322         3    ;  uncertainty k = 0.126648
         4        10        28         9     9      180.000000        0.361622         4    ;  uncertainty k = 0.081111
         4        10        28        45     9        0.000000        2.787690         1    ;  uncertainty k = 0.893880
         4        10        28        45     9      180.000000       -0.663636         2    ;  uncertainty k = 0.236090
         4        10        28        45     9        0.000000        0.218247         3    ;  uncertainty k = 0.119918
         4        10        28        45     9      180.000000        0.123443         4    ;  uncertainty k = 0.073280
         5         8        19        15     9        0.000000       -0.306313         1    ;  uncertainty k = 0.505391
         5         8        19        15     9      180.000000        5.699560         2    ;  uncertainty k = 1.071993
         5         8        19        15     9        0.000000        0.341049         3    ;  uncertainty k = 0.427163
         5         8        19        15     9      180.000000        1.286695         4    ;  uncertainty k = 0.336491
         5         8        19        23     9        0.000000        0.209707         1    ;  uncertainty k = 0.181119
         5         8        19        23     9      180.000000        8.078772         2    ;  uncertainty k = 0.443297
         5         8        19        23     9        0.000000        1.333895         3    ;  uncertainty k = 0.197684
         5         8        19        23     9      180.000000        1.703363         4    ;  uncertainty k = 0.101848
         5        13        14        15     9        0.000000        0.006656         1    ;  uncertainty k = 0.178742
         5        13        14        15     9      180.000000        9.851306         2    ;  uncertainty k = 0.487067
         5        13        14        15     9        0.000000       -0.289375         3    ;  uncertainty k = 0.510037
         5        13        14        15     9      180.000000        1.102178         4    ;  uncertainty k = 0.341530
         5        13        14        29     9        0.000000        0.058690         1    ;  uncertainty k = 0.184961
         5        13        14        29     9      180.000000        5.722279         2    ;  uncertainty k = 0.634542
         5        13        14        29     9        0.000000        1.318867         3    ;  uncertainty k = 0.348930
         5        13        14        29     9      180.000000        1.524759         4    ;  uncertainty k = 0.200416
         6         2         1        10     9        0.000000       -0.987582         1    ;  uncertainty k = 1.101439
         6         2         1        10     9      180.000000       -3.903899         2    ;  uncertainty k = 0.673250
         6         2         1        10     9        0.000000        1.869479         3    ;  uncertainty k = 0.389552
         6         2         1        10     9      180.000000       -0.727265         4    ;  uncertainty k = 0.139798
         6         2         1        34     9        0.000000       -1.784485         1    ;  uncertainty k = 0.521414
         6         2         1        34     9      180.000000       -0.100756         2    ;  uncertainty k = 0.269946
         6         2         1        34     9        0.000000        1.457848         3    ;  uncertainty k = 0.236776
         6         2         1        34     9      180.000000       -0.196225         4    ;  uncertainty k = 0.165688
         6         2         1        35     9        0.000000       -1.784485         1    ;  uncertainty k = 0.521414
         6         2         1        35     9      180.000000       -0.100756         2    ;  uncertainty k = 0.269946
         6         2         1        35     9        0.000000        1.457848         3    ;  uncertainty k = 0.236776
         6         2         1        35     9      180.000000       -0.196225         4    ;  uncertainty k = 0.165688
         6         3         4        10     9        0.000000       -0.987582         1    ;  uncertainty k = 1.101439
         6         3         4        10     9      180.000000       -3.903899         2    ;  uncertainty k = 0.673250
         6         3         4        10     9        0.000000        1.869479         3    ;  uncertainty k = 0.389552
         6         3         4        10     9      180.000000       -0.727265         4    ;  uncertainty k = 0.139798
         6         3         4        40     9        0.000000       -1.784485         1    ;  uncertainty k = 0.521414
         6         3         4        40     9      180.000000       -0.100756         2    ;  uncertainty k = 0.269946
         6         3         4        40     9        0.000000        1.457848         3    ;  uncertainty k = 0.236776
         6         3         4        40     9      180.000000       -0.196225         4    ;  uncertainty k = 0.165688
         6         3         4        41     9        0.000000       -1.784485         1    ;  uncertainty k = 0.521414
         6         3         4        41     9      180.000000       -0.100756         2    ;  uncertainty k = 0.269946
         6         3         4        41     9        0.000000        1.457848         3    ;  uncertainty k = 0.236776
         6         3         4        41     9      180.000000       -0.196225         4    ;  uncertainty k = 0.165688
         7        18        12        11     9        0.000000        0.263157         1    ;  uncertainty k = 0.568076
         7        18        12        11     9      180.000000       13.385768         2    ;  uncertainty k = 0.338840
         7        18        12        11     9        0.000000        1.597292         3    ;  uncertainty k = 0.167323
         7        18        12        11     9      180.000000        1.142155         4    ;  uncertainty k = 0.254707
         7        18        12        32     9        0.000000        0.148025         1    ;  uncertainty k = 0.666280
         7        18        12        32     9      180.000000       10.900987         2    ;  uncertainty k = 0.636509
         7        18        12        32     9        0.000000        1.595801         3    ;  uncertainty k = 0.454007
         7        18        12        32     9      180.000000        1.210891         4    ;  uncertainty k = 0.071881
         7        18        23        19     9        0.000000        2.940826         1    ;  uncertainty k = 2.001448
         7        18        23        19     9      180.000000        3.099417         2    ;  uncertainty k = 0.212754
         7        18        23        19     9        0.000000        1.816167         3    ;  uncertainty k = 0.367228
         7        18        23        19     9      180.000000        0.164796         4    ;  uncertainty k = 0.208474
         7        26        16        11     9        0.000000        0.582686         1    ;  uncertainty k = 1.905140
         7        26        16        11     9      180.000000        4.290492         2    ;  uncertainty k = 0.923104
         7        26        16        11     9        0.000000        0.425316         3    ;  uncertainty k = 0.390665
         7        26        16        11     9      180.000000        0.111045         4    ;  uncertainty k = 0.101843
         7        26        16        27     9        0.000000        0.151765         1    ;  uncertainty k = 1.612860
         7        26        16        27     9      180.000000        7.501872         2    ;  uncertainty k = 0.473818
         7        26        16        27     9        0.000000        1.038852         3    ;  uncertainty k = 0.481229
         7        26        16        27     9      180.000000       -0.198255         4    ;  uncertainty k = 0.245813
         7        26        20        43     9        0.000000       -0.144354         1    ;  uncertainty k = 0.327433
         7        26        20        43     9      180.000000        1.329392         2    ;  uncertainty k = 0.408422
         7        26        20        43     9        0.000000        0.392489         3    ;  uncertainty k = 0.146374
         7        26        20        43     9      180.000000        0.589255         4    ;  uncertainty k = 0.054666
         7        26        20        44     9        0.000000       -0.144354         1    ;  uncertainty k = 0.327433
         7        26        20        44     9      180.000000        1.329392         2    ;  uncertainty k = 0.408422
         7        26        20        44     9        0.000000        0.392489         3    ;  uncertainty k = 0.146374
         7        26        20        44     9      180.000000        0.589255         4    ;  uncertainty k = 0.054666
         7        26        20        46     9        0.000000        0.561232         1    ;  uncertainty k = 0.744388
         7        26        20        46     9      180.000000        0.299293         2    ;  uncertainty k = 0.219642
         7        26        20        46     9        0.000000        0.481401         3    ;  uncertainty k = 0.159272
         7        26        20        46     9      180.000000        0.186048         4    ;  uncertainty k = 0.090797
         8         5        13        14     9        0.000000       -0.049959         1    ;  uncertainty k = 0.238365
         8         5        13        14     9      180.000000        8.709297         2    ;  uncertainty k = 0.507640
         8         5        13        14     9        0.000000       -0.103094         3    ;  uncertainty k = 0.454333
         8         5        13        14     9      180.000000        1.263124         4    ;  uncertainty k = 0.287252
         8         5        13        22     9        0.000000        0.023050         1    ;  uncertainty k = 0.157478
         8         5        13        22     9      180.000000       12.231401         2    ;  uncertainty k = 0.567990
         8         5        13        22     9        0.000000        1.527926         3    ;  uncertainty k = 0.329456
         8         5        13        22     9      180.000000        1.522411         4    ;  uncertainty k = 0.258192
         8        19        15        14     9        0.000000        0.015776         1    ;  uncertainty k = 0.049644
         8        19        15        14     9      180.000000        9.130352         2    ;  uncertainty k = 0.496855
         8        19        15        14     9        0.000000        0.154802         3    ;  uncertainty k = 0.380221
         8        19        15        14     9      180.000000        1.321067         4    ;  uncertainty k = 0.368043
         8        19        15        30     9        0.000000        0.146476         1    ;  uncertainty k = 0.242432
         8        19        15        30     9      180.000000        6.097361         2    ;  uncertainty k = 0.718867
         8        19        15        30     9        0.000000        1.323120         3    ;  uncertainty k = 0.435541
         8        19        15        30     9      180.000000        1.565701         4    ;  uncertainty k = 0.129358
         8        19        23        18     9        0.000000        3.642353         1    ;  uncertainty k = 0.787116
         8        19        23        18     9      180.000000        2.947557         2    ;  uncertainty k = 0.362365
         8        19        23        18     9        0.000000        0.855606         3    ;  uncertainty k = 0.229484
         8        19        23        18     9      180.000000        0.047733         4    ;  uncertainty k = 0.192573
         9        24        17        11     9        0.000000       -0.072405         1    ;  uncertainty k = 0.770218
         9        24        17        11     9      180.000000       17.273604         2    ;  uncertainty k = 0.605279
         9        24        17        11     9        0.000000       -0.496287         3    ;  uncertainty k = 0.676757
         9        24        17        11     9      180.000000        1.602076         4    ;  uncertainty k = 0.596362
         9        24        17        33     9        0.000000        0.074308         1    ;  uncertainty k = 0.978395
         9        24        17        33     9      180.000000       17.919801         2    ;  uncertainty k = 0.668021
         9        24        17        33     9        0.000000        1.366389         3    ;  uncertainty k = 0.782182
         9        24        17        33     9      180.000000        1.132681         4    ;  uncertainty k = 0.479665
         9        27        16        11     9        0.000000        0.206836         1    ;  uncertainty k = 0.757038
         9        27        16        11     9      180.000000       13.079703         2    ;  uncertainty k = 0.644824
         9        27        16        11     9        0.000000        0.223497         3    ;  uncertainty k = 0.881603
         9        27        16        11     9      180.000000        0.992035         4    ;  uncertainty k = 0.388776
         9        27        16        26     9        0.000000        0.449177         1    ;  uncertainty k = 0.576842
         9        27        16        26     9      180.000000       16.228950         2    ;  uncertainty k = 0.969145
         9        27        16        26     9        0.000000        1.846466         3    ;  uncertainty k = 0.316561
         9        27        16        26     9      180.000000        1.099340         4    ;  uncertainty k = 0.436177
         9        28        10        42     9        0.000000       -0.140403         1    ;  uncertainty k = 0.458987
         9        28        10        42     9      180.000000       -0.299246         2    ;  uncertainty k = 0.132432
         9        28        10        42     9        0.000000        0.051471         3    ;  uncertainty k = 0.152476
         9        28        10        42     9      180.000000        0.288509         4    ;  uncertainty k = 0.067555
        10         1         2        36     9        0.000000        3.577617         1    ;  uncertainty k = 1.073611
        10         1         2        36     9      180.000000       -2.876486         2    ;  uncertainty k = 0.518010
        10         1         2        36     9        0.000000       -0.152945         3    ;  uncertainty k = 0.197941
        10         1         2        36     9      180.000000        0.397574         4    ;  uncertainty k = 0.144225
        10         1         2        37     9        0.000000        3.577617         1    ;  uncertainty k = 1.073611
        10         1         2        37     9      180.000000       -2.876486         2    ;  uncertainty k = 0.518010
        10         1         2        37     9        0.000000       -0.152945         3    ;  uncertainty k = 0.197941
        10         1         2        37     9      180.000000        0.397574         4    ;  uncertainty k = 0.144225
        10         4         3        38     9        0.000000        3.577617         1    ;  uncertainty k = 1.073611
        10         4         3        38     9      180.000000       -2.876486         2    ;  uncertainty k = 0.518010
        10         4         3        38     9        0.000000       -0.152945         3    ;  uncertainty k = 0.197941
        10         4         3        38     9      180.000000        0.397574         4    ;  uncertainty k = 0.144225
        10         4         3        39     9        0.000000        3.577617         1    ;  uncertainty k = 1.073611
        10         4         3        39     9      180.000000       -2.876486         2    ;  uncertainty k = 0.518010
        10         4         3        39     9        0.000000       -0.152945         3    ;  uncertainty k = 0.197941
        10         4         3        39     9      180.000000        0.397574         4    ;  uncertainty k = 0.144225
        10        28         9        24     9        0.000000        9.093945         1    ;  uncertainty k = 0.673524
        10        28         9        24     9      180.000000       11.328686         2    ;  uncertainty k = 0.246478
        10        28         9        24     9        0.000000        1.388656         3    ;  uncertainty k = 0.179740
        10        28         9        24     9      180.000000       -0.343204         4    ;  uncertainty k = 0.041612
        10        28         9        27     9        0.000000       10.053080         1    ;  uncertainty k = 0.709062
        10        28         9        27     9      180.000000       11.500084         2    ;  uncertainty k = 0.166059
        10        28         9        27     9        0.000000        1.262159         3    ;  uncertainty k = 0.211791
        10        28         9        27     9      180.000000       -0.379702         4    ;  uncertainty k = 0.058109
        11        12        18        23     9        0.000000        0.134730         1    ;  uncertainty k = 0.315884
        11        12        18        23     9      180.000000       21.248794         2    ;  uncertainty k = 0.621963
        11        12        18        23     9        0.000000        2.038760         3    ;  uncertainty k = 0.327390
        11        12        18        23     9      180.000000        0.645045         4    ;  uncertainty k = 0.556736
        11        16        26        20     9        0.000000        2.869296         1    ;  uncertainty k = 1.232259
        11        16        26        20     9      180.000000        9.127261         2    ;  uncertainty k = 0.534866
        11        16        26        20     9        0.000000        0.925891         3    ;  uncertainty k = 0.742639
        11        16        26        20     9      180.000000       -0.136617         4    ;  uncertainty k = 0.459746
        12        11        16        26     9        0.000000       -0.061026         1    ;  uncertainty k = 0.298249
        12        11        16        26     9      180.000000        7.792390         2    ;  uncertainty k = 0.565464
        12        11        16        26     9        0.000000        0.331727         3    ;  uncertainty k = 0.505996
        12        11        16        26     9      180.000000        1.043754         4    ;  uncertainty k = 0.228330
        12        11        16        27     9        0.000000        0.255679         1    ;  uncertainty k = 0.912992
        12        11        16        27     9      180.000000        8.202740         2    ;  uncertainty k = 1.408425
        12        11        16        27     9        0.000000        0.032279         3    ;  uncertainty k = 0.299104
        12        11        16        27     9      180.000000        1.268900         4    ;  uncertainty k = 0.550347
        12        11        17        24     9        0.000000        0.202355         1    ;  uncertainty k = 0.365865
        12        11        17        24     9      180.000000       10.740474         2    ;  uncertainty k = 0.604175
        12        11        17        24     9        0.000000        0.288303         3    ;  uncertainty k = 0.238852
        12        11        17        24     9      180.000000        1.228552         4    ;  uncertainty k = 0.359252
        12        11        17        33     9        0.000000       -0.447713         1    ;  uncertainty k = 0.564177
        12        11        17        33     9      180.000000        5.951853         2    ;  uncertainty k = 0.610297
        12        11        17        33     9        0.000000        0.824680         3    ;  uncertainty k = 0.261455
        12        11        17        33     9      180.000000        0.694799         4    ;  uncertainty k = 0.185376
        12        18         7        25     9        0.000000       -2.871434         1    ;  uncertainty k = 1.053630
        12        18         7        25     9      180.000000        2.852382         2    ;  uncertainty k = 0.891837
        12        18         7        25     9        0.000000       -0.171050         3    ;  uncertainty k = 0.438167
        12        18         7        25     9      180.000000       -0.015609         4    ;  uncertainty k = 0.192726
        12        18         7        26     9        0.000000        2.173640         1    ;  uncertainty k = 2.261281
        12        18         7        26     9      180.000000        0.592157         2    ;  uncertainty k = 0.808165
        12        18         7        26     9        0.000000        0.449720         3    ;  uncertainty k = 0.385589
        12        18         7        26     9      180.000000        0.365393         4    ;  uncertainty k = 0.177090
        12        18        23        19     9        0.000000        6.025205         1    ;  uncertainty k = 1.077323
        12        18        23        19     9      180.000000        6.312810         2    ;  uncertainty k = 0.149857
        12        18        23        19     9        0.000000       -0.841516         3    ;  uncertainty k = 0.374149
        12        18        23        19     9      180.000000        0.115728         4    ;  uncertainty k = 0.111332
        13         5         8        19     9        0.000000       -0.028157         1    ;  uncertainty k = 0.164194
        13         5         8        19     9      180.000000        8.671004         2    ;  uncertainty k = 0.512359
        13         5         8        19     9        0.000000        0.207433         3    ;  uncertainty k = 0.509188
        13         5         8        19     9      180.000000        1.302601         4    ;  uncertainty k = 0.281851
        13         5         8        21     9        0.000000       -0.002392         1    ;  uncertainty k = 0.247129
        13         5         8        21     9      180.000000       13.084887         2    ;  uncertainty k = 0.509633
        13         5         8        21     9        0.000000        1.474366         3    ;  uncertainty k = 0.306558
        13         5         8        21     9      180.000000        1.520558         4    ;  uncertainty k = 0.243651
        13        14        15        19     9        0.000000       -0.113542         1    ;  uncertainty k = 0.211768
        13        14        15        19     9      180.000000       13.972594         2    ;  uncertainty k = 0.306737
        13        14        15        19     9        0.000000       -0.786444         3    ;  uncertainty k = 0.554355
        13        14        15        19     9      180.000000        0.930464         4    ;  uncertainty k = 0.288428
        13        14        15        30     9        0.000000       -0.003440         1    ;  uncertainty k = 0.095641
        13        14        15        30     9      180.000000        7.538138         2    ;  uncertainty k = 0.273713
        13        14        15        30     9        0.000000        1.412643         3    ;  uncertainty k = 0.270752
        13        14        15        30     9      180.000000        1.740927         4    ;  uncertainty k = 0.123790
        14        13         5        31     9        0.000000        0.138635         1    ;  uncertainty k = 0.151239
        14        13         5        31     9      180.000000        5.451074         2    ;  uncertainty k = 0.660632
        14        13         5        31     9        0.000000        1.286115         3    ;  uncertainty k = 0.294094
        14        13         5        31     9      180.000000        1.480963         4    ;  uncertainty k = 0.179055
        14        15        19        23     9        0.000000       -0.064057         1    ;  uncertainty k = 0.392115
        14        15        19        23     9      180.000000       11.007024         2    ;  uncertainty k = 0.446783
        14        15        19        23     9        0.000000        1.358780         3    ;  uncertainty k = 0.241783
        14        15        19        23     9      180.000000        1.735948         4    ;  uncertainty k = 0.120659
        15        14        13        22     9        0.000000       -0.032001         1    ;  uncertainty k = 0.254449
        15        14        13        22     9      180.000000       12.251927         2    ;  uncertainty k = 0.522356
        15        14        13        22     9        0.000000        1.414423         3    ;  uncertainty k = 0.230243
        15        14        13        22     9      180.000000        1.530094         4    ;  uncertainty k = 0.209632
        15        19         8        21     9        0.000000        0.257162         1    ;  uncertainty k = 0.251999
        15        19         8        21     9      180.000000        8.387430         2    ;  uncertainty k = 0.311300
        15        19         8        21     9        0.000000        1.426919         3    ;  uncertainty k = 0.223314
        15        19         8        21     9      180.000000        1.675064         4    ;  uncertainty k = 0.138706
        15        19        23        18     9        0.000000        4.636374         1    ;  uncertainty k = 1.026403
        15        19        23        18     9      180.000000        3.974903         2    ;  uncertainty k = 0.166263
        15        19        23        18     9        0.000000        0.382780         3    ;  uncertainty k = 0.329302
        15        19        23        18     9      180.000000        0.118990         4    ;  uncertainty k = 0.075799
        16        11        12        18     9        0.000000       -0.083865         1    ;  uncertainty k = 1.077221
        16        11        12        18     9      180.000000        6.543739         2    ;  uncertainty k = 0.931272
        16        11        12        18     9        0.000000        0.232490         3    ;  uncertainty k = 0.420078
        16        11        12        18     9      180.000000        0.555177         4    ;  uncertainty k = 0.193723
        16        11        12        32     9        0.000000        0.582714         1    ;  uncertainty k = 1.117842
        16        11        12        32     9      180.000000        6.241107         2    ;  uncertainty k = 0.593057
        16        11        12        32     9        0.000000        1.063977         3    ;  uncertainty k = 0.293321
        16        11        12        32     9      180.000000        0.208339         4    ;  uncertainty k = 0.176711
        16        11        17        24     9        0.000000       -0.007257         1    ;  uncertainty k = 0.583639
        16        11        17        24     9      180.000000       12.056316         2    ;  uncertainty k = 0.420497
        16        11        17        24     9        0.000000       -0.973939         3    ;  uncertainty k = 0.839584
        16        11        17        24     9      180.000000        0.798825         4    ;  uncertainty k = 0.154596
        16        11        17        33     9        0.000000       -0.166224         1    ;  uncertainty k = 0.859657
        16        11        17        33     9      180.000000        6.481218         2    ;  uncertainty k = 0.804252
        16        11        17        33     9        0.000000        0.646477         3    ;  uncertainty k = 0.086345
        16        11        17        33     9      180.000000        0.770778         4    ;  uncertainty k = 0.240188
        16        26         7        18     9        0.000000        1.894828         1    ;  uncertainty k = 1.962087
        16        26         7        18     9      180.000000        2.330125         2    ;  uncertainty k = 1.122260
        16        26         7        18     9        0.000000        1.005506         3    ;  uncertainty k = 0.307569
        16        26         7        18     9      180.000000        0.467032         4    ;  uncertainty k = 0.249272
        16        26         7        25     9        0.000000        2.719794         1    ;  uncertainty k = 2.430652
        16        26         7        25     9      180.000000       13.880714         2    ;  uncertainty k = 0.677272
        16        26         7        25     9        0.000000        0.916921         3    ;  uncertainty k = 0.075309
        16        26         7        25     9      180.000000       -0.449335         4    ;  uncertainty k = 0.498637
        16        26        20        43     9        0.000000       -0.016213         1    ;  uncertainty k = 0.413109
        16        26        20        43     9      180.000000        1.395586         2    ;  uncertainty k = 0.576520
        16        26        20        43     9        0.000000        0.062572         3    ;  uncertainty k = 0.311327
        16        26        20        43     9      180.000000        0.537093         4    ;  uncertainty k = 0.094649
        16        26        20        44     9        0.000000       -0.016213         1    ;  uncertainty k = 0.413109
        16        26        20        44     9      180.000000        1.395586         2    ;  uncertainty k = 0.576520
        16        26        20        44     9        0.000000        0.062572         3    ;  uncertainty k = 0.311327
        16        26        20        44     9      180.000000        0.537093         4    ;  uncertainty k = 0.094649
        16        26        20        46     9        0.000000       -0.547199         1    ;  uncertainty k = 0.543754
        16        26        20        46     9      180.000000        0.447998         2    ;  uncertainty k = 0.430570
        16        26        20        46     9        0.000000        0.406814         3    ;  uncertainty k = 0.188759
        16        26        20        46     9      180.000000        0.182921         4    ;  uncertainty k = 0.137092
        16        27         9        24     9        0.000000       -0.056925         1    ;  uncertainty k = 1.683199
        16        27         9        24     9      180.000000        6.600648         2    ;  uncertainty k = 0.846480
        16        27         9        24     9        0.000000        1.221188         3    ;  uncertainty k = 0.650110
        16        27         9        24     9      180.000000        0.769631         4    ;  uncertainty k = 0.321468
        16        27         9        28     9        0.000000        0.578174         1    ;  uncertainty k = 1.758459
        16        27         9        28     9      180.000000        9.052479         2    ;  uncertainty k = 0.725559
        16        27         9        28     9        0.000000        1.969620         3    ;  uncertainty k = 0.443338
        16        27         9        28     9      180.000000        0.874328         4    ;  uncertainty k = 0.277600
        17        11        12        18     9        0.000000        0.149037         1    ;  uncertainty k = 0.521768
        17        11        12        18     9      180.000000        5.253418         2    ;  uncertainty k = 1.039572
        17        11        12        18     9        0.000000        0.967220         3    ;  uncertainty k = 0.321451
        17        11        12        18     9      180.000000        0.400959         4    ;  uncertainty k = 0.240347
        17        11        12        32     9        0.000000        0.400693         1    ;  uncertainty k = 1.028720
        17        11        12        32     9      180.000000        5.374925         2    ;  uncertainty k = 0.259194
        17        11        12        32     9        0.000000        0.934403         3    ;  uncertainty k = 0.325657
        17        11        12        32     9      180.000000        0.077419         4    ;  uncertainty k = 0.144185
        17        11        16        26     9        0.000000       -0.670716         1    ;  uncertainty k = 0.618864
        17        11        16        26     9      180.000000        6.096505         2    ;  uncertainty k = 0.852615
        17        11        16        26     9        0.000000        0.128301         3    ;  uncertainty k = 0.298528
        17        11        16        26     9      180.000000        0.988967         4    ;  uncertainty k = 0.303982
        17        11        16        27     9        0.000000        0.041504         1    ;  uncertainty k = 0.424962
        17        11        16        27     9      180.000000        7.624419         2    ;  uncertainty k = 0.935218
        17        11        16        27     9        0.000000       -0.314339         3    ;  uncertainty k = 0.313423
        17        11        16        27     9      180.000000        1.203124         4    ;  uncertainty k = 0.581718
        17        24         9        27     9        0.000000        0.075359         1    ;  uncertainty k = 0.882870
        17        24         9        27     9      180.000000        6.538165         2    ;  uncertainty k = 1.384737
        17        24         9        27     9        0.000000        0.800451         3    ;  uncertainty k = 0.544209
        17        24         9        27     9      180.000000        0.515895         4    ;  uncertainty k = 0.219888
        17        24         9        28     9        0.000000        0.345932         1    ;  uncertainty k = 0.780093
        17        24         9        28     9      180.000000        7.807499         2    ;  uncertainty k = 0.530631
        17        24         9        28     9        0.000000        1.834583         3    ;  uncertainty k = 0.693167
        17        24         9        28     9      180.000000        0.637104         4    ;  uncertainty k = 0.276027
        18         7        26        20     9        0.000000        1.785298         1    ;  uncertainty k = 0.871632
        18         7        26        20     9      180.000000        7.987907         2    ;  uncertainty k = 0.695511
        18         7        26        20     9        0.000000        1.439455         3    ;  uncertainty k = 0.121830
        18         7        26        20     9      180.000000       -0.195735         4    ;  uncertainty k = 0.314235
        19         8         5        31     9        0.000000        0.057379         1    ;  uncertainty k = 0.165911
        19         8         5        31     9      180.000000        5.716951         2    ;  uncertainty k = 0.832327
        19         8         5        31     9        0.000000        1.299980         3    ;  uncertainty k = 0.327602
        19         8         5        31     9      180.000000        1.492424         4    ;  uncertainty k = 0.176810
        19        15        14        29     9        0.000000        0.076709         1    ;  uncertainty k = 0.186984
        19        15        14        29     9      180.000000        7.523892         2    ;  uncertainty k = 0.356925
        19        15        14        29     9        0.000000        1.389232         3    ;  uncertainty k = 0.254789
        19        15        14        29     9      180.000000        1.744370         4    ;  uncertainty k = 0.166848
        20        26         7        25     9        0.000000        1.881301         1    ;  uncertainty k = 1.362219
        20        26         7        25     9      180.000000       14.215171         2    ;  uncertainty k = 0.283829
        20        26         7        25     9        0.000000        0.237273         3    ;  uncertainty k = 0.381570
        20        26         7        25     9      180.000000       -0.209823         4    ;  uncertainty k = 0.331895
        20        26        16        27     9        0.000000        2.261598         1    ;  uncertainty k = 1.965084
        20        26        16        27     9      180.000000       10.807127         2    ;  uncertainty k = 0.816632
        20        26        16        27     9        0.000000        1.060091         3    ;  uncertainty k = 0.135747
        20        26        16        27     9      180.000000       -0.064755         4    ;  uncertainty k = 0.447718
        20        46        49        50     9        0.000000       -1.654978         1    ;  uncertainty k = 0.498097
        20        46        49        50     9      180.000000       -0.420153         2    ;  uncertainty k = 0.337581
        20        46        49        50     9        0.000000        0.885107         3    ;  uncertainty k = 0.106496
        20        46        49        50     9      180.000000       -0.367462         4    ;  uncertainty k = 0.101847
        20        46        49        51     9        0.000000       -1.654978         1    ;  uncertainty k = 0.498097
        20        46        49        51     9      180.000000       -0.420153         2    ;  uncertainty k = 0.337581
        20        46        49        51     9        0.000000        0.885107         3    ;  uncertainty k = 0.106496
        20        46        49        51     9      180.000000       -0.367462         4    ;  uncertainty k = 0.101847
        20        46        49        52     9        0.000000       -2.140896         1    ;  uncertainty k = 1.657840
        20        46        49        52     9      180.000000       -2.649624         2    ;  uncertainty k = 0.651250
        20        46        49        52     9        0.000000        0.852267         3    ;  uncertainty k = 0.316842
        20        46        49        52     9      180.000000       -0.122402         4    ;  uncertainty k = 0.259498
        21         8         5        31     9        0.000000       -0.230980         1    ;  uncertainty k = 0.291748
        21         8         5        31     9      180.000000        9.239380         2    ;  uncertainty k = 0.341179
        21         8         5        31     9        0.000000        0.839928         3    ;  uncertainty k = 0.293710
        21         8         5        31     9      180.000000        1.043063         4    ;  uncertainty k = 0.201990
        21         8        19        23     9        0.000000       -0.105793         1    ;  uncertainty k = 0.354022
        21         8        19        23     9      180.000000       12.165824         2    ;  uncertainty k = 0.214592
        21         8        19        23     9        0.000000        1.160865         3    ;  uncertainty k = 0.370829
        21         8        19        23     9      180.000000        1.261897         4    ;  uncertainty k = 0.194088
        22        13         5        31     9        0.000000       -0.271891         1    ;  uncertainty k = 0.249928
        22        13         5        31     9      180.000000        8.500019         2    ;  uncertainty k = 0.281498
        22        13         5        31     9        0.000000        0.815708         3    ;  uncertainty k = 0.327842
        22        13         5        31     9      180.000000        0.992978         4    ;  uncertainty k = 0.194491
        22        13        14        29     9        0.000000       -0.357248         1    ;  uncertainty k = 0.222188
        22        13        14        29     9      180.000000        8.920407         2    ;  uncertainty k = 0.265967
        22        13        14        29     9        0.000000        0.818892         3    ;  uncertainty k = 0.249596
        22        13        14        29     9      180.000000        0.905586         4    ;  uncertainty k = 0.175017
        23        18         7        25     9        0.000000       -2.066607         1    ;  uncertainty k = 1.547621
        23        18         7        25     9      180.000000        9.723312         2    ;  uncertainty k = 0.527987
        23        18         7        25     9        0.000000        0.229305         3    ;  uncertainty k = 0.536029
        23        18         7        25     9      180.000000       -0.358495         4    ;  uncertainty k = 0.458003
        23        18         7        26     9        0.000000        1.656154         1    ;  uncertainty k = 1.305288
        23        18         7        26     9      180.000000        3.396104         2    ;  uncertainty k = 0.842503
        23        18         7        26     9        0.000000        0.697115         3    ;  uncertainty k = 0.398616
        23        18         7        26     9      180.000000        0.568177         4    ;  uncertainty k = 0.126325
        23        18        12        32     9        0.000000        0.183029         1    ;  uncertainty k = 0.788563
        23        18        12        32     9      180.000000       16.374971         2    ;  uncertainty k = 0.464729
        23        18        12        32     9        0.000000        1.923257         3    ;  uncertainty k = 0.064543
        23        18        12        32     9      180.000000        0.964566         4    ;  uncertainty k = 0.594975
        23        19        15        30     9        0.000000       -0.025816         1    ;  uncertainty k = 0.162969
        23        19        15        30     9      180.000000        8.757822         2    ;  uncertainty k = 0.242306
        23        19        15        30     9        0.000000        0.878698         3    ;  uncertainty k = 0.265252
        23        19        15        30     9      180.000000        1.203360         4    ;  uncertainty k = 0.152721
        24         9        28        45     9        0.000000       10.289718         1    ;  uncertainty k = 0.671473
        24         9        28        45     9      180.000000        9.708731         2    ;  uncertainty k = 0.263556
        24         9        28        45     9        0.000000        1.249260         3    ;  uncertainty k = 0.563999
        24         9        28        45     9      180.000000       -0.441153         4    ;  uncertainty k = 0.253050
        26        20        46        47     9        0.000000        1.416200         1    ;  uncertainty k = 0.774434
        26        20        46        47     9      180.000000       -3.099536         2    ;  uncertainty k = 0.585927
        26        20        46        47     9        0.000000        1.017194         3    ;  uncertainty k = 0.080234
        26        20        46        47     9      180.000000       -0.098193         4    ;  uncertainty k = 0.086152
        26        20        46        48     9        0.000000        1.416200         1    ;  uncertainty k = 0.774434
        26        20        46        48     9      180.000000       -3.099536         2    ;  uncertainty k = 0.585927
        26        20        46        48     9        0.000000        1.017194         3    ;  uncertainty k = 0.080234
        26        20        46        48     9      180.000000       -0.098193         4    ;  uncertainty k = 0.086152
        26        20        46        49     9        0.000000       -1.875502         1    ;  uncertainty k = 1.186604
        26        20        46        49     9      180.000000       -1.841349         2    ;  uncertainty k = 0.521063
        26        20        46        49     9        0.000000        1.460213         3    ;  uncertainty k = 0.246294
        26        20        46        49     9      180.000000       -0.355459         4    ;  uncertainty k = 0.106840
        27         9        28        45     9        0.000000       12.429669         1    ;  uncertainty k = 0.674967
        27         9        28        45     9      180.000000       10.330289         2    ;  uncertainty k = 0.421477
        27         9        28        45     9        0.000000        1.229435         3    ;  uncertainty k = 0.554087
        27         9        28        45     9      180.000000       -0.548151         4    ;  uncertainty k = 0.181940
        28        10         1        34     9        0.000000       -0.664477         1    ;  uncertainty k = 0.439753
        28        10         1        34     9      180.000000       -0.719545         2    ;  uncertainty k = 0.206247
        28        10         1        34     9        0.000000        1.110830         3    ;  uncertainty k = 0.090613
        28        10         1        34     9      180.000000       -0.312617         4    ;  uncertainty k = 0.084156
        28        10         1        35     9        0.000000       -0.664477         1    ;  uncertainty k = 0.439753
        28        10         1        35     9      180.000000       -0.719545         2    ;  uncertainty k = 0.206247
        28        10         1        35     9        0.000000        1.110830         3    ;  uncertainty k = 0.090613
        28        10         1        35     9      180.000000       -0.312617         4    ;  uncertainty k = 0.084156
        28        10         4        40     9        0.000000       -0.664477         1    ;  uncertainty k = 0.439753
        28        10         4        40     9      180.000000       -0.719545         2    ;  uncertainty k = 0.206247
        28        10         4        40     9        0.000000        1.110830         3    ;  uncertainty k = 0.090613
        28        10         4        40     9      180.000000       -0.312617         4    ;  uncertainty k = 0.084156
        28        10         4        41     9        0.000000       -0.664477         1    ;  uncertainty k = 0.439753
        28        10         4        41     9      180.000000       -0.719545         2    ;  uncertainty k = 0.206247
        28        10         4        41     9        0.000000        1.110830         3    ;  uncertainty k = 0.090613
        28        10         4        41     9      180.000000       -0.312617         4    ;  uncertainty k = 0.084156
        29        14        15        30     9        0.000000        0.032265         1    ;  uncertainty k = 0.250069
        29        14        15        30     9      180.000000        7.287468         2    ;  uncertainty k = 0.427630
        29        14        15        30     9        0.000000       -0.295849         3    ;  uncertainty k = 0.226115
        29        14        15        30     9      180.000000        0.117549         4    ;  uncertainty k = 0.137082
        34         1         2        36     9        0.000000       -0.225271         1    ;  uncertainty k = 0.371621
        34         1         2        36     9      180.000000        0.719911         2    ;  uncertainty k = 0.314572
        34         1         2        36     9        0.000000        0.112053         3    ;  uncertainty k = 0.052184
        34         1         2        36     9      180.000000       -0.321413         4    ;  uncertainty k = 0.066104
        34         1         2        37     9        0.000000       -0.225271         1    ;  uncertainty k = 0.371621
        34         1         2        37     9      180.000000        0.719911         2    ;  uncertainty k = 0.314572
        34         1         2        37     9        0.000000        0.112053         3    ;  uncertainty k = 0.052184
        34         1         2        37     9      180.000000       -0.321413         4    ;  uncertainty k = 0.066104
        34         1        10        42     9        0.000000        1.333899         1    ;  uncertainty k = 0.470364
        34         1        10        42     9      180.000000       -0.346033         2    ;  uncertainty k = 0.220492
        34         1        10        42     9        0.000000        0.040957         3    ;  uncertainty k = 0.124052
        34         1        10        42     9      180.000000        0.039296         4    ;  uncertainty k = 0.035575
        35         1         2        36     9        0.000000       -0.225271         1    ;  uncertainty k = 0.371621
        35         1         2        36     9      180.000000        0.719911         2    ;  uncertainty k = 0.314572
        35         1         2        36     9        0.000000        0.112053         3    ;  uncertainty k = 0.052184
        35         1         2        36     9      180.000000       -0.321413         4    ;  uncertainty k = 0.066104
        35         1         2        37     9        0.000000       -0.225271         1    ;  uncertainty k = 0.371621
        35         1         2        37     9      180.000000        0.719911         2    ;  uncertainty k = 0.314572
        35         1         2        37     9        0.000000        0.112053         3    ;  uncertainty k = 0.052184
        35         1         2        37     9      180.000000       -0.321413         4    ;  uncertainty k = 0.066104
        35         1        10        42     9        0.000000        1.333899         1    ;  uncertainty k = 0.470364
        35         1        10        42     9      180.000000       -0.346033         2    ;  uncertainty k = 0.220492
        35         1        10        42     9        0.000000        0.040957         3    ;  uncertainty k = 0.124052
        35         1        10        42     9      180.000000        0.039296         4    ;  uncertainty k = 0.035575
        38         3         4        40     9        0.000000       -0.225271         1    ;  uncertainty k = 0.371621
        38         3         4        40     9      180.000000        0.719911         2    ;  uncertainty k = 0.314572
        38         3         4        40     9        0.000000        0.112053         3    ;  uncertainty k = 0.052184
        38         3         4        40     9      180.000000       -0.321413         4    ;  uncertainty k = 0.066104
        38         3         4        41     9        0.000000       -0.225271         1    ;  uncertainty k = 0.371621
        38         3         4        41     9      180.000000        0.719911         2    ;  uncertainty k = 0.314572
        38         3         4        41     9        0.000000        0.112053         3    ;  uncertainty k = 0.052184
        38         3         4        41     9      180.000000       -0.321413         4    ;  uncertainty k = 0.066104
        39         3         4        40     9        0.000000       -0.225271         1    ;  uncertainty k = 0.371621
        39         3         4        40     9      180.000000        0.719911         2    ;  uncertainty k = 0.314572
        39         3         4        40     9        0.000000        0.112053         3    ;  uncertainty k = 0.052184
        39         3         4        40     9      180.000000       -0.321413         4    ;  uncertainty k = 0.066104
        39         3         4        41     9        0.000000       -0.225271         1    ;  uncertainty k = 0.371621
        39         3         4        41     9      180.000000        0.719911         2    ;  uncertainty k = 0.314572
        39         3         4        41     9        0.000000        0.112053         3    ;  uncertainty k = 0.052184
        39         3         4        41     9      180.000000       -0.321413         4    ;  uncertainty k = 0.066104
        40         4        10        42     9        0.000000        1.333899         1    ;  uncertainty k = 0.470364
        40         4        10        42     9      180.000000       -0.346033         2    ;  uncertainty k = 0.220492
        40         4        10        42     9        0.000000        0.040957         3    ;  uncertainty k = 0.124052
        40         4        10        42     9      180.000000        0.039296         4    ;  uncertainty k = 0.035575
        41         4        10        42     9        0.000000        1.333899         1    ;  uncertainty k = 0.470364
        41         4        10        42     9      180.000000       -0.346033         2    ;  uncertainty k = 0.220492
        41         4        10        42     9        0.000000        0.040957         3    ;  uncertainty k = 0.124052
        41         4        10        42     9      180.000000        0.039296         4    ;  uncertainty k = 0.035575
        42        10        28        45     9        0.000000        0.976343         1    ;  uncertainty k = 0.742026
        42        10        28        45     9      180.000000       -1.754256         2    ;  uncertainty k = 0.294903
        42        10        28        45     9        0.000000       -0.016582         3    ;  uncertainty k = 0.098589
        42        10        28        45     9      180.000000        0.124158         4    ;  uncertainty k = 0.074181
        43        20        46        47     9        0.000000        0.632104         1    ;  uncertainty k = 0.245785
        43        20        46        47     9      180.000000       -0.372476         2    ;  uncertainty k = 0.186746
        43        20        46        47     9        0.000000        0.213591         3    ;  uncertainty k = 0.046308
        43        20        46        47     9      180.000000        0.034551         4    ;  uncertainty k = 0.053852
        43        20        46        48     9        0.000000        0.632104         1    ;  uncertainty k = 0.245785
        43        20        46        48     9      180.000000       -0.372476         2    ;  uncertainty k = 0.186746
        43        20        46        48     9        0.000000        0.213591         3    ;  uncertainty k = 0.046308
        43        20        46        48     9      180.000000        0.034551         4    ;  uncertainty k = 0.053852
        43        20        46        49     9        0.000000       -1.766572         1    ;  uncertainty k = 0.545840
        43        20        46        49     9      180.000000       -0.138986         2    ;  uncertainty k = 0.154567
        43        20        46        49     9        0.000000        0.711139         3    ;  uncertainty k = 0.114025
        43        20        46        49     9      180.000000       -0.437721         4    ;  uncertainty k = 0.127212
        44        20        46        47     9        0.000000        0.632104         1    ;  uncertainty k = 0.245785
        44        20        46        47     9      180.000000       -0.372476         2    ;  uncertainty k = 0.186746
        44        20        46        47     9        0.000000        0.213591         3    ;  uncertainty k = 0.046308
        44        20        46        47     9      180.000000        0.034551         4    ;  uncertainty k = 0.053852
        44        20        46        48     9        0.000000        0.632104         1    ;  uncertainty k = 0.245785
        44        20        46        48     9      180.000000       -0.372476         2    ;  uncertainty k = 0.186746
        44        20        46        48     9        0.000000        0.213591         3    ;  uncertainty k = 0.046308
        44        20        46        48     9      180.000000        0.034551         4    ;  uncertainty k = 0.053852
        44        20        46        49     9        0.000000       -1.766572         1    ;  uncertainty k = 0.545840
        44        20        46        49     9      180.000000       -0.138986         2    ;  uncertainty k = 0.154567
        44        20        46        49     9        0.000000        0.711139         3    ;  uncertainty k = 0.114025
        44        20        46        49     9      180.000000       -0.437721         4    ;  uncertainty k = 0.127212
        46        49        52        53     9        0.000000       -3.808575         1    ;  uncertainty k = 0.812776
        46        49        52        53     9      180.000000        1.526462         2    ;  uncertainty k = 0.453244
        46        49        52        53     9        0.000000        0.706105         3    ;  uncertainty k = 0.083895
        46        49        52        53     9      180.000000       -0.187751         4    ;  uncertainty k = 0.041347
        46        49        52        54     9        0.000000       -3.808575         1    ;  uncertainty k = 0.812776
        46        49        52        54     9      180.000000        1.526462         2    ;  uncertainty k = 0.453244
        46        49        52        54     9        0.000000        0.706105         3    ;  uncertainty k = 0.083895
        46        49        52        54     9      180.000000       -0.187751         4    ;  uncertainty k = 0.041347
        46        49        52        55     9        0.000000       -3.941584         1    ;  uncertainty k = 1.026854
        46        49        52        55     9      180.000000       -0.187485         2    ;  uncertainty k = 0.545146
        46        49        52        55     9        0.000000        0.363645         3    ;  uncertainty k = 0.154988
        46        49        52        55     9      180.000000       -0.143902         4    ;  uncertainty k = 0.102278
        47        46        49        50     9        0.000000        0.579428         1    ;  uncertainty k = 0.150392
        47        46        49        50     9      180.000000       -0.430657         2    ;  uncertainty k = 0.256480
        47        46        49        50     9        0.000000        0.300790         3    ;  uncertainty k = 0.077477
        47        46        49        50     9      180.000000        0.032425         4    ;  uncertainty k = 0.091716
        47        46        49        51     9        0.000000        0.579428         1    ;  uncertainty k = 0.150392
        47        46        49        51     9      180.000000       -0.430657         2    ;  uncertainty k = 0.256480
        47        46        49        51     9        0.000000        0.300790         3    ;  uncertainty k = 0.077477
        47        46        49        51     9      180.000000        0.032425         4    ;  uncertainty k = 0.091716
        47        46        49        52     9        0.000000        2.460455         1    ;  uncertainty k = 0.293483
        47        46        49        52     9      180.000000       -2.438536         2    ;  uncertainty k = 0.351376
        47        46        49        52     9        0.000000        0.471149         3    ;  uncertainty k = 0.038319
        47        46        49        52     9      180.000000       -0.185852         4    ;  uncertainty k = 0.185136
        48        46        49        50     9        0.000000        0.579428         1    ;  uncertainty k = 0.150392
        48        46        49        50     9      180.000000       -0.430657         2    ;  uncertainty k = 0.256480
        48        46        49        50     9        0.000000        0.300790         3    ;  uncertainty k = 0.077477
        48        46        49        50     9      180.000000        0.032425         4    ;  uncertainty k = 0.091716
        48        46        49        51     9        0.000000        0.579428         1    ;  uncertainty k = 0.150392
        48        46        49        51     9      180.000000       -0.430657         2    ;  uncertainty k = 0.256480
        48        46        49        51     9        0.000000        0.300790         3    ;  uncertainty k = 0.077477
        48        46        49        51     9      180.000000        0.032425         4    ;  uncertainty k = 0.091716
        48        46        49        52     9        0.000000        2.460455         1    ;  uncertainty k = 0.293483
        48        46        49        52     9      180.000000       -2.438536         2    ;  uncertainty k = 0.351376
        48        46        49        52     9        0.000000        0.471149         3    ;  uncertainty k = 0.038319
        48        46        49        52     9      180.000000       -0.185852         4    ;  uncertainty k = 0.185136
        49        52        55        56     9        0.000000        0.726173         1    ;  uncertainty k = 0.271334
        49        52        55        56     9      180.000000       -2.264282         2    ;  uncertainty k = 0.319293
        49        52        55        56     9        0.000000        0.171486         3    ;  uncertainty k = 0.097973
        49        52        55        56     9      180.000000       -0.160411         4    ;  uncertainty k = 0.179351
        49        52        55        57     9        0.000000        0.726173         1    ;  uncertainty k = 0.271335
        49        52        55        57     9      180.000000       -2.264282         2    ;  uncertainty k = 0.319293
        49        52        55        57     9        0.000000        0.171486         3    ;  uncertainty k = 0.097973
        49        52        55        57     9      180.000000       -0.160410         4    ;  uncertainty k = 0.179351
        49        52        55        58     9        0.000000        0.726173         1    ;  uncertainty k = 0.271335
        49        52        55        58     9      180.000000       -2.264282         2    ;  uncertainty k = 0.319293
        49        52        55        58     9        0.000000        0.171486         3    ;  uncertainty k = 0.097973
        49        52        55        58     9      180.000000       -0.160410         4    ;  uncertainty k = 0.179351
        50        49        52        53     9        0.000000        0.497294         1    ;  uncertainty k = 0.296546
        50        49        52        53     9      180.000000       -0.119365         2    ;  uncertainty k = 0.407677
        50        49        52        53     9        0.000000        0.431677         3    ;  uncertainty k = 0.049021
        50        49        52        53     9      180.000000        0.164023         4    ;  uncertainty k = 0.054924
        50        49        52        54     9        0.000000        0.497294         1    ;  uncertainty k = 0.296546
        50        49        52        54     9      180.000000       -0.119365         2    ;  uncertainty k = 0.407677
        50        49        52        54     9        0.000000        0.431677         3    ;  uncertainty k = 0.049021
        50        49        52        54     9      180.000000        0.164023         4    ;  uncertainty k = 0.054924
        50        49        52        55     9        0.000000        1.041235         1    ;  uncertainty k = 0.271340
        50        49        52        55     9      180.000000       -2.050615         2    ;  uncertainty k = 0.307678
        50        49        52        55     9        0.000000        0.102980         3    ;  uncertainty k = 0.136169
        50        49        52        55     9      180.000000       -0.068162         4    ;  uncertainty k = 0.057250
        51        49        52        53     9        0.000000        0.497294         1    ;  uncertainty k = 0.296546
        51        49        52        53     9      180.000000       -0.119365         2    ;  uncertainty k = 0.407677
        51        49        52        53     9        0.000000        0.431677         3    ;  uncertainty k = 0.049021
        51        49        52        53     9      180.000000        0.164023         4    ;  uncertainty k = 0.054924
        51        49        52        54     9        0.000000        0.497294         1    ;  uncertainty k = 0.296546
        51        49        52        54     9      180.000000       -0.119365         2    ;  uncertainty k = 0.407677
        51        49        52        54     9        0.000000        0.431677         3    ;  uncertainty k = 0.049021
        51        49        52        54     9      180.000000        0.164023         4    ;  uncertainty k = 0.054924
        51        49        52        55     9        0.000000        1.041235         1    ;  uncertainty k = 0.271340
        51        49        52        55     9      180.000000       -2.050615         2    ;  uncertainty k = 0.307678
        51        49        52        55     9        0.000000        0.102980         3    ;  uncertainty k = 0.136169
        51        49        52        55     9      180.000000       -0.068162         4    ;  uncertainty k = 0.057250
        53        52        55        56     9        0.000000       -0.091235         1    ;  uncertainty k = 0.689488
        53        52        55        56     9      180.000000       -0.372033         2    ;  uncertainty k = 0.432813
        53        52        55        56     9        0.000000        0.728217         3    ;  uncertainty k = 0.086314
        53        52        55        56     9      180.000000        0.094520         4    ;  uncertainty k = 0.073950
        53        52        55        57     9        0.000000       -0.091235         1    ;  uncertainty k = 0.689488
        53        52        55        57     9      180.000000       -0.372033         2    ;  uncertainty k = 0.432813
        53        52        55        57     9        0.000000        0.728217         3    ;  uncertainty k = 0.086314
        53        52        55        57     9      180.000000        0.094520         4    ;  uncertainty k = 0.073950
        53        52        55        58     9        0.000000       -0.091235         1    ;  uncertainty k = 0.689488
        53        52        55        58     9      180.000000       -0.372033         2    ;  uncertainty k = 0.432813
        53        52        55        58     9        0.000000        0.728217         3    ;  uncertainty k = 0.086314
        53        52        55        58     9      180.000000        0.094520         4    ;  uncertainty k = 0.073950
        54        52        55        56     9        0.000000       -0.091235         1    ;  uncertainty k = 0.689488
        54        52        55        56     9      180.000000       -0.372033         2    ;  uncertainty k = 0.432813
        54        52        55        56     9        0.000000        0.728217         3    ;  uncertainty k = 0.086314
        54        52        55        56     9      180.000000        0.094520         4    ;  uncertainty k = 0.073950
        54        52        55        57     9        0.000000       -0.091235         1    ;  uncertainty k = 0.689488
        54        52        55        57     9      180.000000       -0.372033         2    ;  uncertainty k = 0.432813
        54        52        55        57     9        0.000000        0.728217         3    ;  uncertainty k = 0.086314
        54        52        55        57     9      180.000000        0.094520         4    ;  uncertainty k = 0.073950
        54        52        55        58     9        0.000000       -0.091235         1    ;  uncertainty k = 0.689488
        54        52        55        58     9      180.000000       -0.372033         2    ;  uncertainty k = 0.432813
        54        52        55        58     9        0.000000        0.728217         3    ;  uncertainty k = 0.086314
        54        52        55        58     9      180.000000        0.094520         4    ;  uncertainty k = 0.073950

[ dihedrals ] ; impropers
;       ai        aj        ak        al funct           phase               k        pn
         5         8        13        31     4      180.000000        1.109680         2    ;  uncertainty k = 0.271256
         5        13        31         8     4      180.000000        1.109680         2    ;  uncertainty k = 0.271256
         5        31         8        13     4      180.000000        1.109680         2    ;  uncertainty k = 0.271256
         7        18        25        26     4      180.000000       48.911109         2    ;  uncertainty k = 0.029791
         7        25        26        18     4      180.000000       48.911109         2    ;  uncertainty k = 0.029791
         7        26        18        25     4      180.000000       48.911109         2    ;  uncertainty k = 0.029791
         8         5        19        21     4      180.000000       14.318672         2    ;  uncertainty k = 0.052158
         8        19        21         5     4      180.000000       14.318672         2    ;  uncertainty k = 0.052158
         8        21         5        19     4      180.000000       14.318672         2    ;  uncertainty k = 0.052158
         9        24        27        28     4      180.000000       45.765607         2    ;  uncertainty k = 0.102375
         9        27        28        24     4      180.000000       45.765607         2    ;  uncertainty k = 0.102375
         9        28        24        27     4      180.000000       45.765607         2    ;  uncertainty k = 0.102375
        11        12        16        17     4      180.000000        3.761374         2    ;  uncertainty k = 0.556432
        11        16        17        12     4      180.000000        3.761374         2    ;  uncertainty k = 0.556432
        11        17        12        16     4      180.000000        3.761374         2    ;  uncertainty k = 0.556432
        12        11        18        32     4      180.000000        7.515581         2    ;  uncertainty k = 0.359961
        12        18        32        11     4      180.000000        7.515581         2    ;  uncertainty k = 0.359961
        12        32        11        18     4      180.000000        7.515581         2    ;  uncertainty k = 0.359961
        13         5        14        22     4      180.000000       17.110314         2    ;  uncertainty k = 0.053382
        13        14        22         5     4      180.000000       17.110314         2    ;  uncertainty k = 0.053382
        13        22         5        14     4      180.000000       17.110314         2    ;  uncertainty k = 0.053382
        14        13        15        29     4      180.000000        2.090574         2    ;  uncertainty k = 0.191083
        14        15        29        13     4      180.000000        2.090574         2    ;  uncertainty k = 0.191083
        14        29        13        15     4      180.000000        2.090574         2    ;  uncertainty k = 0.191083
        15        14        19        30     4      180.000000        3.395592         2    ;  uncertainty k = 0.158338
        15        19        30        14     4      180.000000        3.395592         2    ;  uncertainty k = 0.158338
        15        30        14        19     4      180.000000        3.395592         2    ;  uncertainty k = 0.158338
        16        11        26        27     4      180.000000       30.848371         2    ;  uncertainty k = 0.072656
        16        26        27        11     4      180.000000       30.848371         2    ;  uncertainty k = 0.072656
        16        27        11        26     4      180.000000       30.848371         2    ;  uncertainty k = 0.072656
        17        11        24        33     4      180.000000       16.728421         2    ;  uncertainty k = 0.076499
        17        24        33        11     4      180.000000       16.728421         2    ;  uncertainty k = 0.076499
        17        33        11        24     4      180.000000       16.728421         2    ;  uncertainty k = 0.076499
        18         7        12        23     4      180.000000       13.122677         2    ;  uncertainty k = 0.268055
        18        12        23         7     4      180.000000       13.122677         2    ;  uncertainty k = 0.268055
        18        23         7        12     4      180.000000       13.122677         2    ;  uncertainty k = 0.268055
        19         8        15        23     4      180.000000       11.882712         2    ;  uncertainty k = 0.189067
        19        15        23         8     4      180.000000       11.882712         2    ;  uncertainty k = 0.189067
        19        23         8        15     4      180.000000       11.882712         2    ;  uncertainty k = 0.189067
        26         7        16        20     4      180.000000        4.139387         2    ;  uncertainty k = 0.767436
        26        16        20         7     4      180.000000        4.139387         2    ;  uncertainty k = 0.767436
        26        20         7        16     4      180.000000        4.139387         2    ;  uncertainty k = 0.767436
        28         9        10        45     4      180.000000        0.693580         2    ;  uncertainty k = 0.786577
        28        10        45         9     4      180.000000        0.693580         2    ;  uncertainty k = 0.786577
        28        45         9        10     4      180.000000        0.693580         2    ;  uncertainty k = 0.786577

[ pairs ]
;       ai        aj funct
         1         3     1
         1         9     1
         1        40     1
         1        41     1
         1        45     1
         2         4     1
         2        28     1
         2        38     1
         2        39     1
         2        42     1
         3        28     1
         3        36     1
         3        37     1
         3        42     1
         4         9     1
         4        34     1
         4        35     1
         4        45     1
         5        15     1
         5        23     1
         5        29     1
         6        10     1
         6        34     1
         6        35     1
         6        40     1
         6        41     1
         7        11     1
         7        19     1
         7        27     1
         7        32     1
         7        43     1
         7        44     1
         7        46     1
         8        14     1
         8        18     1
         8        22     1
         8        30     1
         9        11     1
         9        26     1
         9        33     1
         9        42     1
        10        24     1
        10        27     1
        10        36     1
        10        37     1
        10        38     1
        10        39     1
        11        20     1
        11        23     1
        12        19     1
        12        24     1
        12        25     1
        12        26     1
        12        27     1
        12        33     1
        13        19     1
        13        21     1
        13        30     1
        14        23     1
        14        31     1
        15        18     1
        15        21     1
        15        22     1
        16        18     1
        16        24     1
        16        25     1
        16        28     1
        16        32     1
        16        33     1
        16        43     1
        16        44     1
        16        46     1
        17        18     1
        17        26     1
        17        27     1
        17        28     1
        17        32     1
        18        20     1
        19        29     1
        19        31     1
        20        25     1
        20        27     1
        20        50     1
        20        51     1
        20        52     1
        21        23     1
        21        31     1
        22        29     1
        22        31     1
        23        25     1
        23        26     1
        23        30     1
        23        32     1
        24        45     1
        26        47     1
        26        48     1
        26        49     1
        27        45     1
        28        34     1
        28        35     1
        28        40     1
        28        41     1
        29        30     1
        34        36     1
        34        37     1
        34        42     1
        35        36     1
        35        37     1
        35        42     1
        38        40     1
        38        41     1
        39        40     1
        39        41     1
        40        42     1
        41        42     1
        42        45     1
        43        47     1
        43        48     1
        43        49     1
        44        47     1
        44        48     1
        44        49     1
        46        53     1
        46        54     1
        46        55     1
        47        50     1
        47        51     1
        47        52     1
        48        50     1
        48        51     1
        48        52     1
        49        56     1
        49        57     1
        49        58     1
        50        53     1
        50        54     1
        50        55     1
        51        53     1
        51        54     1
        51        55     1
        53        56     1
        53        57     1
        53        58     1
        54        56     1
        54        57     1
        54        58     1
