; ITP file created by ByteFF-joint-25, 2026-02-17 09:24:20.499786

[ atomtypes ]
;name           bonded.type        at.num        mass        charge   ptype           sigma         epsilon
 c0bf                                   6      0.0000       0.00000       A     3.39787e-01     4.51000e-01    ;  uncertainty sigma = 0.000007, epsilon = 0.000697
 c1bf                                   6      0.0000       0.00000       A     3.39778e-01     4.50893e-01    ;  uncertainty sigma = 0.000003, epsilon = 0.000829
 c2bf                                   6      0.0000       0.00000       A     3.39778e-01     4.50893e-01    ;  uncertainty sigma = 0.000003, epsilon = 0.000829
 c3bf                                   6      0.0000       0.00000       A     3.39787e-01     4.51000e-01    ;  uncertainty sigma = 0.000007, epsilon = 0.000697
 c4bf                                   6      0.0000       0.00000       A     3.31526e-01     4.13477e-01    ;  uncertainty sigma = 0.000006, epsilon = 0.000754
 o5bf                                   8      0.0000       0.00000       A     3.15613e-01     3.03556e-01    ;  uncertainty sigma = 0.000019, epsilon = 0.001085
 c6bf                                   6      0.0000       0.00000       A     3.31536e-01     4.13275e-01    ;  uncertainty sigma = 0.000021, epsilon = 0.001552
 c7bf                                   6      0.0000       0.00000       A     3.31525e-01     4.12996e-01    ;  uncertainty sigma = 0.000006, epsilon = 0.000558
 c8bf                                   6      0.0000       0.00000       A     3.31531e-01     4.13812e-01    ;  uncertainty sigma = 0.000011, epsilon = 0.000825
 c9bf                                   6      0.0000       0.00000       A     3.39779e-01     4.51067e-01    ;  uncertainty sigma = 0.000013, epsilon = 0.000925
 c10bf                                  6      0.0000       0.00000       A     3.31543e-01     4.13548e-01    ;  uncertainty sigma = 0.000020, epsilon = 0.001073
 c11bf                                  6      0.0000       0.00000       A     3.31525e-01     4.12978e-01    ;  uncertainty sigma = 0.000012, epsilon = 0.001323
 c12bf                                  6      0.0000       0.00000       A     3.31521e-01     4.13309e-01    ;  uncertainty sigma = 0.000005, epsilon = 0.000623
 c13bf                                  6      0.0000       0.00000       A     3.31522e-01     4.13402e-01    ;  uncertainty sigma = 0.000004, epsilon = 0.000568
 c14bf                                  6      0.0000       0.00000       A     3.31532e-01     4.13487e-01    ;  uncertainty sigma = 0.000005, epsilon = 0.000789
 c15bf                                  6      0.0000       0.00000       A     3.31508e-01     4.13812e-01    ;  uncertainty sigma = 0.000015, epsilon = 0.001435
 c16bf                                  6      0.0000       0.00000       A     3.31538e-01     4.13552e-01    ;  uncertainty sigma = 0.000008, epsilon = 0.001410
 c17bf                                  6      0.0000       0.00000       A     3.31535e-01     4.13459e-01    ;  uncertainty sigma = 0.000022, epsilon = 0.001521
 c18bf                                  6      0.0000       0.00000       A     3.31544e-01     4.13185e-01    ;  uncertainty sigma = 0.000012, epsilon = 0.000998
 f19bf                                  9      0.0000       0.00000       A     3.03401e-01     3.48403e-01    ;  uncertainty sigma = 0.000015, epsilon = 0.000906
 f20bf                                  9      0.0000       0.00000       A     3.03426e-01     3.47978e-01    ;  uncertainty sigma = 0.000008, epsilon = 0.000768
 o21bf                                  8      0.0000       0.00000       A     3.15670e-01     3.03521e-01    ;  uncertainty sigma = 0.000054, epsilon = 0.003661
 n22bf                                  7      0.0000       0.00000       A     3.38435e-01     3.93631e-01    ;  uncertainty sigma = 0.000019, epsilon = 0.001026
 o23bf                                  8      0.0000       0.00000       A     3.04843e-01     6.10930e-01    ;  uncertainty sigma = 0.000016, epsilon = 0.000788
 n24bf                                  7      0.0000       0.00000       A     3.18174e-01     6.86327e-01    ;  uncertainty sigma = 0.000037, epsilon = 0.003027
 n25bf                                  7      0.0000       0.00000       A     3.38447e-01     3.93253e-01    ;  uncertainty sigma = 0.000043, epsilon = 0.001867
 n26bf                                  7      0.0000       0.00000       A     3.27898e-01     6.46446e-01    ;  uncertainty sigma = 0.000031, epsilon = 0.005668
 h27bf                                  1      0.0000       0.00000       A     2.62564e-01     6.70554e-02    ;  uncertainty sigma = 0.000012, epsilon = 0.000465
 h28bf                                  1      0.0000       0.00000       A     2.62548e-01     6.71486e-02    ;  uncertainty sigma = 0.000008, epsilon = 0.000492
 h29bf                                  1      0.0000       0.00000       A     2.62562e-01     6.73680e-02    ;  uncertainty sigma = 0.000008, epsilon = 0.000365
 h30bf                                  1      0.0000       0.00000       A     2.62521e-01     6.67593e-02    ;  uncertainty sigma = 0.000018, epsilon = 0.000881
 h31bf                                  1      0.0000       0.00000       A     2.53663e-01     6.71784e-02    ;  uncertainty sigma = 0.000041, epsilon = 0.000925
 h32bf                                  1      0.0000       0.00000       A     2.60021e-01     8.67664e-02    ;  uncertainty sigma = 0.000009, epsilon = 0.000445
 h33bf                                  1      0.0000       0.00000       A     2.60021e-01     8.67664e-02    ;  uncertainty sigma = 0.000009, epsilon = 0.000445
 h34bf                                  1      0.0000       0.00000       A     2.42188e-01     8.67182e-02    ;  uncertainty sigma = 0.000018, epsilon = 0.000739
 h35bf                                  1      0.0000       0.00000       A     2.42188e-01     8.67182e-02    ;  uncertainty sigma = 0.000018, epsilon = 0.000739
 h36bf                                  1      0.0000       0.00000       A     2.42188e-01     8.67182e-02    ;  uncertainty sigma = 0.000018, epsilon = 0.000739
 h37bf                                  1      0.0000       0.00000       A     2.42188e-01     8.67182e-02    ;  uncertainty sigma = 0.000018, epsilon = 0.000739
 h38bf                                  1      0.0000       0.00000       A     2.60021e-01     8.67664e-02    ;  uncertainty sigma = 0.000009, epsilon = 0.000445
 h39bf                                  1      0.0000       0.00000       A     2.60021e-01     8.67664e-02    ;  uncertainty sigma = 0.000009, epsilon = 0.000445
 h40bf                                  1      0.0000       0.00000       A     2.42212e-01     8.65674e-02    ;  uncertainty sigma = 0.000016, epsilon = 0.000625
 h41bf                                  1      0.0000       0.00000       A     2.42134e-01     8.64672e-02    ;  uncertainty sigma = 0.000030, epsilon = 0.001254
 h42bf                                  1      0.0000       0.00000       A     1.10703e-01     4.14050e-02    ;  uncertainty sigma = 0.000035, epsilon = 0.000993
 c43bf                                  6      0.0000       0.00000       A     3.39776e-01     4.51088e-01    ;  uncertainty sigma = 0.000010, epsilon = 0.001110
 c44bf                                  6      0.0000       0.00000       A     3.39761e-01     4.51194e-01    ;  uncertainty sigma = 0.000013, epsilon = 0.000518
 c45bf                                  6      0.0000       0.00000       A     3.39744e-01     4.50039e-01    ;  uncertainty sigma = 0.000012, epsilon = 0.001842
 c46bf                                  6      0.0000       0.00000       A     3.39761e-01     4.51194e-01    ;  uncertainty sigma = 0.000013, epsilon = 0.000518
 c47bf                                  6      0.0000       0.00000       A     3.39776e-01     4.51088e-01    ;  uncertainty sigma = 0.000010, epsilon = 0.001110
 h48bf                                  1      0.0000       0.00000       A     2.42219e-01     8.64913e-02    ;  uncertainty sigma = 0.000028, epsilon = 0.000820
 h49bf                                  1      0.0000       0.00000       A     2.42219e-01     8.64913e-02    ;  uncertainty sigma = 0.000028, epsilon = 0.000820
 h50bf                                  1      0.0000       0.00000       A     2.60074e-01     8.66709e-02    ;  uncertainty sigma = 0.000008, epsilon = 0.000618
 h51bf                                  1      0.0000       0.00000       A     2.60074e-01     8.66709e-02    ;  uncertainty sigma = 0.000008, epsilon = 0.000618
 h52bf                                  1      0.0000       0.00000       A     2.60074e-01     8.66709e-02    ;  uncertainty sigma = 0.000008, epsilon = 0.000618
 h53bf                                  1      0.0000       0.00000       A     2.60074e-01     8.66709e-02    ;  uncertainty sigma = 0.000008, epsilon = 0.000618
 h54bf                                  1      0.0000       0.00000       A     2.42219e-01     8.64913e-02    ;  uncertainty sigma = 0.000028, epsilon = 0.000820
 h55bf                                  1      0.0000       0.00000       A     2.42219e-01     8.64913e-02    ;  uncertainty sigma = 0.000028, epsilon = 0.000820
 s56bf                                 16      0.0000       0.00000       A     4.05831e-01     2.56856e-01    ;  uncertainty sigma = 0.000015, epsilon = 0.001456
 o57bf                                  8      0.0000       0.00000       A     3.04832e-01     6.12123e-01    ;  uncertainty sigma = 0.000011, epsilon = 0.000850
 o58bf                                  8      0.0000       0.00000       A     3.04832e-01     6.12123e-01    ;  uncertainty sigma = 0.000011, epsilon = 0.000850

[ moleculetype ]
;name             nrexcl
 MOL                   3

[ atoms ]
;       nr            type      resi   res      atom      cgnr      charge          mass ; qtot
         1            c0bf         1   UNL        c0         1    -0.12711       12.0110 ; qtot   -0.127
         2            c1bf         1   UNL        c1         2     0.13209       12.0110 ; qtot    0.005
         3            c2bf         1   UNL        c2         3     0.13209       12.0110 ; qtot    0.137
         4            c3bf         1   UNL        c3         4    -0.12711       12.0110 ; qtot    0.010
         5            c4bf         1   UNL        c4         5    -0.19164       12.0110 ; qtot   -0.182
         6            o5bf         1   UNL        o5         6    -0.41527       15.9990 ; qtot   -0.597
         7            c6bf         1   UNL        c6         7     0.69558       12.0110 ; qtot    0.099
         8            c7bf         1   UNL        c7         8     0.14567       12.0110 ; qtot    0.244
         9            c8bf         1   UNL        c8         9     0.92897       12.0110 ; qtot    1.173
        10            c9bf         1   UNL        c9        10     0.24784       12.0110 ; qtot    1.421
        11           c10bf         1   UNL       c10        11    -0.40708       12.0110 ; qtot    1.014
        12           c11bf         1   UNL       c11        12    -0.04553       12.0110 ; qtot    0.969
        13           c12bf         1   UNL       c12        13     0.14413       12.0110 ; qtot    1.113
        14           c13bf         1   UNL       c13        14    -0.16248       12.0110 ; qtot    0.950
        15           c14bf         1   UNL       c14        15    -0.09069       12.0110 ; qtot    0.859
        16           c15bf         1   UNL       c15        16     0.64558       12.0110 ; qtot    1.505
        17           c16bf         1   UNL       c16        17     0.52039       12.0110 ; qtot    2.025
        18           c17bf         1   UNL       c17        18     0.01123       12.0110 ; qtot    2.037
        19           c18bf         1   UNL       c18        19     0.04795       12.0110 ; qtot    2.085
        20           f19bf         1   UNL       f19        20    -0.12685       18.9980 ; qtot    1.958
        21           f20bf         1   UNL       f20        21    -0.13805       18.9980 ; qtot    1.820
        22           o21bf         1   UNL       o21        22    -0.21006       15.9990 ; qtot    1.610
        23           n22bf         1   UNL       n22        23    -0.77029       14.0070 ; qtot    0.839
        24           o23bf         1   UNL       o23        24    -0.59047       15.9990 ; qtot    0.249
        25           n24bf         1   UNL       n24        25    -0.44298       14.0070 ; qtot   -0.194
        26           n25bf         1   UNL       n25        26    -0.83253       14.0070 ; qtot   -1.027
        27           n26bf         1   UNL       n26        27    -0.86333       14.0070 ; qtot   -1.890
        28           h27bf         1   UNL       h27        28     0.16075        1.0080 ; qtot   -1.729
        29           h28bf         1   UNL       h28        29     0.15721        1.0080 ; qtot   -1.572
        30           h29bf         1   UNL       h29        30     0.17297        1.0080 ; qtot   -1.399
        31           h30bf         1   UNL       h30        31     0.16432        1.0080 ; qtot   -1.235
        32           h31bf         1   UNL       h31        32     0.02974        1.0080 ; qtot   -1.205
        33           h32bf         1   UNL       h32        33     0.05892        1.0080 ; qtot   -1.146
        34           h33bf         1   UNL       h33        34     0.05892        1.0080 ; qtot   -1.087
        35           h34bf         1   UNL       h34        35     0.04655        1.0080 ; qtot   -1.041
        36           h35bf         1   UNL       h35        36     0.04655        1.0080 ; qtot   -0.994
        37           h36bf         1   UNL       h36        37     0.04655        1.0080 ; qtot   -0.947
        38           h37bf         1   UNL       h37        38     0.04655        1.0080 ; qtot   -0.901
        39           h38bf         1   UNL       h38        39     0.05892        1.0080 ; qtot   -0.842
        40           h39bf         1   UNL       h39        40     0.05892        1.0080 ; qtot   -0.783
        41           h40bf         1   UNL       h40        41     0.07162        1.0080 ; qtot   -0.711
        42           h41bf         1   UNL       h41        42     0.09095        1.0080 ; qtot   -0.621
        43           h42bf         1   UNL       h42        43     0.44845        1.0080 ; qtot   -0.172
        44           c43bf         1   UNL       c43        44    -0.15077       12.0110 ; qtot   -0.323
        45           c44bf         1   UNL       c44        45    -0.06378       12.0110 ; qtot   -0.387
        46           c45bf         1   UNL       c45        46     0.11131       12.0110 ; qtot   -0.275
        47           c46bf         1   UNL       c46        47    -0.06378       12.0110 ; qtot   -0.339
        48           c47bf         1   UNL       c47        48    -0.15077       12.0110 ; qtot   -0.490
        49           h48bf         1   UNL       h48        49     0.10653        1.0080 ; qtot   -0.383
        50           h49bf         1   UNL       h49        50     0.10653        1.0080 ; qtot   -0.277
        51           h50bf         1   UNL       h50        51     0.07496        1.0080 ; qtot   -0.202
        52           h51bf         1   UNL       h51        52     0.07496        1.0080 ; qtot   -0.127
        53           h52bf         1   UNL       h52        53     0.07496        1.0080 ; qtot   -0.052
        54           h53bf         1   UNL       h53        54     0.07496        1.0080 ; qtot    0.023
        55           h54bf         1   UNL       h54        55     0.10653        1.0080 ; qtot    0.130
        56           h55bf         1   UNL       h55        56     0.10653        1.0080 ; qtot    0.236
        57           s56bf         1   UNL       s56        57     0.91477       32.0670 ; qtot    1.151
        58           o57bf         1   UNL       o57        58    -0.57543       15.9990 ; qtot    0.575
        59           o58bf         1   UNL       o58        59    -0.57545       15.9990 ; qtot    0.000

[ bonds ]
;       ai        aj funct               r               k
         1         2     1        0.153564   209800.351904    ;  uncertainty r = 0.000030, k = 4.398850
         1        10     1        0.153800   204926.313672    ;  uncertainty r = 0.000079, k = 2.875806
         1        33     1        0.109644   310935.400293    ;  uncertainty r = 0.000023, k = 1.135247
         1        34     1        0.109644   310935.400293    ;  uncertainty r = 0.000023, k = 1.135247
         2         6     1        0.142789   254488.480176    ;  uncertainty r = 0.000039, k = 2.801925
         2        35     1        0.109818   309244.843652    ;  uncertainty r = 0.000020, k = 0.854841
         2        36     1        0.109818   309244.843652    ;  uncertainty r = 0.000020, k = 0.854841
         3         4     1        0.153564   209800.351904    ;  uncertainty r = 0.000030, k = 4.398850
         3         6     1        0.142789   254488.480176    ;  uncertainty r = 0.000039, k = 2.801925
         3        37     1        0.109818   309244.843652    ;  uncertainty r = 0.000020, k = 0.854841
         3        38     1        0.109818   309244.843652    ;  uncertainty r = 0.000020, k = 0.854841
         4        10     1        0.153800   204926.313672    ;  uncertainty r = 0.000079, k = 2.875806
         4        39     1        0.109644   310935.400293    ;  uncertainty r = 0.000023, k = 1.135247
         4        40     1        0.109644   310935.400293    ;  uncertainty r = 0.000023, k = 1.135247
         5         8     1        0.138747   361176.981592    ;  uncertainty r = 0.000032, k = 2.643588
         5        13     1        0.139007   367691.396045    ;  uncertainty r = 0.000031, k = 2.749259
         5        30     1        0.108780   338576.282275    ;  uncertainty r = 0.000013, k = 1.210229
         7        18     1        0.146644   253585.104932    ;  uncertainty r = 0.000177, k = 21.614319
         7        24     1        0.123436   650093.903125    ;  uncertainty r = 0.000120, k = 16.629683
         7        25     1        0.140691   265638.518408    ;  uncertainty r = 0.000258, k = 34.382083
         8        19     1        0.139121   358077.006348    ;  uncertainty r = 0.000040, k = 4.650811
         8        20     1        0.134764   340072.935645    ;  uncertainty r = 0.000045, k = 2.589505
         9        23     1        0.136744   529556.703906    ;  uncertainty r = 0.000159, k = 16.391426
         9        26     1        0.135791   614920.110156    ;  uncertainty r = 0.000087, k = 22.284855
         9        27     1        0.138315   586776.887695    ;  uncertainty r = 0.000152, k = 23.403475
        10        27     1        0.145807   240009.066846    ;  uncertainty r = 0.000132, k = 9.981083
        10        41     1        0.109351   304415.163379    ;  uncertainty r = 0.000015, k = 2.578070
        11        12     1        0.142610   280117.318848    ;  uncertainty r = 0.000047, k = 20.544232
        11        16     1        0.142437   411600.872314    ;  uncertainty r = 0.000136, k = 26.543020
        11        17     1        0.140414   404103.968652    ;  uncertainty r = 0.000219, k = 20.892412
        12        18     1        0.135332   409473.707715    ;  uncertainty r = 0.000063, k = 14.821334
        12        31     1        0.108669   334875.418848    ;  uncertainty r = 0.000039, k = 1.851931
        13        14     1        0.138905   362175.303809    ;  uncertainty r = 0.000027, k = 1.862514
        13        21     1        0.135460   342148.081152    ;  uncertainty r = 0.000038, k = 2.796473
        14        15     1        0.139206   376188.256299    ;  uncertainty r = 0.000034, k = 0.837546
        14        28     1        0.108734   335618.242285    ;  uncertainty r = 0.000017, k = 1.062658
        15        19     1        0.139238   351219.066699    ;  uncertainty r = 0.000057, k = 2.910415
        15        29     1        0.108702   335466.041113    ;  uncertainty r = 0.000027, k = 2.133558
        16        25     1        0.138388   261184.105957    ;  uncertainty r = 0.000242, k = 26.265930
        16        26     1        0.134323   437469.785352    ;  uncertainty r = 0.000185, k = 12.341439
        17        23     1        0.133321   406897.549658    ;  uncertainty r = 0.000085, k = 9.619513
        17        32     1        0.108933   328869.499316    ;  uncertainty r = 0.000036, k = 1.471501
        18        22     1        0.136079   317349.990186    ;  uncertainty r = 0.000085, k = 7.476305
        19        22     1        0.138171   312494.772803    ;  uncertainty r = 0.000105, k = 5.954181
        25        46     1        0.146310   236831.177881    ;  uncertainty r = 0.000101, k = 25.939632
        27        43     1        0.102176   435698.173926    ;  uncertainty r = 0.000065, k = 4.933167
        42        46     1        0.109034   306612.580566    ;  uncertainty r = 0.000034, k = 4.010006
        44        45     1        0.152972   214690.069922    ;  uncertainty r = 0.000071, k = 14.530360
        44        49     1        0.109348   321145.749512    ;  uncertainty r = 0.000024, k = 2.618565
        44        50     1        0.109348   321145.749512    ;  uncertainty r = 0.000024, k = 2.618565
        44        57     1        0.182075   144294.065625    ;  uncertainty r = 0.000079, k = 15.431628
        45        46     1        0.153970   195290.179126    ;  uncertainty r = 0.000090, k = 4.130274
        45        51     1        0.109394   307434.875488    ;  uncertainty r = 0.000034, k = 1.980159
        45        52     1        0.109394   307434.875488    ;  uncertainty r = 0.000034, k = 1.980159
        46        47     1        0.153970   195290.179126    ;  uncertainty r = 0.000090, k = 4.130274
        47        48     1        0.152972   214690.069922    ;  uncertainty r = 0.000071, k = 14.530360
        47        53     1        0.109394   307434.875488    ;  uncertainty r = 0.000034, k = 1.980159
        47        54     1        0.109394   307434.875488    ;  uncertainty r = 0.000034, k = 1.980159
        48        55     1        0.109348   321145.749512    ;  uncertainty r = 0.000024, k = 2.618565
        48        56     1        0.109348   321145.749512    ;  uncertainty r = 0.000024, k = 2.618565
        48        57     1        0.182075   144294.065625    ;  uncertainty r = 0.000079, k = 15.431610
        57        58     1        0.147696   557511.768945    ;  uncertainty r = 0.000049, k = 6.882956
        57        59     1        0.147696   557511.717871    ;  uncertainty r = 0.000049, k = 6.882973

[ angles ]
;       ai        aj        ak funct           theta             cth
         1         2         6     1      111.446632      714.965579    ;  uncertainty theta = 0.001347, k = 0.063500
         1         2        35     1      109.920456      408.541080    ;  uncertainty theta = 0.002019, k = 0.035643
         1         2        36     1      109.920456      408.541080    ;  uncertainty theta = 0.002019, k = 0.035643
         1        10         4     1      108.571205      585.454959    ;  uncertainty theta = 0.002684, k = 0.080005
         1        10        27     1      110.695145      629.201113    ;  uncertainty theta = 0.003363, k = 0.060631
         1        10        41     1      108.629013      407.998416    ;  uncertainty theta = 0.002420, k = 0.060827
         2         1        10     1      109.739174      566.930979    ;  uncertainty theta = 0.002556, k = 0.101379
         2         1        33     1      108.721451      397.694416    ;  uncertainty theta = 0.000995, k = 0.058468
         2         1        34     1      108.721451      397.694416    ;  uncertainty theta = 0.000995, k = 0.058468
         2         6         3     1      109.309448      562.168308    ;  uncertainty theta = 0.002274, k = 0.150711
         3         4        10     1      109.739174      566.930979    ;  uncertainty theta = 0.002556, k = 0.101379
         3         4        39     1      108.721451      397.694416    ;  uncertainty theta = 0.000995, k = 0.058468
         3         4        40     1      108.721451      397.694416    ;  uncertainty theta = 0.000995, k = 0.058468
         4         3         6     1      111.446632      714.965579    ;  uncertainty theta = 0.001347, k = 0.063500
         4         3        37     1      109.920456      408.541080    ;  uncertainty theta = 0.002019, k = 0.035643
         4         3        38     1      109.920456      408.541080    ;  uncertainty theta = 0.002019, k = 0.035643
         4        10        27     1      110.695145      629.201113    ;  uncertainty theta = 0.003363, k = 0.060631
         4        10        41     1      108.629013      407.998416    ;  uncertainty theta = 0.002420, k = 0.060827
         5         8        19     1      123.443153      352.584549    ;  uncertainty theta = 0.005265, k = 0.202869
         5         8        20     1      118.916702      524.557093    ;  uncertainty theta = 0.000766, k = 0.063533
         5        13        14     1      122.203163      367.950291    ;  uncertainty theta = 0.004353, k = 0.037976
         5        13        21     1      118.416054      506.109309    ;  uncertainty theta = 0.002115, k = 0.044491
         6         2        35     1      107.077614      463.773059    ;  uncertainty theta = 0.001757, k = 0.022995
         6         2        36     1      107.077614      463.773059    ;  uncertainty theta = 0.001757, k = 0.022995
         6         3        37     1      107.077614      463.773059    ;  uncertainty theta = 0.001757, k = 0.022995
         6         3        38     1      107.077614      463.773059    ;  uncertainty theta = 0.001757, k = 0.022995
         7        18        12     1      124.967850      431.662251    ;  uncertainty theta = 0.005954, k = 0.246382
         7        18        22     1      108.676865      390.811431    ;  uncertainty theta = 0.010844, k = 0.274127
         7        25        16     1      122.718407      492.822351    ;  uncertainty theta = 0.006399, k = 0.132767
         7        25        46     1      112.448624      416.481780    ;  uncertainty theta = 0.005675, k = 0.177992
         8         5        13     1      117.873718      466.681991    ;  uncertainty theta = 0.002635, k = 0.148809
         8         5        30     1      120.885605      275.043414    ;  uncertainty theta = 0.003104, k = 0.026017
         8        19        15     1      120.438950      350.580333    ;  uncertainty theta = 0.005824, k = 0.197361
         8        19        22     1      117.620239      371.383979    ;  uncertainty theta = 0.004332, k = 0.215296
         9        23        17     1      116.393494      408.448508    ;  uncertainty theta = 0.008628, k = 0.279736
         9        26        16     1      117.707764      446.381426    ;  uncertainty theta = 0.007301, k = 0.083676
         9        27        10     1      115.771378      413.925643    ;  uncertainty theta = 0.005298, k = 0.144346
         9        27        43     1      116.879532      443.907071    ;  uncertainty theta = 0.004122, k = 0.154446
        10         1        33     1      108.113968      386.815958    ;  uncertainty theta = 0.001236, k = 0.022845
        10         1        34     1      108.113968      386.815958    ;  uncertainty theta = 0.001236, k = 0.022845
        10         4        39     1      108.113968      386.815958    ;  uncertainty theta = 0.001236, k = 0.022845
        10         4        40     1      108.113968      386.815958    ;  uncertainty theta = 0.001236, k = 0.022845
        10        27        43     1      112.314072      333.078060    ;  uncertainty theta = 0.005154, k = 0.136963
        11        12        18     1      121.064270      508.819658    ;  uncertainty theta = 0.007367, k = 0.208759
        11        12        31     1      118.349953      256.410279    ;  uncertainty theta = 0.002437, k = 0.255702
        11        16        25     1      118.555748      468.961019    ;  uncertainty theta = 0.009424, k = 0.275200
        11        16        26     1      122.631348      544.095887    ;  uncertainty theta = 0.005582, k = 0.167385
        11        17        23     1      122.531471      741.123432    ;  uncertainty theta = 0.001409, k = 0.182135
        11        17        32     1      120.247070      260.223496    ;  uncertainty theta = 0.004091, k = 0.137228
        12        11        16     1      120.298203      440.367724    ;  uncertainty theta = 0.011960, k = 0.247909
        12        11        17     1      123.464394      405.184227    ;  uncertainty theta = 0.005925, k = 0.174986
        12        18        22     1      122.521530      425.929106    ;  uncertainty theta = 0.002993, k = 0.085192
        13         5        30     1      122.167213      276.182816    ;  uncertainty theta = 0.001979, k = 0.047518
        13        14        15     1      117.679276      490.002065    ;  uncertainty theta = 0.001416, k = 0.046653
        13        14        28     1      120.978439      282.379204    ;  uncertainty theta = 0.000982, k = 0.023307
        14        13        21     1      119.340736      515.983168    ;  uncertainty theta = 0.001915, k = 0.014125
        14        15        19     1      121.214966      509.817585    ;  uncertainty theta = 0.002734, k = 0.081000
        14        15        29     1      120.371567      284.922126    ;  uncertainty theta = 0.002332, k = 0.030236
        15        14        28     1      121.389076      278.892591    ;  uncertainty theta = 0.001182, k = 0.028037
        15        19        22     1      121.284691      424.556806    ;  uncertainty theta = 0.004642, k = 0.115345
        16        11        17     1      117.550270      437.081098    ;  uncertainty theta = 0.005329, k = 0.173902
        16        25        46     1      113.783325      416.981254    ;  uncertainty theta = 0.009707, k = 0.225167
        18         7        24     1      123.266212      472.363232    ;  uncertainty theta = 0.003864, k = 0.162737
        18         7        25     1      115.915039      317.561361    ;  uncertainty theta = 0.014080, k = 0.643707
        18        12        31     1      120.663391      276.394104    ;  uncertainty theta = 0.005410, k = 0.196201
        18        22        19     1      112.323990      457.802834    ;  uncertainty theta = 0.005441, k = 0.309270
        19         8        20     1      117.525742      487.064690    ;  uncertainty theta = 0.002079, k = 0.147581
        19        15        29     1      118.610428      275.458648    ;  uncertainty theta = 0.003647, k = 0.058785
        23         9        26     1      128.689178      742.090906    ;  uncertainty theta = 0.002142, k = 0.099512
        23         9        27     1      120.624695      827.177745    ;  uncertainty theta = 0.008938, k = 0.131169
        23        17        32     1      117.400436      318.145043    ;  uncertainty theta = 0.003385, k = 0.164124
        24         7        25     1      121.579262      684.293085    ;  uncertainty theta = 0.001477, k = 0.112356
        25        16        26     1      116.942032      596.720144    ;  uncertainty theta = 0.010121, k = 0.146256
        25        46        42     1      101.893539      443.291180    ;  uncertainty theta = 0.003671, k = 0.130340
        25        46        45     1      108.665001      608.641761    ;  uncertainty theta = 0.002890, k = 0.091452
        25        46        47     1      108.665001      608.641761    ;  uncertainty theta = 0.002890, k = 0.091452
        26         9        27     1      121.293312      912.179801    ;  uncertainty theta = 0.007662, k = 0.092626
        27        10        41     1      103.516525      447.268585    ;  uncertainty theta = 0.003472, k = 0.117225
        33         1        34     1      105.438782      311.403087    ;  uncertainty theta = 0.002031, k = 0.016795
        35         2        36     1      106.555069      320.243013    ;  uncertainty theta = 0.001313, k = 0.032691
        37         3        38     1      106.555069      320.243013    ;  uncertainty theta = 0.001313, k = 0.032691
        39         4        40     1      105.438782      311.403087    ;  uncertainty theta = 0.002031, k = 0.016795
        42        46        45     1      108.362595      417.205789    ;  uncertainty theta = 0.004066, k = 0.122729
        42        46        47     1      108.362595      417.205789    ;  uncertainty theta = 0.004066, k = 0.122729
        44        45        46     1      110.760948      555.816590    ;  uncertainty theta = 0.007090, k = 0.113536
        44        45        51     1      107.502098      404.127373    ;  uncertainty theta = 0.001839, k = 0.074493
        44        45        52     1      107.502098      404.127373    ;  uncertainty theta = 0.001839, k = 0.074493
        44        57        48     1      100.706985      726.040066    ;  uncertainty theta = 0.002500, k = 0.065507
        44        57        58     1      111.904762      697.624925    ;  uncertainty theta = 0.003408, k = 0.078081
        44        57        59     1      111.904762      697.624925    ;  uncertainty theta = 0.003408, k = 0.078081
        45        44        49     1      110.710876      381.192081    ;  uncertainty theta = 0.002536, k = 0.070059
        45        44        50     1      110.710876      381.192081    ;  uncertainty theta = 0.002536, k = 0.070059
        45        44        57     1      108.649193      542.297181    ;  uncertainty theta = 0.002159, k = 0.136111
        45        46        47     1      110.933289      593.744241    ;  uncertainty theta = 0.003832, k = 0.121251
        46        45        51     1      107.713951      381.955927    ;  uncertainty theta = 0.002126, k = 0.066445
        46        45        52     1      107.713951      381.955927    ;  uncertainty theta = 0.002126, k = 0.066445
        46        47        48     1      110.760963      555.816590    ;  uncertainty theta = 0.007090, k = 0.113536
        46        47        53     1      107.713951      381.955927    ;  uncertainty theta = 0.002126, k = 0.066445
        46        47        54     1      107.713951      381.955927    ;  uncertainty theta = 0.002126, k = 0.066445
        47        48        55     1      110.710892      381.192081    ;  uncertainty theta = 0.002536, k = 0.070059
        47        48        56     1      110.710892      381.192081    ;  uncertainty theta = 0.002536, k = 0.070059
        47        48        57     1      108.649193      542.297244    ;  uncertainty theta = 0.002159, k = 0.136111
        48        47        53     1      107.502098      404.127373    ;  uncertainty theta = 0.001839, k = 0.074493
        48        47        54     1      107.502098      404.127373    ;  uncertainty theta = 0.001839, k = 0.074493
        48        57        58     1      111.904762      697.624925    ;  uncertainty theta = 0.003408, k = 0.078081
        48        57        59     1      111.904762      697.624925    ;  uncertainty theta = 0.003408, k = 0.078081
        49        44        50     1      108.113075      295.787432    ;  uncertainty theta = 0.001945, k = 0.097856
        49        44        57     1      105.721115      360.299852    ;  uncertainty theta = 0.001547, k = 0.101623
        50        44        57     1      105.721115      360.299852    ;  uncertainty theta = 0.001547, k = 0.101623
        51        45        52     1      105.719528      319.598935    ;  uncertainty theta = 0.001397, k = 0.062585
        53        47        54     1      105.719528      319.598935    ;  uncertainty theta = 0.001397, k = 0.062585
        55        48        56     1      108.113075      295.787432    ;  uncertainty theta = 0.001945, k = 0.097856
        55        48        57     1      105.721115      360.299852    ;  uncertainty theta = 0.001547, k = 0.101623
        56        48        57     1      105.721115      360.299852    ;  uncertainty theta = 0.001547, k = 0.101623
        58        57        59     1      121.336319      839.359968    ;  uncertainty theta = 0.003065, k = 0.082704

[ dihedrals ] ; propers for gromacs 4.5 or higher, use funct 9
;       ai        aj        ak        al funct           phase               k        pn
         1         2         6         3     9        0.000000       -3.090920         1    ;  uncertainty k = 1.764723
         1         2         6         3     9      180.000000        0.099645         2    ;  uncertainty k = 1.147878
         1         2         6         3     9        0.000000        0.937069         3    ;  uncertainty k = 0.257052
         1         2         6         3     9      180.000000       -0.348700         4    ;  uncertainty k = 0.188482
         1        10         4         3     9        0.000000       -7.182169         1    ;  uncertainty k = 1.160296
         1        10         4         3     9      180.000000        0.651721         2    ;  uncertainty k = 0.689257
         1        10         4         3     9        0.000000        1.337200         3    ;  uncertainty k = 0.165866
         1        10         4         3     9      180.000000       -1.433187         4    ;  uncertainty k = 0.219126
         1        10         4        39     9        0.000000       -1.858871         1    ;  uncertainty k = 0.333669
         1        10         4        39     9      180.000000       -0.004379         2    ;  uncertainty k = 0.147655
         1        10         4        39     9        0.000000        0.298804         3    ;  uncertainty k = 0.155785
         1        10         4        39     9      180.000000       -0.141300         4    ;  uncertainty k = 0.079428
         1        10         4        40     9        0.000000       -1.858871         1    ;  uncertainty k = 0.333669
         1        10         4        40     9      180.000000       -0.004379         2    ;  uncertainty k = 0.147655
         1        10         4        40     9        0.000000        0.298804         3    ;  uncertainty k = 0.155785
         1        10         4        40     9      180.000000       -0.141300         4    ;  uncertainty k = 0.079428
         1        10        27         9     9        0.000000       -2.494622         1    ;  uncertainty k = 0.359465
         1        10        27         9     9      180.000000        0.494401         2    ;  uncertainty k = 0.189999
         1        10        27         9     9        0.000000        0.369121         3    ;  uncertainty k = 0.120848
         1        10        27         9     9      180.000000        0.362253         4    ;  uncertainty k = 0.080871
         1        10        27        43     9        0.000000        2.787690         1    ;  uncertainty k = 0.893880
         1        10        27        43     9      180.000000       -0.663636         2    ;  uncertainty k = 0.236090
         1        10        27        43     9        0.000000        0.218247         3    ;  uncertainty k = 0.119918
         1        10        27        43     9      180.000000        0.123443         4    ;  uncertainty k = 0.073280
         2         1        10         4     9        0.000000       -7.182169         1    ;  uncertainty k = 1.160296
         2         1        10         4     9      180.000000        0.651721         2    ;  uncertainty k = 0.689257
         2         1        10         4     9        0.000000        1.337200         3    ;  uncertainty k = 0.165866
         2         1        10         4     9      180.000000       -1.433187         4    ;  uncertainty k = 0.219126
         2         1        10        27     9        0.000000       -4.805353         1    ;  uncertainty k = 0.699431
         2         1        10        27     9      180.000000       -0.187719         2    ;  uncertainty k = 0.333371
         2         1        10        27     9        0.000000        1.016385         3    ;  uncertainty k = 0.162984
         2         1        10        27     9      180.000000       -0.078100         4    ;  uncertainty k = 0.195994
         2         1        10        41     9        0.000000       -1.687319         1    ;  uncertainty k = 0.555497
         2         1        10        41     9      180.000000       -0.643722         2    ;  uncertainty k = 0.388884
         2         1        10        41     9        0.000000        0.030461         3    ;  uncertainty k = 0.099396
         2         1        10        41     9      180.000000       -0.147535         4    ;  uncertainty k = 0.108263
         2         6         3         4     9        0.000000       -3.090920         1    ;  uncertainty k = 1.764723
         2         6         3         4     9      180.000000        0.099645         2    ;  uncertainty k = 1.147878
         2         6         3         4     9        0.000000        0.937069         3    ;  uncertainty k = 0.257052
         2         6         3         4     9      180.000000       -0.348700         4    ;  uncertainty k = 0.188482
         2         6         3        37     9        0.000000       -5.435409         1    ;  uncertainty k = 1.705293
         2         6         3        37     9      180.000000        0.309318         2    ;  uncertainty k = 0.194051
         2         6         3        37     9        0.000000        0.745836         3    ;  uncertainty k = 0.129776
         2         6         3        37     9      180.000000       -0.529315         4    ;  uncertainty k = 0.148432
         2         6         3        38     9        0.000000       -5.435409         1    ;  uncertainty k = 1.705293
         2         6         3        38     9      180.000000        0.309318         2    ;  uncertainty k = 0.194051
         2         6         3        38     9        0.000000        0.745836         3    ;  uncertainty k = 0.129776
         2         6         3        38     9      180.000000       -0.529315         4    ;  uncertainty k = 0.148432
         3         4        10        27     9        0.000000       -4.805353         1    ;  uncertainty k = 0.699431
         3         4        10        27     9      180.000000       -0.187719         2    ;  uncertainty k = 0.333371
         3         4        10        27     9        0.000000        1.016385         3    ;  uncertainty k = 0.162984
         3         4        10        27     9      180.000000       -0.078100         4    ;  uncertainty k = 0.195994
         3         4        10        41     9        0.000000       -1.687319         1    ;  uncertainty k = 0.555497
         3         4        10        41     9      180.000000       -0.643722         2    ;  uncertainty k = 0.388884
         3         4        10        41     9        0.000000        0.030461         3    ;  uncertainty k = 0.099396
         3         4        10        41     9      180.000000       -0.147535         4    ;  uncertainty k = 0.108263
         3         6         2        35     9        0.000000       -5.435409         1    ;  uncertainty k = 1.705293
         3         6         2        35     9      180.000000        0.309318         2    ;  uncertainty k = 0.194051
         3         6         2        35     9        0.000000        0.745836         3    ;  uncertainty k = 0.129776
         3         6         2        35     9      180.000000       -0.529315         4    ;  uncertainty k = 0.148432
         3         6         2        36     9        0.000000       -5.435409         1    ;  uncertainty k = 1.705293
         3         6         2        36     9      180.000000        0.309318         2    ;  uncertainty k = 0.194051
         3         6         2        36     9        0.000000        0.745836         3    ;  uncertainty k = 0.129776
         3         6         2        36     9      180.000000       -0.529315         4    ;  uncertainty k = 0.148432
         4        10         1        33     9        0.000000       -1.858871         1    ;  uncertainty k = 0.333669
         4        10         1        33     9      180.000000       -0.004379         2    ;  uncertainty k = 0.147655
         4        10         1        33     9        0.000000        0.298804         3    ;  uncertainty k = 0.155785
         4        10         1        33     9      180.000000       -0.141300         4    ;  uncertainty k = 0.079428
         4        10         1        34     9        0.000000       -1.858871         1    ;  uncertainty k = 0.333669
         4        10         1        34     9      180.000000       -0.004379         2    ;  uncertainty k = 0.147655
         4        10         1        34     9        0.000000        0.298804         3    ;  uncertainty k = 0.155785
         4        10         1        34     9      180.000000       -0.141300         4    ;  uncertainty k = 0.079428
         4        10        27         9     9        0.000000       -2.494622         1    ;  uncertainty k = 0.359465
         4        10        27         9     9      180.000000        0.494401         2    ;  uncertainty k = 0.189999
         4        10        27         9     9        0.000000        0.369121         3    ;  uncertainty k = 0.120848
         4        10        27         9     9      180.000000        0.362253         4    ;  uncertainty k = 0.080871
         4        10        27        43     9        0.000000        2.787690         1    ;  uncertainty k = 0.893880
         4        10        27        43     9      180.000000       -0.663636         2    ;  uncertainty k = 0.236090
         4        10        27        43     9        0.000000        0.218247         3    ;  uncertainty k = 0.119918
         4        10        27        43     9      180.000000        0.123443         4    ;  uncertainty k = 0.073280
         5         8        19        15     9        0.000000       -0.306313         1    ;  uncertainty k = 0.505391
         5         8        19        15     9      180.000000        5.699560         2    ;  uncertainty k = 1.071993
         5         8        19        15     9        0.000000        0.341049         3    ;  uncertainty k = 0.427163
         5         8        19        15     9      180.000000        1.286695         4    ;  uncertainty k = 0.336491
         5         8        19        22     9        0.000000        0.217251         1    ;  uncertainty k = 0.183771
         5         8        19        22     9      180.000000        8.076965         2    ;  uncertainty k = 0.440504
         5         8        19        22     9        0.000000        1.333378         3    ;  uncertainty k = 0.196600
         5         8        19        22     9      180.000000        1.703177         4    ;  uncertainty k = 0.102000
         5        13        14        15     9        0.000000        0.006656         1    ;  uncertainty k = 0.178742
         5        13        14        15     9      180.000000        9.851306         2    ;  uncertainty k = 0.487067
         5        13        14        15     9        0.000000       -0.289375         3    ;  uncertainty k = 0.510037
         5        13        14        15     9      180.000000        1.102178         4    ;  uncertainty k = 0.341530
         5        13        14        28     9        0.000000        0.058690         1    ;  uncertainty k = 0.184961
         5        13        14        28     9      180.000000        5.722279         2    ;  uncertainty k = 0.634542
         5        13        14        28     9        0.000000        1.318867         3    ;  uncertainty k = 0.348930
         5        13        14        28     9      180.000000        1.524759         4    ;  uncertainty k = 0.200416
         6         2         1        10     9        0.000000       -0.987582         1    ;  uncertainty k = 1.101439
         6         2         1        10     9      180.000000       -3.903899         2    ;  uncertainty k = 0.673250
         6         2         1        10     9        0.000000        1.869479         3    ;  uncertainty k = 0.389552
         6         2         1        10     9      180.000000       -0.727265         4    ;  uncertainty k = 0.139798
         6         2         1        33     9        0.000000       -1.784485         1    ;  uncertainty k = 0.521414
         6         2         1        33     9      180.000000       -0.100756         2    ;  uncertainty k = 0.269946
         6         2         1        33     9        0.000000        1.457848         3    ;  uncertainty k = 0.236776
         6         2         1        33     9      180.000000       -0.196225         4    ;  uncertainty k = 0.165688
         6         2         1        34     9        0.000000       -1.784485         1    ;  uncertainty k = 0.521414
         6         2         1        34     9      180.000000       -0.100756         2    ;  uncertainty k = 0.269946
         6         2         1        34     9        0.000000        1.457848         3    ;  uncertainty k = 0.236776
         6         2         1        34     9      180.000000       -0.196225         4    ;  uncertainty k = 0.165688
         6         3         4        10     9        0.000000       -0.987582         1    ;  uncertainty k = 1.101439
         6         3         4        10     9      180.000000       -3.903899         2    ;  uncertainty k = 0.673250
         6         3         4        10     9        0.000000        1.869479         3    ;  uncertainty k = 0.389552
         6         3         4        10     9      180.000000       -0.727265         4    ;  uncertainty k = 0.139798
         6         3         4        39     9        0.000000       -1.784485         1    ;  uncertainty k = 0.521414
         6         3         4        39     9      180.000000       -0.100756         2    ;  uncertainty k = 0.269946
         6         3         4        39     9        0.000000        1.457848         3    ;  uncertainty k = 0.236776
         6         3         4        39     9      180.000000       -0.196225         4    ;  uncertainty k = 0.165688
         6         3         4        40     9        0.000000       -1.784485         1    ;  uncertainty k = 0.521414
         6         3         4        40     9      180.000000       -0.100756         2    ;  uncertainty k = 0.269946
         6         3         4        40     9        0.000000        1.457848         3    ;  uncertainty k = 0.236776
         6         3         4        40     9      180.000000       -0.196225         4    ;  uncertainty k = 0.165688
         7        18        12        11     9        0.000000        0.247411         1    ;  uncertainty k = 0.669570
         7        18        12        11     9      180.000000       13.242143         2    ;  uncertainty k = 0.426528
         7        18        12        11     9        0.000000        1.556109         3    ;  uncertainty k = 0.157032
         7        18        12        11     9      180.000000        1.156816         4    ;  uncertainty k = 0.297191
         7        18        12        31     9        0.000000        0.204990         1    ;  uncertainty k = 0.577575
         7        18        12        31     9      180.000000       10.976667         2    ;  uncertainty k = 0.616406
         7        18        12        31     9        0.000000        1.619981         3    ;  uncertainty k = 0.450860
         7        18        12        31     9      180.000000        1.195260         4    ;  uncertainty k = 0.094218
         7        18        22        19     9        0.000000        2.897253         1    ;  uncertainty k = 2.305959
         7        18        22        19     9      180.000000        3.054509         2    ;  uncertainty k = 0.313102
         7        18        22        19     9        0.000000        1.867175         3    ;  uncertainty k = 0.354463
         7        18        22        19     9      180.000000        0.163055         4    ;  uncertainty k = 0.219970
         7        25        16        11     9        0.000000        1.223129         1    ;  uncertainty k = 1.464061
         7        25        16        11     9      180.000000        4.292001         2    ;  uncertainty k = 1.044163
         7        25        16        11     9        0.000000        0.516116         3    ;  uncertainty k = 0.547206
         7        25        16        11     9      180.000000        0.109692         4    ;  uncertainty k = 0.115406
         7        25        16        26     9        0.000000       -0.114808         1    ;  uncertainty k = 1.648115
         7        25        16        26     9      180.000000        7.809682         2    ;  uncertainty k = 0.698491
         7        25        16        26     9        0.000000        1.118786         3    ;  uncertainty k = 0.553885
         7        25        16        26     9      180.000000       -0.200904         4    ;  uncertainty k = 0.263504
         7        25        46        42     9        0.000000        0.341220         1    ;  uncertainty k = 0.465131
         7        25        46        42     9      180.000000        1.043980         2    ;  uncertainty k = 0.755955
         7        25        46        42     9        0.000000        0.025845         3    ;  uncertainty k = 0.221488
         7        25        46        42     9      180.000000        0.627747         4    ;  uncertainty k = 0.150972
         7        25        46        45     9        0.000000        0.650053         1    ;  uncertainty k = 0.838778
         7        25        46        45     9      180.000000        0.951021         2    ;  uncertainty k = 0.235377
         7        25        46        45     9        0.000000        0.286203         3    ;  uncertainty k = 0.357576
         7        25        46        45     9      180.000000        0.133187         4    ;  uncertainty k = 0.082049
         7        25        46        47     9        0.000000        0.650053         1    ;  uncertainty k = 0.838778
         7        25        46        47     9      180.000000        0.951021         2    ;  uncertainty k = 0.235377
         7        25        46        47     9        0.000000        0.286203         3    ;  uncertainty k = 0.357576
         7        25        46        47     9      180.000000        0.133187         4    ;  uncertainty k = 0.082049
         8         5        13        14     9        0.000000       -0.049959         1    ;  uncertainty k = 0.238365
         8         5        13        14     9      180.000000        8.709297         2    ;  uncertainty k = 0.507640
         8         5        13        14     9        0.000000       -0.103094         3    ;  uncertainty k = 0.454333
         8         5        13        14     9      180.000000        1.263124         4    ;  uncertainty k = 0.287252
         8         5        13        21     9        0.000000        0.023050         1    ;  uncertainty k = 0.157478
         8         5        13        21     9      180.000000       12.231401         2    ;  uncertainty k = 0.567990
         8         5        13        21     9        0.000000        1.527926         3    ;  uncertainty k = 0.329456
         8         5        13        21     9      180.000000        1.522411         4    ;  uncertainty k = 0.258192
         8        19        15        14     9        0.000000        0.015776         1    ;  uncertainty k = 0.049644
         8        19        15        14     9      180.000000        9.130352         2    ;  uncertainty k = 0.496855
         8        19        15        14     9        0.000000        0.154802         3    ;  uncertainty k = 0.380221
         8        19        15        14     9      180.000000        1.321067         4    ;  uncertainty k = 0.368043
         8        19        15        29     9        0.000000        0.146476         1    ;  uncertainty k = 0.242432
         8        19        15        29     9      180.000000        6.097361         2    ;  uncertainty k = 0.718867
         8        19        15        29     9        0.000000        1.323120         3    ;  uncertainty k = 0.435541
         8        19        15        29     9      180.000000        1.565701         4    ;  uncertainty k = 0.129358
         8        19        22        18     9        0.000000        3.680796         1    ;  uncertainty k = 0.791766
         8        19        22        18     9      180.000000        2.938276         2    ;  uncertainty k = 0.344508
         8        19        22        18     9        0.000000        0.847725         3    ;  uncertainty k = 0.237970
         8        19        22        18     9      180.000000        0.048982         4    ;  uncertainty k = 0.185488
         9        23        17        11     9        0.000000       -0.115923         1    ;  uncertainty k = 0.762621
         9        23        17        11     9      180.000000       17.288898         2    ;  uncertainty k = 0.583017
         9        23        17        11     9        0.000000       -0.514163         3    ;  uncertainty k = 0.664278
         9        23        17        11     9      180.000000        1.630182         4    ;  uncertainty k = 0.612806
         9        23        17        32     9        0.000000        0.092794         1    ;  uncertainty k = 0.990614
         9        23        17        32     9      180.000000       17.948243         2    ;  uncertainty k = 0.661330
         9        23        17        32     9        0.000000        1.364332         3    ;  uncertainty k = 0.783163
         9        23        17        32     9      180.000000        1.150758         4    ;  uncertainty k = 0.474189
         9        26        16        11     9        0.000000        0.249323         1    ;  uncertainty k = 0.756812
         9        26        16        11     9      180.000000       13.118172         2    ;  uncertainty k = 0.666078
         9        26        16        11     9        0.000000        0.161059         3    ;  uncertainty k = 0.899387
         9        26        16        11     9      180.000000        1.057182         4    ;  uncertainty k = 0.436383
         9        26        16        25     9        0.000000        0.633776         1    ;  uncertainty k = 0.811911
         9        26        16        25     9      180.000000       15.733434         2    ;  uncertainty k = 0.952651
         9        26        16        25     9        0.000000        1.803464         3    ;  uncertainty k = 0.279098
         9        26        16        25     9      180.000000        1.052343         4    ;  uncertainty k = 0.371656
         9        27        10        41     9        0.000000       -0.158890         1    ;  uncertainty k = 0.459285
         9        27        10        41     9      180.000000       -0.295330         2    ;  uncertainty k = 0.112831
         9        27        10        41     9        0.000000        0.048093         3    ;  uncertainty k = 0.158185
         9        27        10        41     9      180.000000        0.285755         4    ;  uncertainty k = 0.069997
        10         1         2        35     9        0.000000        3.577617         1    ;  uncertainty k = 1.073611
        10         1         2        35     9      180.000000       -2.876486         2    ;  uncertainty k = 0.518010
        10         1         2        35     9        0.000000       -0.152945         3    ;  uncertainty k = 0.197941
        10         1         2        35     9      180.000000        0.397574         4    ;  uncertainty k = 0.144225
        10         1         2        36     9        0.000000        3.577617         1    ;  uncertainty k = 1.073611
        10         1         2        36     9      180.000000       -2.876486         2    ;  uncertainty k = 0.518010
        10         1         2        36     9        0.000000       -0.152945         3    ;  uncertainty k = 0.197941
        10         1         2        36     9      180.000000        0.397574         4    ;  uncertainty k = 0.144225
        10         4         3        37     9        0.000000        3.577617         1    ;  uncertainty k = 1.073611
        10         4         3        37     9      180.000000       -2.876486         2    ;  uncertainty k = 0.518010
        10         4         3        37     9        0.000000       -0.152945         3    ;  uncertainty k = 0.197941
        10         4         3        37     9      180.000000        0.397574         4    ;  uncertainty k = 0.144225
        10         4         3        38     9        0.000000        3.577617         1    ;  uncertainty k = 1.073611
        10         4         3        38     9      180.000000       -2.876486         2    ;  uncertainty k = 0.518010
        10         4         3        38     9        0.000000       -0.152945         3    ;  uncertainty k = 0.197941
        10         4         3        38     9      180.000000        0.397574         4    ;  uncertainty k = 0.144225
        10        27         9        23     9        0.000000        9.134423         1    ;  uncertainty k = 0.696250
        10        27         9        23     9      180.000000       11.355840         2    ;  uncertainty k = 0.243240
        10        27         9        23     9        0.000000        1.389211         3    ;  uncertainty k = 0.178924
        10        27         9        23     9      180.000000       -0.347848         4    ;  uncertainty k = 0.040148
        10        27         9        26     9        0.000000       10.027399         1    ;  uncertainty k = 0.756143
        10        27         9        26     9      180.000000       11.516877         2    ;  uncertainty k = 0.181277
        10        27         9        26     9        0.000000        1.275886         3    ;  uncertainty k = 0.216125
        10        27         9        26     9      180.000000       -0.386522         4    ;  uncertainty k = 0.071930
        11        12        18        22     9        0.000000        0.167066         1    ;  uncertainty k = 0.332214
        11        12        18        22     9      180.000000       21.138729         2    ;  uncertainty k = 0.651370
        11        12        18        22     9        0.000000        2.037764         3    ;  uncertainty k = 0.300403
        11        12        18        22     9      180.000000        0.659653         4    ;  uncertainty k = 0.565664
        11        16        25        46     9        0.000000        2.523855         1    ;  uncertainty k = 1.363017
        11        16        25        46     9      180.000000        8.905729         2    ;  uncertainty k = 0.400790
        11        16        25        46     9        0.000000        1.041595         3    ;  uncertainty k = 0.769619
        11        16        25        46     9      180.000000       -0.142719         4    ;  uncertainty k = 0.412056
        12        11        16        25     9        0.000000       -0.068615         1    ;  uncertainty k = 0.351674
        12        11        16        25     9      180.000000        7.455628         2    ;  uncertainty k = 0.422433
        12        11        16        25     9        0.000000        0.288086         3    ;  uncertainty k = 0.448998
        12        11        16        25     9      180.000000        1.086982         4    ;  uncertainty k = 0.172623
        12        11        16        26     9        0.000000        0.304292         1    ;  uncertainty k = 1.059067
        12        11        16        26     9      180.000000        8.118359         2    ;  uncertainty k = 1.277512
        12        11        16        26     9        0.000000        0.095662         3    ;  uncertainty k = 0.304088
        12        11        16        26     9      180.000000        1.318587         4    ;  uncertainty k = 0.502251
        12        11        17        23     9        0.000000        0.228880         1    ;  uncertainty k = 0.390993
        12        11        17        23     9      180.000000       10.819239         2    ;  uncertainty k = 0.534393
        12        11        17        23     9        0.000000        0.247579         3    ;  uncertainty k = 0.250221
        12        11        17        23     9      180.000000        1.240462         4    ;  uncertainty k = 0.337256
        12        11        17        32     9        0.000000       -0.464177         1    ;  uncertainty k = 0.616923
        12        11        17        32     9      180.000000        5.990824         2    ;  uncertainty k = 0.651878
        12        11        17        32     9        0.000000        0.810229         3    ;  uncertainty k = 0.265204
        12        11        17        32     9      180.000000        0.683135         4    ;  uncertainty k = 0.181168
        12        18         7        24     9        0.000000       -2.785973         1    ;  uncertainty k = 0.983678
        12        18         7        24     9      180.000000        2.771788         2    ;  uncertainty k = 0.976920
        12        18         7        24     9        0.000000       -0.188142         3    ;  uncertainty k = 0.391664
        12        18         7        24     9      180.000000       -0.024150         4    ;  uncertainty k = 0.207850
        12        18         7        25     9        0.000000        2.299053         1    ;  uncertainty k = 2.326714
        12        18         7        25     9      180.000000        0.249456         2    ;  uncertainty k = 0.989345
        12        18         7        25     9        0.000000        0.400480         3    ;  uncertainty k = 0.320016
        12        18         7        25     9      180.000000        0.380739         4    ;  uncertainty k = 0.164205
        12        18        22        19     9        0.000000        6.099125         1    ;  uncertainty k = 1.058861
        12        18        22        19     9      180.000000        6.395431         2    ;  uncertainty k = 0.115897
        12        18        22        19     9        0.000000       -0.846049         3    ;  uncertainty k = 0.375974
        12        18        22        19     9      180.000000        0.121655         4    ;  uncertainty k = 0.106577
        13         5         8        19     9        0.000000       -0.028157         1    ;  uncertainty k = 0.164194
        13         5         8        19     9      180.000000        8.671004         2    ;  uncertainty k = 0.512359
        13         5         8        19     9        0.000000        0.207433         3    ;  uncertainty k = 0.509188
        13         5         8        19     9      180.000000        1.302601         4    ;  uncertainty k = 0.281851
        13         5         8        20     9        0.000000       -0.002392         1    ;  uncertainty k = 0.247129
        13         5         8        20     9      180.000000       13.084887         2    ;  uncertainty k = 0.509633
        13         5         8        20     9        0.000000        1.474366         3    ;  uncertainty k = 0.306558
        13         5         8        20     9      180.000000        1.520558         4    ;  uncertainty k = 0.243651
        13        14        15        19     9        0.000000       -0.113542         1    ;  uncertainty k = 0.211768
        13        14        15        19     9      180.000000       13.972594         2    ;  uncertainty k = 0.306737
        13        14        15        19     9        0.000000       -0.786444         3    ;  uncertainty k = 0.554355
        13        14        15        19     9      180.000000        0.930464         4    ;  uncertainty k = 0.288428
        13        14        15        29     9        0.000000       -0.003440         1    ;  uncertainty k = 0.095641
        13        14        15        29     9      180.000000        7.538138         2    ;  uncertainty k = 0.273713
        13        14        15        29     9        0.000000        1.412643         3    ;  uncertainty k = 0.270752
        13        14        15        29     9      180.000000        1.740927         4    ;  uncertainty k = 0.123790
        14        13         5        30     9        0.000000        0.138635         1    ;  uncertainty k = 0.151239
        14        13         5        30     9      180.000000        5.451074         2    ;  uncertainty k = 0.660632
        14        13         5        30     9        0.000000        1.286115         3    ;  uncertainty k = 0.294094
        14        13         5        30     9      180.000000        1.480963         4    ;  uncertainty k = 0.179055
        14        15        19        22     9        0.000000       -0.063428         1    ;  uncertainty k = 0.390958
        14        15        19        22     9      180.000000       11.002314         2    ;  uncertainty k = 0.443946
        14        15        19        22     9        0.000000        1.356464         3    ;  uncertainty k = 0.240369
        14        15        19        22     9      180.000000        1.736595         4    ;  uncertainty k = 0.121238
        15        14        13        21     9        0.000000       -0.032001         1    ;  uncertainty k = 0.254449
        15        14        13        21     9      180.000000       12.251927         2    ;  uncertainty k = 0.522356
        15        14        13        21     9        0.000000        1.414423         3    ;  uncertainty k = 0.230243
        15        14        13        21     9      180.000000        1.530094         4    ;  uncertainty k = 0.209632
        15        19         8        20     9        0.000000        0.257162         1    ;  uncertainty k = 0.251999
        15        19         8        20     9      180.000000        8.387430         2    ;  uncertainty k = 0.311300
        15        19         8        20     9        0.000000        1.426919         3    ;  uncertainty k = 0.223314
        15        19         8        20     9      180.000000        1.675064         4    ;  uncertainty k = 0.138706
        15        19        22        18     9        0.000000        4.696425         1    ;  uncertainty k = 1.055900
        15        19        22        18     9      180.000000        3.962376         2    ;  uncertainty k = 0.177602
        15        19        22        18     9        0.000000        0.372057         3    ;  uncertainty k = 0.324582
        15        19        22        18     9      180.000000        0.124920         4    ;  uncertainty k = 0.078963
        16        11        12        18     9        0.000000       -0.027993         1    ;  uncertainty k = 1.098878
        16        11        12        18     9      180.000000        6.548855         2    ;  uncertainty k = 0.861096
        16        11        12        18     9        0.000000        0.261120         3    ;  uncertainty k = 0.389105
        16        11        12        18     9      180.000000        0.525394         4    ;  uncertainty k = 0.182366
        16        11        12        31     9        0.000000        0.508380         1    ;  uncertainty k = 1.304821
        16        11        12        31     9      180.000000        6.386433         2    ;  uncertainty k = 0.572706
        16        11        12        31     9        0.000000        1.085382         3    ;  uncertainty k = 0.244133
        16        11        12        31     9      180.000000        0.157412         4    ;  uncertainty k = 0.186971
        16        11        17        23     9        0.000000       -0.050114         1    ;  uncertainty k = 0.633285
        16        11        17        23     9      180.000000       11.857421         2    ;  uncertainty k = 0.312113
        16        11        17        23     9        0.000000       -0.964544         3    ;  uncertainty k = 0.823060
        16        11        17        23     9      180.000000        0.817940         4    ;  uncertainty k = 0.169160
        16        11        17        32     9        0.000000       -0.173900         1    ;  uncertainty k = 0.896790
        16        11        17        32     9      180.000000        6.461610         2    ;  uncertainty k = 0.786303
        16        11        17        32     9        0.000000        0.645671         3    ;  uncertainty k = 0.058243
        16        11        17        32     9      180.000000        0.776372         4    ;  uncertainty k = 0.251607
        16        25         7        18     9        0.000000        1.387055         1    ;  uncertainty k = 1.727911
        16        25         7        18     9      180.000000        1.776203         2    ;  uncertainty k = 1.263914
        16        25         7        18     9        0.000000        0.992454         3    ;  uncertainty k = 0.181527
        16        25         7        18     9      180.000000        0.491597         4    ;  uncertainty k = 0.247316
        16        25         7        24     9        0.000000        2.599399         1    ;  uncertainty k = 2.677414
        16        25         7        24     9      180.000000       13.235782         2    ;  uncertainty k = 0.556358
        16        25         7        24     9        0.000000        1.119291         3    ;  uncertainty k = 0.195597
        16        25         7        24     9      180.000000       -0.340922         4    ;  uncertainty k = 0.510358
        16        25        46        42     9        0.000000       -0.517801         1    ;  uncertainty k = 1.087648
        16        25        46        42     9      180.000000        1.236261         2    ;  uncertainty k = 0.576154
        16        25        46        42     9        0.000000       -0.103135         3    ;  uncertainty k = 0.290238
        16        25        46        42     9      180.000000        0.557064         4    ;  uncertainty k = 0.152857
        16        25        46        45     9        0.000000        0.024639         1    ;  uncertainty k = 0.544730
        16        25        46        45     9      180.000000        1.639692         2    ;  uncertainty k = 0.674154
        16        25        46        45     9        0.000000        0.192499         3    ;  uncertainty k = 0.209444
        16        25        46        45     9      180.000000        0.182803         4    ;  uncertainty k = 0.097715
        16        25        46        47     9        0.000000        0.024639         1    ;  uncertainty k = 0.544730
        16        25        46        47     9      180.000000        1.639692         2    ;  uncertainty k = 0.674154
        16        25        46        47     9        0.000000        0.192499         3    ;  uncertainty k = 0.209444
        16        25        46        47     9      180.000000        0.182803         4    ;  uncertainty k = 0.097715
        16        26         9        23     9        0.000000       -0.217909         1    ;  uncertainty k = 1.870111
        16        26         9        23     9      180.000000        6.530834         2    ;  uncertainty k = 0.903873
        16        26         9        23     9        0.000000        1.205300         3    ;  uncertainty k = 0.719590
        16        26         9        23     9      180.000000        0.769257         4    ;  uncertainty k = 0.333564
        16        26         9        27     9        0.000000        0.435058         1    ;  uncertainty k = 1.889390
        16        26         9        27     9      180.000000        8.785063         2    ;  uncertainty k = 0.614097
        16        26         9        27     9        0.000000        2.000461         3    ;  uncertainty k = 0.406448
        16        26         9        27     9      180.000000        0.885856         4    ;  uncertainty k = 0.336933
        17        11        12        18     9        0.000000        0.192558         1    ;  uncertainty k = 0.590209
        17        11        12        18     9      180.000000        5.384961         2    ;  uncertainty k = 1.095735
        17        11        12        18     9        0.000000        0.950221         3    ;  uncertainty k = 0.333064
        17        11        12        18     9      180.000000        0.386757         4    ;  uncertainty k = 0.246718
        17        11        12        31     9        0.000000        0.391258         1    ;  uncertainty k = 0.937315
        17        11        12        31     9      180.000000        5.438048         2    ;  uncertainty k = 0.318051
        17        11        12        31     9        0.000000        0.941734         3    ;  uncertainty k = 0.357381
        17        11        12        31     9      180.000000        0.075878         4    ;  uncertainty k = 0.153278
        17        11        16        25     9        0.000000       -0.923917         1    ;  uncertainty k = 0.794407
        17        11        16        25     9      180.000000        5.911000         2    ;  uncertainty k = 0.862203
        17        11        16        25     9        0.000000        0.105963         3    ;  uncertainty k = 0.346040
        17        11        16        25     9      180.000000        1.039012         4    ;  uncertainty k = 0.303615
        17        11        16        26     9        0.000000       -0.032130         1    ;  uncertainty k = 0.656544
        17        11        16        26     9      180.000000        7.529407         2    ;  uncertainty k = 1.072125
        17        11        16        26     9        0.000000       -0.299787         3    ;  uncertainty k = 0.282389
        17        11        16        26     9      180.000000        1.215467         4    ;  uncertainty k = 0.604945
        17        23         9        26     9        0.000000        0.032315         1    ;  uncertainty k = 0.831374
        17        23         9        26     9      180.000000        6.486731         2    ;  uncertainty k = 1.305876
        17        23         9        26     9        0.000000        0.841926         3    ;  uncertainty k = 0.525144
        17        23         9        26     9      180.000000        0.518573         4    ;  uncertainty k = 0.211406
        17        23         9        27     9        0.000000        0.323980         1    ;  uncertainty k = 0.795261
        17        23         9        27     9      180.000000        7.727452         2    ;  uncertainty k = 0.526396
        17        23         9        27     9        0.000000        1.842417         3    ;  uncertainty k = 0.688549
        17        23         9        27     9      180.000000        0.636474         4    ;  uncertainty k = 0.279982
        18         7        25        46     9        0.000000        1.394850         1    ;  uncertainty k = 1.146698
        18         7        25        46     9      180.000000        6.942708         2    ;  uncertainty k = 0.979274
        18         7        25        46     9        0.000000        1.582725         3    ;  uncertainty k = 0.146924
        18         7        25        46     9      180.000000       -0.138000         4    ;  uncertainty k = 0.378206
        19         8         5        30     9        0.000000        0.057379         1    ;  uncertainty k = 0.165911
        19         8         5        30     9      180.000000        5.716951         2    ;  uncertainty k = 0.832327
        19         8         5        30     9        0.000000        1.299980         3    ;  uncertainty k = 0.327602
        19         8         5        30     9      180.000000        1.492424         4    ;  uncertainty k = 0.176810
        19        15        14        28     9        0.000000        0.076709         1    ;  uncertainty k = 0.186984
        19        15        14        28     9      180.000000        7.523892         2    ;  uncertainty k = 0.356925
        19        15        14        28     9        0.000000        1.389232         3    ;  uncertainty k = 0.254789
        19        15        14        28     9      180.000000        1.744370         4    ;  uncertainty k = 0.166848
        20         8         5        30     9        0.000000       -0.230980         1    ;  uncertainty k = 0.291748
        20         8         5        30     9      180.000000        9.239380         2    ;  uncertainty k = 0.341179
        20         8         5        30     9        0.000000        0.839928         3    ;  uncertainty k = 0.293710
        20         8         5        30     9      180.000000        1.043063         4    ;  uncertainty k = 0.201990
        20         8        19        22     9        0.000000       -0.105953         1    ;  uncertainty k = 0.351941
        20         8        19        22     9      180.000000       12.158803         2    ;  uncertainty k = 0.215696
        20         8        19        22     9        0.000000        1.161050         3    ;  uncertainty k = 0.365573
        20         8        19        22     9      180.000000        1.264683         4    ;  uncertainty k = 0.193588
        21        13         5        30     9        0.000000       -0.271891         1    ;  uncertainty k = 0.249928
        21        13         5        30     9      180.000000        8.500019         2    ;  uncertainty k = 0.281498
        21        13         5        30     9        0.000000        0.815708         3    ;  uncertainty k = 0.327842
        21        13         5        30     9      180.000000        0.992978         4    ;  uncertainty k = 0.194491
        21        13        14        28     9        0.000000       -0.357248         1    ;  uncertainty k = 0.222188
        21        13        14        28     9      180.000000        8.920407         2    ;  uncertainty k = 0.265967
        21        13        14        28     9        0.000000        0.818892         3    ;  uncertainty k = 0.249596
        21        13        14        28     9      180.000000        0.905586         4    ;  uncertainty k = 0.175017
        22        18         7        24     9        0.000000       -2.096863         1    ;  uncertainty k = 1.557111
        22        18         7        24     9      180.000000        9.466724         2    ;  uncertainty k = 0.627364
        22        18         7        24     9        0.000000        0.209051         3    ;  uncertainty k = 0.517622
        22        18         7        24     9      180.000000       -0.327042         4    ;  uncertainty k = 0.468473
        22        18         7        25     9        0.000000        1.575435         1    ;  uncertainty k = 1.118308
        22        18         7        25     9      180.000000        3.019504         2    ;  uncertainty k = 0.730681
        22        18         7        25     9        0.000000        0.634405         3    ;  uncertainty k = 0.357633
        22        18         7        25     9      180.000000        0.584717         4    ;  uncertainty k = 0.138059
        22        18        12        31     9        0.000000        0.193133         1    ;  uncertainty k = 0.786135
        22        18        12        31     9      180.000000       16.290122         2    ;  uncertainty k = 0.455058
        22        18        12        31     9        0.000000        1.918007         3    ;  uncertainty k = 0.081132
        22        18        12        31     9      180.000000        0.958995         4    ;  uncertainty k = 0.579198
        22        19        15        29     9        0.000000       -0.021117         1    ;  uncertainty k = 0.161289
        22        19        15        29     9      180.000000        8.756894         2    ;  uncertainty k = 0.244370
        22        19        15        29     9        0.000000        0.882174         3    ;  uncertainty k = 0.266128
        22        19        15        29     9      180.000000        1.205856         4    ;  uncertainty k = 0.153798
        23         9        27        43     9        0.000000       10.293445         1    ;  uncertainty k = 0.672357
        23         9        27        43     9      180.000000        9.748348         2    ;  uncertainty k = 0.257343
        23         9        27        43     9        0.000000        1.252652         3    ;  uncertainty k = 0.575484
        23         9        27        43     9      180.000000       -0.444344         4    ;  uncertainty k = 0.254977
        24         7        25        46     9        0.000000        2.653989         1    ;  uncertainty k = 1.109243
        24         7        25        46     9      180.000000       13.638149         2    ;  uncertainty k = 0.372733
        24         7        25        46     9        0.000000        0.696096         3    ;  uncertainty k = 0.264100
        24         7        25        46     9      180.000000       -0.244654         4    ;  uncertainty k = 0.370083
        25        46        45        44     9        0.000000       -2.667873         1    ;  uncertainty k = 1.306217
        25        46        45        44     9      180.000000       -2.153607         2    ;  uncertainty k = 0.545755
        25        46        45        44     9        0.000000        0.753941         3    ;  uncertainty k = 0.214363
        25        46        45        44     9      180.000000        0.066497         4    ;  uncertainty k = 0.126128
        25        46        45        51     9        0.000000        1.606049         1    ;  uncertainty k = 0.665292
        25        46        45        51     9      180.000000       -2.418482         2    ;  uncertainty k = 0.626608
        25        46        45        51     9        0.000000        0.792674         3    ;  uncertainty k = 0.239382
        25        46        45        51     9      180.000000       -0.179996         4    ;  uncertainty k = 0.119981
        25        46        45        52     9        0.000000        1.606049         1    ;  uncertainty k = 0.665292
        25        46        45        52     9      180.000000       -2.418482         2    ;  uncertainty k = 0.626608
        25        46        45        52     9        0.000000        0.792674         3    ;  uncertainty k = 0.239382
        25        46        45        52     9      180.000000       -0.179996         4    ;  uncertainty k = 0.119981
        25        46        47        48     9        0.000000       -2.667873         1    ;  uncertainty k = 1.306217
        25        46        47        48     9      180.000000       -2.153607         2    ;  uncertainty k = 0.545755
        25        46        47        48     9        0.000000        0.753941         3    ;  uncertainty k = 0.214363
        25        46        47        48     9      180.000000        0.066497         4    ;  uncertainty k = 0.126128
        25        46        47        53     9        0.000000        1.606049         1    ;  uncertainty k = 0.665292
        25        46        47        53     9      180.000000       -2.418482         2    ;  uncertainty k = 0.626608
        25        46        47        53     9        0.000000        0.792674         3    ;  uncertainty k = 0.239382
        25        46        47        53     9      180.000000       -0.179996         4    ;  uncertainty k = 0.119981
        25        46        47        54     9        0.000000        1.606049         1    ;  uncertainty k = 0.665292
        25        46        47        54     9      180.000000       -2.418482         2    ;  uncertainty k = 0.626608
        25        46        47        54     9        0.000000        0.792674         3    ;  uncertainty k = 0.239382
        25        46        47        54     9      180.000000       -0.179996         4    ;  uncertainty k = 0.119981
        26         9        27        43     9        0.000000       12.476324         1    ;  uncertainty k = 0.688339
        26         9        27        43     9      180.000000       10.289759         2    ;  uncertainty k = 0.393329
        26         9        27        43     9        0.000000        1.210252         3    ;  uncertainty k = 0.562810
        26         9        27        43     9      180.000000       -0.543949         4    ;  uncertainty k = 0.169444
        26        16        25        46     9        0.000000        2.008350         1    ;  uncertainty k = 1.753897
        26        16        25        46     9      180.000000       11.402409         2    ;  uncertainty k = 0.379404
        26        16        25        46     9        0.000000        1.023628         3    ;  uncertainty k = 0.258384
        26        16        25        46     9      180.000000       -0.048443         4    ;  uncertainty k = 0.215885
        27        10         1        33     9        0.000000       -0.664477         1    ;  uncertainty k = 0.439753
        27        10         1        33     9      180.000000       -0.719545         2    ;  uncertainty k = 0.206247
        27        10         1        33     9        0.000000        1.110830         3    ;  uncertainty k = 0.090613
        27        10         1        33     9      180.000000       -0.312617         4    ;  uncertainty k = 0.084156
        27        10         1        34     9        0.000000       -0.664477         1    ;  uncertainty k = 0.439753
        27        10         1        34     9      180.000000       -0.719545         2    ;  uncertainty k = 0.206247
        27        10         1        34     9        0.000000        1.110830         3    ;  uncertainty k = 0.090613
        27        10         1        34     9      180.000000       -0.312617         4    ;  uncertainty k = 0.084156
        27        10         4        39     9        0.000000       -0.664477         1    ;  uncertainty k = 0.439753
        27        10         4        39     9      180.000000       -0.719545         2    ;  uncertainty k = 0.206247
        27        10         4        39     9        0.000000        1.110830         3    ;  uncertainty k = 0.090613
        27        10         4        39     9      180.000000       -0.312617         4    ;  uncertainty k = 0.084156
        27        10         4        40     9        0.000000       -0.664477         1    ;  uncertainty k = 0.439753
        27        10         4        40     9      180.000000       -0.719545         2    ;  uncertainty k = 0.206247
        27        10         4        40     9        0.000000        1.110830         3    ;  uncertainty k = 0.090613
        27        10         4        40     9      180.000000       -0.312617         4    ;  uncertainty k = 0.084156
        28        14        15        29     9        0.000000        0.032265         1    ;  uncertainty k = 0.250069
        28        14        15        29     9      180.000000        7.287468         2    ;  uncertainty k = 0.427630
        28        14        15        29     9        0.000000       -0.295849         3    ;  uncertainty k = 0.226115
        28        14        15        29     9      180.000000        0.117549         4    ;  uncertainty k = 0.137082
        33         1         2        35     9        0.000000       -0.225271         1    ;  uncertainty k = 0.371621
        33         1         2        35     9      180.000000        0.719911         2    ;  uncertainty k = 0.314572
        33         1         2        35     9        0.000000        0.112053         3    ;  uncertainty k = 0.052184
        33         1         2        35     9      180.000000       -0.321413         4    ;  uncertainty k = 0.066104
        33         1         2        36     9        0.000000       -0.225271         1    ;  uncertainty k = 0.371621
        33         1         2        36     9      180.000000        0.719911         2    ;  uncertainty k = 0.314572
        33         1         2        36     9        0.000000        0.112053         3    ;  uncertainty k = 0.052184
        33         1         2        36     9      180.000000       -0.321413         4    ;  uncertainty k = 0.066104
        33         1        10        41     9        0.000000        1.333899         1    ;  uncertainty k = 0.470364
        33         1        10        41     9      180.000000       -0.346033         2    ;  uncertainty k = 0.220492
        33         1        10        41     9        0.000000        0.040957         3    ;  uncertainty k = 0.124052
        33         1        10        41     9      180.000000        0.039296         4    ;  uncertainty k = 0.035575
        34         1         2        35     9        0.000000       -0.225271         1    ;  uncertainty k = 0.371621
        34         1         2        35     9      180.000000        0.719911         2    ;  uncertainty k = 0.314572
        34         1         2        35     9        0.000000        0.112053         3    ;  uncertainty k = 0.052184
        34         1         2        35     9      180.000000       -0.321413         4    ;  uncertainty k = 0.066104
        34         1         2        36     9        0.000000       -0.225271         1    ;  uncertainty k = 0.371621
        34         1         2        36     9      180.000000        0.719911         2    ;  uncertainty k = 0.314572
        34         1         2        36     9        0.000000        0.112053         3    ;  uncertainty k = 0.052184
        34         1         2        36     9      180.000000       -0.321413         4    ;  uncertainty k = 0.066104
        34         1        10        41     9        0.000000        1.333899         1    ;  uncertainty k = 0.470364
        34         1        10        41     9      180.000000       -0.346033         2    ;  uncertainty k = 0.220492
        34         1        10        41     9        0.000000        0.040957         3    ;  uncertainty k = 0.124052
        34         1        10        41     9      180.000000        0.039296         4    ;  uncertainty k = 0.035575
        37         3         4        39     9        0.000000       -0.225271         1    ;  uncertainty k = 0.371621
        37         3         4        39     9      180.000000        0.719911         2    ;  uncertainty k = 0.314572
        37         3         4        39     9        0.000000        0.112053         3    ;  uncertainty k = 0.052184
        37         3         4        39     9      180.000000       -0.321413         4    ;  uncertainty k = 0.066104
        37         3         4        40     9        0.000000       -0.225271         1    ;  uncertainty k = 0.371621
        37         3         4        40     9      180.000000        0.719911         2    ;  uncertainty k = 0.314572
        37         3         4        40     9        0.000000        0.112053         3    ;  uncertainty k = 0.052184
        37         3         4        40     9      180.000000       -0.321413         4    ;  uncertainty k = 0.066104
        38         3         4        39     9        0.000000       -0.225271         1    ;  uncertainty k = 0.371621
        38         3         4        39     9      180.000000        0.719911         2    ;  uncertainty k = 0.314572
        38         3         4        39     9        0.000000        0.112053         3    ;  uncertainty k = 0.052184
        38         3         4        39     9      180.000000       -0.321413         4    ;  uncertainty k = 0.066104
        38         3         4        40     9        0.000000       -0.225271         1    ;  uncertainty k = 0.371621
        38         3         4        40     9      180.000000        0.719911         2    ;  uncertainty k = 0.314572
        38         3         4        40     9        0.000000        0.112053         3    ;  uncertainty k = 0.052184
        38         3         4        40     9      180.000000       -0.321413         4    ;  uncertainty k = 0.066104
        39         4        10        41     9        0.000000        1.333899         1    ;  uncertainty k = 0.470364
        39         4        10        41     9      180.000000       -0.346033         2    ;  uncertainty k = 0.220492
        39         4        10        41     9        0.000000        0.040957         3    ;  uncertainty k = 0.124052
        39         4        10        41     9      180.000000        0.039296         4    ;  uncertainty k = 0.035575
        40         4        10        41     9        0.000000        1.333899         1    ;  uncertainty k = 0.470364
        40         4        10        41     9      180.000000       -0.346033         2    ;  uncertainty k = 0.220492
        40         4        10        41     9        0.000000        0.040957         3    ;  uncertainty k = 0.124052
        40         4        10        41     9      180.000000        0.039296         4    ;  uncertainty k = 0.035575
        41        10        27        43     9        0.000000        0.976343         1    ;  uncertainty k = 0.742026
        41        10        27        43     9      180.000000       -1.754256         2    ;  uncertainty k = 0.294903
        41        10        27        43     9        0.000000       -0.016582         3    ;  uncertainty k = 0.098589
        41        10        27        43     9      180.000000        0.124158         4    ;  uncertainty k = 0.074181
        42        46        45        44     9        0.000000       -2.031129         1    ;  uncertainty k = 0.505978
        42        46        45        44     9      180.000000       -0.325893         2    ;  uncertainty k = 0.369234
        42        46        45        44     9        0.000000        0.080000         3    ;  uncertainty k = 0.139423
        42        46        45        44     9      180.000000       -0.313514         4    ;  uncertainty k = 0.057840
        42        46        45        51     9        0.000000        0.714044         1    ;  uncertainty k = 0.284271
        42        46        45        51     9      180.000000       -0.008098         2    ;  uncertainty k = 0.206907
        42        46        45        51     9        0.000000        0.068132         3    ;  uncertainty k = 0.202434
        42        46        45        51     9      180.000000        0.018476         4    ;  uncertainty k = 0.046459
        42        46        45        52     9        0.000000        0.714044         1    ;  uncertainty k = 0.284271
        42        46        45        52     9      180.000000       -0.008098         2    ;  uncertainty k = 0.206907
        42        46        45        52     9        0.000000        0.068132         3    ;  uncertainty k = 0.202434
        42        46        45        52     9      180.000000        0.018476         4    ;  uncertainty k = 0.046459
        42        46        47        48     9        0.000000       -2.031129         1    ;  uncertainty k = 0.505978
        42        46        47        48     9      180.000000       -0.325893         2    ;  uncertainty k = 0.369234
        42        46        47        48     9        0.000000        0.080000         3    ;  uncertainty k = 0.139423
        42        46        47        48     9      180.000000       -0.313514         4    ;  uncertainty k = 0.057840
        42        46        47        53     9        0.000000        0.714044         1    ;  uncertainty k = 0.284271
        42        46        47        53     9      180.000000       -0.008098         2    ;  uncertainty k = 0.206907
        42        46        47        53     9        0.000000        0.068132         3    ;  uncertainty k = 0.202434
        42        46        47        53     9      180.000000        0.018476         4    ;  uncertainty k = 0.046459
        42        46        47        54     9        0.000000        0.714044         1    ;  uncertainty k = 0.284271
        42        46        47        54     9      180.000000       -0.008098         2    ;  uncertainty k = 0.206907
        42        46        47        54     9        0.000000        0.068132         3    ;  uncertainty k = 0.202434
        42        46        47        54     9      180.000000        0.018476         4    ;  uncertainty k = 0.046459
        44        45        46        47     9        0.000000       -0.677396         1    ;  uncertainty k = 2.537681
        44        45        46        47     9      180.000000       -0.214269         2    ;  uncertainty k = 0.780704
        44        45        46        47     9        0.000000        0.532247         3    ;  uncertainty k = 0.466793
        44        45        46        47     9      180.000000       -0.995885         4    ;  uncertainty k = 0.230705
        44        57        48        47     9        0.000000       -6.351615         1    ;  uncertainty k = 1.363083
        44        57        48        47     9      180.000000       -0.098682         2    ;  uncertainty k = 0.400274
        44        57        48        47     9        0.000000       -0.050925         3    ;  uncertainty k = 0.175257
        44        57        48        47     9      180.000000       -0.319263         4    ;  uncertainty k = 0.109324
        44        57        48        55     9        0.000000       -0.407814         1    ;  uncertainty k = 0.660126
        44        57        48        55     9      180.000000       -3.247303         2    ;  uncertainty k = 0.476467
        44        57        48        55     9        0.000000       -0.401702         3    ;  uncertainty k = 0.148195
        44        57        48        55     9      180.000000       -0.194652         4    ;  uncertainty k = 0.161602
        44        57        48        56     9        0.000000       -0.407814         1    ;  uncertainty k = 0.660126
        44        57        48        56     9      180.000000       -3.247303         2    ;  uncertainty k = 0.476467
        44        57        48        56     9        0.000000       -0.401702         3    ;  uncertainty k = 0.148195
        44        57        48        56     9      180.000000       -0.194652         4    ;  uncertainty k = 0.161602
        45        44        57        48     9        0.000000       -6.351615         1    ;  uncertainty k = 1.363083
        45        44        57        48     9      180.000000       -0.098682         2    ;  uncertainty k = 0.400274
        45        44        57        48     9        0.000000       -0.050925         3    ;  uncertainty k = 0.175257
        45        44        57        48     9      180.000000       -0.319263         4    ;  uncertainty k = 0.109324
        45        44        57        58     9        0.000000       -3.940257         1    ;  uncertainty k = 1.439651
        45        44        57        58     9      180.000000        2.123305         2    ;  uncertainty k = 0.293651
        45        44        57        58     9        0.000000        0.923753         3    ;  uncertainty k = 0.266407
        45        44        57        58     9      180.000000        0.035343         4    ;  uncertainty k = 0.065599
        45        44        57        59     9        0.000000       -3.940257         1    ;  uncertainty k = 1.439651
        45        44        57        59     9      180.000000        2.123305         2    ;  uncertainty k = 0.293651
        45        44        57        59     9        0.000000        0.923753         3    ;  uncertainty k = 0.266407
        45        44        57        59     9      180.000000        0.035343         4    ;  uncertainty k = 0.065599
        45        46        47        48     9        0.000000       -0.677396         1    ;  uncertainty k = 2.537681
        45        46        47        48     9      180.000000       -0.214269         2    ;  uncertainty k = 0.780704
        45        46        47        48     9        0.000000        0.532247         3    ;  uncertainty k = 0.466793
        45        46        47        48     9      180.000000       -0.995885         4    ;  uncertainty k = 0.230705
        45        46        47        53     9        0.000000       -1.381200         1    ;  uncertainty k = 0.335987
        45        46        47        53     9      180.000000       -0.256096         2    ;  uncertainty k = 0.131574
        45        46        47        53     9        0.000000        0.242214         3    ;  uncertainty k = 0.175036
        45        46        47        53     9      180.000000       -0.054982         4    ;  uncertainty k = 0.062184
        45        46        47        54     9        0.000000       -1.381200         1    ;  uncertainty k = 0.335987
        45        46        47        54     9      180.000000       -0.256096         2    ;  uncertainty k = 0.131574
        45        46        47        54     9        0.000000        0.242214         3    ;  uncertainty k = 0.175036
        45        46        47        54     9      180.000000       -0.054982         4    ;  uncertainty k = 0.062184
        46        45        44        49     9        0.000000        0.478439         1    ;  uncertainty k = 0.547414
        46        45        44        49     9      180.000000       -1.528458         2    ;  uncertainty k = 0.353207
        46        45        44        49     9        0.000000        0.224677         3    ;  uncertainty k = 0.248661
        46        45        44        49     9      180.000000        0.081326         4    ;  uncertainty k = 0.069446
        46        45        44        50     9        0.000000        0.478439         1    ;  uncertainty k = 0.547414
        46        45        44        50     9      180.000000       -1.528458         2    ;  uncertainty k = 0.353207
        46        45        44        50     9        0.000000        0.224677         3    ;  uncertainty k = 0.248661
        46        45        44        50     9      180.000000        0.081326         4    ;  uncertainty k = 0.069446
        46        45        44        57     9        0.000000        4.912122         1    ;  uncertainty k = 3.022766
        46        45        44        57     9      180.000000       -3.168962         2    ;  uncertainty k = 0.934461
        46        45        44        57     9        0.000000        0.146582         3    ;  uncertainty k = 0.482060
        46        45        44        57     9      180.000000       -0.680667         4    ;  uncertainty k = 0.347084
        46        47        48        55     9        0.000000        0.478439         1    ;  uncertainty k = 0.547414
        46        47        48        55     9      180.000000       -1.528458         2    ;  uncertainty k = 0.353207
        46        47        48        55     9        0.000000        0.224677         3    ;  uncertainty k = 0.248661
        46        47        48        55     9      180.000000        0.081326         4    ;  uncertainty k = 0.069446
        46        47        48        56     9        0.000000        0.478439         1    ;  uncertainty k = 0.547414
        46        47        48        56     9      180.000000       -1.528458         2    ;  uncertainty k = 0.353207
        46        47        48        56     9        0.000000        0.224677         3    ;  uncertainty k = 0.248661
        46        47        48        56     9      180.000000        0.081326         4    ;  uncertainty k = 0.069446
        46        47        48        57     9        0.000000        4.912122         1    ;  uncertainty k = 3.022766
        46        47        48        57     9      180.000000       -3.168962         2    ;  uncertainty k = 0.934461
        46        47        48        57     9        0.000000        0.146582         3    ;  uncertainty k = 0.482060
        46        47        48        57     9      180.000000       -0.680667         4    ;  uncertainty k = 0.347084
        47        46        45        51     9        0.000000       -1.381200         1    ;  uncertainty k = 0.335987
        47        46        45        51     9      180.000000       -0.256096         2    ;  uncertainty k = 0.131574
        47        46        45        51     9        0.000000        0.242214         3    ;  uncertainty k = 0.175036
        47        46        45        51     9      180.000000       -0.054982         4    ;  uncertainty k = 0.062184
        47        46        45        52     9        0.000000       -1.381200         1    ;  uncertainty k = 0.335987
        47        46        45        52     9      180.000000       -0.256096         2    ;  uncertainty k = 0.131574
        47        46        45        52     9        0.000000        0.242214         3    ;  uncertainty k = 0.175036
        47        46        45        52     9      180.000000       -0.054982         4    ;  uncertainty k = 0.062184
        47        48        57        58     9        0.000000       -3.940257         1    ;  uncertainty k = 1.439651
        47        48        57        58     9      180.000000        2.123305         2    ;  uncertainty k = 0.293651
        47        48        57        58     9        0.000000        0.923753         3    ;  uncertainty k = 0.266407
        47        48        57        58     9      180.000000        0.035343         4    ;  uncertainty k = 0.065599
        47        48        57        59     9        0.000000       -3.940257         1    ;  uncertainty k = 1.439651
        47        48        57        59     9      180.000000        2.123305         2    ;  uncertainty k = 0.293651
        47        48        57        59     9        0.000000        0.923753         3    ;  uncertainty k = 0.266407
        47        48        57        59     9      180.000000        0.035343         4    ;  uncertainty k = 0.065599
        48        57        44        49     9        0.000000       -0.407814         1    ;  uncertainty k = 0.660126
        48        57        44        49     9      180.000000       -3.247303         2    ;  uncertainty k = 0.476467
        48        57        44        49     9        0.000000       -0.401702         3    ;  uncertainty k = 0.148195
        48        57        44        49     9      180.000000       -0.194652         4    ;  uncertainty k = 0.161602
        48        57        44        50     9        0.000000       -0.407814         1    ;  uncertainty k = 0.660126
        48        57        44        50     9      180.000000       -3.247303         2    ;  uncertainty k = 0.476467
        48        57        44        50     9        0.000000       -0.401702         3    ;  uncertainty k = 0.148195
        48        57        44        50     9      180.000000       -0.194652         4    ;  uncertainty k = 0.161602
        49        44        45        51     9        0.000000        0.389860         1    ;  uncertainty k = 0.265883
        49        44        45        51     9      180.000000        0.433320         2    ;  uncertainty k = 0.258020
        49        44        45        51     9        0.000000        0.403993         3    ;  uncertainty k = 0.190612
        49        44        45        51     9      180.000000       -0.109843         4    ;  uncertainty k = 0.038399
        49        44        45        52     9        0.000000        0.389860         1    ;  uncertainty k = 0.265883
        49        44        45        52     9      180.000000        0.433320         2    ;  uncertainty k = 0.258020
        49        44        45        52     9        0.000000        0.403993         3    ;  uncertainty k = 0.190612
        49        44        45        52     9      180.000000       -0.109843         4    ;  uncertainty k = 0.038399
        49        44        57        58     9        0.000000        0.171812         1    ;  uncertainty k = 0.465546
        49        44        57        58     9      180.000000       -0.632345         2    ;  uncertainty k = 0.275310
        49        44        57        58     9        0.000000        0.571869         3    ;  uncertainty k = 0.169999
        49        44        57        58     9      180.000000        0.057562         4    ;  uncertainty k = 0.093519
        49        44        57        59     9        0.000000        0.171812         1    ;  uncertainty k = 0.465546
        49        44        57        59     9      180.000000       -0.632345         2    ;  uncertainty k = 0.275310
        49        44        57        59     9        0.000000        0.571869         3    ;  uncertainty k = 0.169999
        49        44        57        59     9      180.000000        0.057562         4    ;  uncertainty k = 0.093519
        50        44        45        51     9        0.000000        0.389860         1    ;  uncertainty k = 0.265883
        50        44        45        51     9      180.000000        0.433320         2    ;  uncertainty k = 0.258020
        50        44        45        51     9        0.000000        0.403993         3    ;  uncertainty k = 0.190612
        50        44        45        51     9      180.000000       -0.109843         4    ;  uncertainty k = 0.038399
        50        44        45        52     9        0.000000        0.389860         1    ;  uncertainty k = 0.265883
        50        44        45        52     9      180.000000        0.433320         2    ;  uncertainty k = 0.258020
        50        44        45        52     9        0.000000        0.403993         3    ;  uncertainty k = 0.190612
        50        44        45        52     9      180.000000       -0.109843         4    ;  uncertainty k = 0.038399
        50        44        57        58     9        0.000000        0.171812         1    ;  uncertainty k = 0.465546
        50        44        57        58     9      180.000000       -0.632345         2    ;  uncertainty k = 0.275310
        50        44        57        58     9        0.000000        0.571869         3    ;  uncertainty k = 0.169999
        50        44        57        58     9      180.000000        0.057562         4    ;  uncertainty k = 0.093519
        50        44        57        59     9        0.000000        0.171812         1    ;  uncertainty k = 0.465546
        50        44        57        59     9      180.000000       -0.632345         2    ;  uncertainty k = 0.275310
        50        44        57        59     9        0.000000        0.571869         3    ;  uncertainty k = 0.169999
        50        44        57        59     9      180.000000        0.057562         4    ;  uncertainty k = 0.093519
        51        45        44        57     9        0.000000       -1.230615         1    ;  uncertainty k = 0.697103
        51        45        44        57     9      180.000000       -1.374530         2    ;  uncertainty k = 0.393418
        51        45        44        57     9        0.000000        0.341029         3    ;  uncertainty k = 0.125799
        51        45        44        57     9      180.000000       -0.081505         4    ;  uncertainty k = 0.133567
        52        45        44        57     9        0.000000       -1.230615         1    ;  uncertainty k = 0.697103
        52        45        44        57     9      180.000000       -1.374530         2    ;  uncertainty k = 0.393418
        52        45        44        57     9        0.000000        0.341029         3    ;  uncertainty k = 0.125799
        52        45        44        57     9      180.000000       -0.081505         4    ;  uncertainty k = 0.133567
        53        47        48        55     9        0.000000        0.389860         1    ;  uncertainty k = 0.265883
        53        47        48        55     9      180.000000        0.433320         2    ;  uncertainty k = 0.258020
        53        47        48        55     9        0.000000        0.403993         3    ;  uncertainty k = 0.190612
        53        47        48        55     9      180.000000       -0.109843         4    ;  uncertainty k = 0.038399
        53        47        48        56     9        0.000000        0.389860         1    ;  uncertainty k = 0.265883
        53        47        48        56     9      180.000000        0.433320         2    ;  uncertainty k = 0.258020
        53        47        48        56     9        0.000000        0.403993         3    ;  uncertainty k = 0.190612
        53        47        48        56     9      180.000000       -0.109843         4    ;  uncertainty k = 0.038399
        53        47        48        57     9        0.000000       -1.230615         1    ;  uncertainty k = 0.697103
        53        47        48        57     9      180.000000       -1.374530         2    ;  uncertainty k = 0.393418
        53        47        48        57     9        0.000000        0.341029         3    ;  uncertainty k = 0.125799
        53        47        48        57     9      180.000000       -0.081505         4    ;  uncertainty k = 0.133567
        54        47        48        55     9        0.000000        0.389860         1    ;  uncertainty k = 0.265883
        54        47        48        55     9      180.000000        0.433320         2    ;  uncertainty k = 0.258020
        54        47        48        55     9        0.000000        0.403993         3    ;  uncertainty k = 0.190612
        54        47        48        55     9      180.000000       -0.109843         4    ;  uncertainty k = 0.038399
        54        47        48        56     9        0.000000        0.389860         1    ;  uncertainty k = 0.265883
        54        47        48        56     9      180.000000        0.433320         2    ;  uncertainty k = 0.258020
        54        47        48        56     9        0.000000        0.403993         3    ;  uncertainty k = 0.190612
        54        47        48        56     9      180.000000       -0.109843         4    ;  uncertainty k = 0.038399
        54        47        48        57     9        0.000000       -1.230615         1    ;  uncertainty k = 0.697103
        54        47        48        57     9      180.000000       -1.374530         2    ;  uncertainty k = 0.393418
        54        47        48        57     9        0.000000        0.341029         3    ;  uncertainty k = 0.125799
        54        47        48        57     9      180.000000       -0.081505         4    ;  uncertainty k = 0.133567
        55        48        57        58     9        0.000000        0.171812         1    ;  uncertainty k = 0.465546
        55        48        57        58     9      180.000000       -0.632345         2    ;  uncertainty k = 0.275310
        55        48        57        58     9        0.000000        0.571869         3    ;  uncertainty k = 0.169999
        55        48        57        58     9      180.000000        0.057562         4    ;  uncertainty k = 0.093519
        55        48        57        59     9        0.000000        0.171812         1    ;  uncertainty k = 0.465546
        55        48        57        59     9      180.000000       -0.632345         2    ;  uncertainty k = 0.275310
        55        48        57        59     9        0.000000        0.571869         3    ;  uncertainty k = 0.169999
        55        48        57        59     9      180.000000        0.057562         4    ;  uncertainty k = 0.093519
        56        48        57        58     9        0.000000        0.171812         1    ;  uncertainty k = 0.465546
        56        48        57        58     9      180.000000       -0.632345         2    ;  uncertainty k = 0.275310
        56        48        57        58     9        0.000000        0.571869         3    ;  uncertainty k = 0.169999
        56        48        57        58     9      180.000000        0.057562         4    ;  uncertainty k = 0.093519
        56        48        57        59     9        0.000000        0.171812         1    ;  uncertainty k = 0.465546
        56        48        57        59     9      180.000000       -0.632345         2    ;  uncertainty k = 0.275310
        56        48        57        59     9        0.000000        0.571869         3    ;  uncertainty k = 0.169999
        56        48        57        59     9      180.000000        0.057562         4    ;  uncertainty k = 0.093519

[ dihedrals ] ; impropers
;       ai        aj        ak        al funct           phase               k        pn
         5         8        13        30     4      180.000000        1.109680         2    ;  uncertainty k = 0.271256
         5        13        30         8     4      180.000000        1.109680         2    ;  uncertainty k = 0.271256
         5        30         8        13     4      180.000000        1.109680         2    ;  uncertainty k = 0.271256
         7        18        24        25     4      180.000000       49.474335         2    ;  uncertainty k = 0.028652
         7        24        25        18     4      180.000000       49.474335         2    ;  uncertainty k = 0.028652
         7        25        18        24     4      180.000000       49.474335         2    ;  uncertainty k = 0.028652
         8         5        19        20     4      180.000000       14.318672         2    ;  uncertainty k = 0.052158
         8        19        20         5     4      180.000000       14.318672         2    ;  uncertainty k = 0.052158
         8        20         5        19     4      180.000000       14.318672         2    ;  uncertainty k = 0.052158
         9        23        26        27     4      180.000000       45.985130         2    ;  uncertainty k = 0.103585
         9        26        27        23     4      180.000000       45.985130         2    ;  uncertainty k = 0.103585
         9        27        23        26     4      180.000000       45.985130         2    ;  uncertainty k = 0.103585
        11        12        16        17     4      180.000000        4.102417         2    ;  uncertainty k = 0.565368
        11        16        17        12     4      180.000000        4.102417         2    ;  uncertainty k = 0.565368
        11        17        12        16     4      180.000000        4.102417         2    ;  uncertainty k = 0.565368
        12        11        18        31     4      180.000000        7.394622         2    ;  uncertainty k = 0.362135
        12        18        31        11     4      180.000000        7.394622         2    ;  uncertainty k = 0.362135
        12        31        11        18     4      180.000000        7.394622         2    ;  uncertainty k = 0.362135
        13         5        14        21     4      180.000000       17.110314         2    ;  uncertainty k = 0.053382
        13        14        21         5     4      180.000000       17.110314         2    ;  uncertainty k = 0.053382
        13        21         5        14     4      180.000000       17.110314         2    ;  uncertainty k = 0.053382
        14        13        15        28     4      180.000000        2.090574         2    ;  uncertainty k = 0.191083
        14        15        28        13     4      180.000000        2.090574         2    ;  uncertainty k = 0.191083
        14        28        13        15     4      180.000000        2.090574         2    ;  uncertainty k = 0.191083
        15        14        19        29     4      180.000000        3.395592         2    ;  uncertainty k = 0.158338
        15        19        29        14     4      180.000000        3.395592         2    ;  uncertainty k = 0.158338
        15        29        14        19     4      180.000000        3.395592         2    ;  uncertainty k = 0.158338
        16        11        25        26     4      180.000000       30.648963         2    ;  uncertainty k = 0.067466
        16        25        26        11     4      180.000000       30.648963         2    ;  uncertainty k = 0.067466
        16        26        11        25     4      180.000000       30.648963         2    ;  uncertainty k = 0.067466
        17        11        23        32     4      180.000000       16.796632         2    ;  uncertainty k = 0.067162
        17        23        32        11     4      180.000000       16.796632         2    ;  uncertainty k = 0.067162
        17        32        11        23     4      180.000000       16.796632         2    ;  uncertainty k = 0.067162
        18         7        12        22     4      180.000000       13.401868         2    ;  uncertainty k = 0.269563
        18        12        22         7     4      180.000000       13.401868         2    ;  uncertainty k = 0.269563
        18        22         7        12     4      180.000000       13.401868         2    ;  uncertainty k = 0.269563
        19         8        15        22     4      180.000000       11.909481         2    ;  uncertainty k = 0.190313
        19        15        22         8     4      180.000000       11.909481         2    ;  uncertainty k = 0.190313
        19        22         8        15     4      180.000000       11.909481         2    ;  uncertainty k = 0.190313
        25         7        16        46     4      180.000000        5.973680         2    ;  uncertainty k = 0.450051
        25        16        46         7     4      180.000000        5.973680         2    ;  uncertainty k = 0.450051
        25        46         7        16     4      180.000000        5.973680         2    ;  uncertainty k = 0.450051
        27         9        10        43     4      180.000000        0.699861         2    ;  uncertainty k = 0.796069
        27        10        43         9     4      180.000000        0.699861         2    ;  uncertainty k = 0.796069
        27        43         9        10     4      180.000000        0.699861         2    ;  uncertainty k = 0.796069

[ pairs ]
;       ai        aj funct
         1         3     1
         1         9     1
         1        39     1
         1        40     1
         1        43     1
         2         4     1
         2        27     1
         2        37     1
         2        38     1
         2        41     1
         3        27     1
         3        35     1
         3        36     1
         3        41     1
         4         9     1
         4        33     1
         4        34     1
         4        43     1
         5        15     1
         5        22     1
         5        28     1
         6        10     1
         6        33     1
         6        34     1
         6        39     1
         6        40     1
         7        11     1
         7        19     1
         7        26     1
         7        31     1
         7        42     1
         7        45     1
         7        47     1
         8        14     1
         8        18     1
         8        21     1
         8        29     1
         9        11     1
         9        25     1
         9        32     1
         9        41     1
        10        23     1
        10        26     1
        10        35     1
        10        36     1
        10        37     1
        10        38     1
        11        22     1
        11        46     1
        12        19     1
        12        23     1
        12        24     1
        12        25     1
        12        26     1
        12        32     1
        13        19     1
        13        20     1
        13        29     1
        14        22     1
        14        30     1
        15        18     1
        15        20     1
        15        21     1
        16        18     1
        16        23     1
        16        24     1
        16        27     1
        16        31     1
        16        32     1
        16        42     1
        16        45     1
        16        47     1
        17        18     1
        17        25     1
        17        26     1
        17        27     1
        17        31     1
        18        46     1
        19        28     1
        19        30     1
        20        22     1
        20        30     1
        21        28     1
        21        30     1
        22        24     1
        22        25     1
        22        29     1
        22        31     1
        23        43     1
        24        46     1
        25        44     1
        25        48     1
        25        51     1
        25        52     1
        25        53     1
        25        54     1
        26        43     1
        26        46     1
        27        33     1
        27        34     1
        27        39     1
        27        40     1
        28        29     1
        33        35     1
        33        36     1
        33        41     1
        34        35     1
        34        36     1
        34        41     1
        37        39     1
        37        40     1
        38        39     1
        38        40     1
        39        41     1
        40        41     1
        41        43     1
        42        44     1
        42        48     1
        42        51     1
        42        52     1
        42        53     1
        42        54     1
        44        47     1
        44        55     1
        44        56     1
        45        48     1
        45        53     1
        45        54     1
        45        58     1
        45        59     1
        46        49     1
        46        50     1
        46        55     1
        46        56     1
        46        57     1
        47        51     1
        47        52     1
        47        58     1
        47        59     1
        48        49     1
        48        50     1
        49        51     1
        49        52     1
        49        58     1
        49        59     1
        50        51     1
        50        52     1
        50        58     1
        50        59     1
        51        57     1
        52        57     1
        53        55     1
        53        56     1
        53        57     1
        54        55     1
        54        56     1
        54        57     1
        55        58     1
        55        59     1
        56        58     1
        56        59     1
