; ITP file created by ByteFF-joint-25, 2026-02-17 09:23:35.794830

[ atomtypes ]
;name           bonded.type        at.num        mass        charge   ptype           sigma         epsilon
 c0bf                                   6      0.0000       0.00000       A     3.39787e-01     4.51000e-01    ;  uncertainty sigma = 0.000007, epsilon = 0.000697
 c1bf                                   6      0.0000       0.00000       A     3.39778e-01     4.50893e-01    ;  uncertainty sigma = 0.000003, epsilon = 0.000829
 c2bf                                   6      0.0000       0.00000       A     3.39778e-01     4.50893e-01    ;  uncertainty sigma = 0.000003, epsilon = 0.000829
 c3bf                                   6      0.0000       0.00000       A     3.39787e-01     4.51000e-01    ;  uncertainty sigma = 0.000007, epsilon = 0.000697
 c4bf                                   6      0.0000       0.00000       A     3.31526e-01     4.13477e-01    ;  uncertainty sigma = 0.000006, epsilon = 0.000754
 o5bf                                   8      0.0000       0.00000       A     3.15613e-01     3.03556e-01    ;  uncertainty sigma = 0.000019, epsilon = 0.001085
 c6bf                                   6      0.0000       0.00000       A     3.31518e-01     4.13521e-01    ;  uncertainty sigma = 0.000021, epsilon = 0.001449
 c7bf                                   6      0.0000       0.00000       A     3.31525e-01     4.12996e-01    ;  uncertainty sigma = 0.000006, epsilon = 0.000558
 c8bf                                   6      0.0000       0.00000       A     3.31531e-01     4.13819e-01    ;  uncertainty sigma = 0.000011, epsilon = 0.000840
 c9bf                                   6      0.0000       0.00000       A     3.39779e-01     4.51067e-01    ;  uncertainty sigma = 0.000013, epsilon = 0.000925
 c10bf                                  6      0.0000       0.00000       A     3.31548e-01     4.13569e-01    ;  uncertainty sigma = 0.000015, epsilon = 0.000849
 c11bf                                  6      0.0000       0.00000       A     3.31522e-01     4.12958e-01    ;  uncertainty sigma = 0.000012, epsilon = 0.001253
 c12bf                                  6      0.0000       0.00000       A     3.31521e-01     4.13309e-01    ;  uncertainty sigma = 0.000005, epsilon = 0.000623
 c13bf                                  6      0.0000       0.00000       A     3.31522e-01     4.13402e-01    ;  uncertainty sigma = 0.000004, epsilon = 0.000568
 c14bf                                  6      0.0000       0.00000       A     3.31532e-01     4.13487e-01    ;  uncertainty sigma = 0.000005, epsilon = 0.000789
 c15bf                                  6      0.0000       0.00000       A     3.31502e-01     4.12939e-01    ;  uncertainty sigma = 0.000030, epsilon = 0.001267
 c16bf                                  6      0.0000       0.00000       A     3.31541e-01     4.13611e-01    ;  uncertainty sigma = 0.000007, epsilon = 0.001414
 c17bf                                  6      0.0000       0.00000       A     3.31533e-01     4.13473e-01    ;  uncertainty sigma = 0.000019, epsilon = 0.001268
 c18bf                                  6      0.0000       0.00000       A     3.31544e-01     4.13185e-01    ;  uncertainty sigma = 0.000012, epsilon = 0.000998
 c19bf                                  6      0.0000       0.00000       A     3.39749e-01     4.50886e-01    ;  uncertainty sigma = 0.000019, epsilon = 0.001487
 f20bf                                  9      0.0000       0.00000       A     3.03401e-01     3.48403e-01    ;  uncertainty sigma = 0.000015, epsilon = 0.000906
 f21bf                                  9      0.0000       0.00000       A     3.03426e-01     3.47978e-01    ;  uncertainty sigma = 0.000008, epsilon = 0.000768
 o22bf                                  8      0.0000       0.00000       A     3.15661e-01     3.03543e-01    ;  uncertainty sigma = 0.000052, epsilon = 0.003674
 n23bf                                  7      0.0000       0.00000       A     3.38435e-01     3.93631e-01    ;  uncertainty sigma = 0.000019, epsilon = 0.001026
 o24bf                                  8      0.0000       0.00000       A     3.04836e-01     6.11111e-01    ;  uncertainty sigma = 0.000016, epsilon = 0.000705
 n25bf                                  7      0.0000       0.00000       A     3.18099e-01     6.84641e-01    ;  uncertainty sigma = 0.000051, epsilon = 0.002685
 n26bf                                  7      0.0000       0.00000       A     3.38454e-01     3.93310e-01    ;  uncertainty sigma = 0.000044, epsilon = 0.001741
 n27bf                                  7      0.0000       0.00000       A     3.27898e-01     6.46446e-01    ;  uncertainty sigma = 0.000031, epsilon = 0.005668
 h28bf                                  1      0.0000       0.00000       A     2.62564e-01     6.70554e-02    ;  uncertainty sigma = 0.000012, epsilon = 0.000465
 h29bf                                  1      0.0000       0.00000       A     2.62548e-01     6.71486e-02    ;  uncertainty sigma = 0.000008, epsilon = 0.000492
 h30bf                                  1      0.0000       0.00000       A     2.62562e-01     6.73680e-02    ;  uncertainty sigma = 0.000008, epsilon = 0.000365
 h31bf                                  1      0.0000       0.00000       A     2.62521e-01     6.67593e-02    ;  uncertainty sigma = 0.000018, epsilon = 0.000881
 h32bf                                  1      0.0000       0.00000       A     2.53663e-01     6.71784e-02    ;  uncertainty sigma = 0.000041, epsilon = 0.000925
 h33bf                                  1      0.0000       0.00000       A     2.60021e-01     8.67664e-02    ;  uncertainty sigma = 0.000009, epsilon = 0.000445
 h34bf                                  1      0.0000       0.00000       A     2.60021e-01     8.67664e-02    ;  uncertainty sigma = 0.000009, epsilon = 0.000445
 h35bf                                  1      0.0000       0.00000       A     2.42188e-01     8.67182e-02    ;  uncertainty sigma = 0.000018, epsilon = 0.000739
 h36bf                                  1      0.0000       0.00000       A     2.42188e-01     8.67182e-02    ;  uncertainty sigma = 0.000018, epsilon = 0.000739
 h37bf                                  1      0.0000       0.00000       A     2.42188e-01     8.67182e-02    ;  uncertainty sigma = 0.000018, epsilon = 0.000739
 h38bf                                  1      0.0000       0.00000       A     2.42188e-01     8.67182e-02    ;  uncertainty sigma = 0.000018, epsilon = 0.000739
 h39bf                                  1      0.0000       0.00000       A     2.60021e-01     8.67664e-02    ;  uncertainty sigma = 0.000009, epsilon = 0.000445
 h40bf                                  1      0.0000       0.00000       A     2.60021e-01     8.67664e-02    ;  uncertainty sigma = 0.000009, epsilon = 0.000445
 h41bf                                  1      0.0000       0.00000       A     2.42212e-01     8.65674e-02    ;  uncertainty sigma = 0.000016, epsilon = 0.000625
 h42bf                                  1      0.0000       0.00000       A     2.42270e-01     8.72409e-02    ;  uncertainty sigma = 0.000037, epsilon = 0.000735
 h43bf                                  1      0.0000       0.00000       A     2.42270e-01     8.72409e-02    ;  uncertainty sigma = 0.000037, epsilon = 0.000735
 h44bf                                  1      0.0000       0.00000       A     1.10703e-01     4.14050e-02    ;  uncertainty sigma = 0.000035, epsilon = 0.000993
 c45bf                                  6      0.0000       0.00000       A     3.39758e-01     4.50970e-01    ;  uncertainty sigma = 0.000015, epsilon = 0.001296
 c46bf                                  6      0.0000       0.00000       A     3.39775e-01     4.50656e-01    ;  uncertainty sigma = 0.000006, epsilon = 0.000569
 h47bf                                  1      0.0000       0.00000       A     2.60021e-01     8.67603e-02    ;  uncertainty sigma = 0.000009, epsilon = 0.000428
 h48bf                                  1      0.0000       0.00000       A     2.60021e-01     8.67603e-02    ;  uncertainty sigma = 0.000009, epsilon = 0.000428
 h49bf                                  1      0.0000       0.00000       A     2.60021e-01     8.67603e-02    ;  uncertainty sigma = 0.000009, epsilon = 0.000428
 c50bf                                  6      0.0000       0.00000       A     3.39775e-01     4.50656e-01    ;  uncertainty sigma = 0.000006, epsilon = 0.000569
 h51bf                                  1      0.0000       0.00000       A     2.60021e-01     8.67603e-02    ;  uncertainty sigma = 0.000009, epsilon = 0.000428
 h52bf                                  1      0.0000       0.00000       A     2.60021e-01     8.67603e-02    ;  uncertainty sigma = 0.000009, epsilon = 0.000428
 h53bf                                  1      0.0000       0.00000       A     2.60021e-01     8.67603e-02    ;  uncertainty sigma = 0.000009, epsilon = 0.000428
 o54bf                                  8      0.0000       0.00000       A     3.24277e-01     3.89772e-01    ;  uncertainty sigma = 0.000025, epsilon = 0.001274
 h55bf                                  1      0.0000       0.00000       A     5.38088e-02     1.93815e-02    ;  uncertainty sigma = 0.000129, epsilon = 0.001364

[ moleculetype ]
;name             nrexcl
 MOL                   3

[ atoms ]
;       nr            type      resi   res      atom      cgnr      charge          mass ; qtot
         1            c0bf         1   UNL        c0         1    -0.12711       12.0110 ; qtot   -0.127
         2            c1bf         1   UNL        c1         2     0.13209       12.0110 ; qtot    0.005
         3            c2bf         1   UNL        c2         3     0.13209       12.0110 ; qtot    0.137
         4            c3bf         1   UNL        c3         4    -0.12711       12.0110 ; qtot    0.010
         5            c4bf         1   UNL        c4         5    -0.19164       12.0110 ; qtot   -0.182
         6            o5bf         1   UNL        o5         6    -0.41527       15.9990 ; qtot   -0.597
         7            c6bf         1   UNL        c6         7     0.70261       12.0110 ; qtot    0.106
         8            c7bf         1   UNL        c7         8     0.14567       12.0110 ; qtot    0.251
         9            c8bf         1   UNL        c8         9     0.92952       12.0110 ; qtot    1.181
        10            c9bf         1   UNL        c9        10     0.24784       12.0110 ; qtot    1.429
        11           c10bf         1   UNL       c10        11    -0.40988       12.0110 ; qtot    1.019
        12           c11bf         1   UNL       c11        12    -0.04462       12.0110 ; qtot    0.974
        13           c12bf         1   UNL       c12        13     0.14413       12.0110 ; qtot    1.118
        14           c13bf         1   UNL       c13        14    -0.16248       12.0110 ; qtot    0.956
        15           c14bf         1   UNL       c14        15    -0.09069       12.0110 ; qtot    0.865
        16           c15bf         1   UNL       c15        16     0.64616       12.0110 ; qtot    1.511
        17           c16bf         1   UNL       c16        17     0.52297       12.0110 ; qtot    2.034
        18           c17bf         1   UNL       c17        18     0.00624       12.0110 ; qtot    2.041
        19           c18bf         1   UNL       c18        19     0.04787       12.0110 ; qtot    2.088
        20           c19bf         1   UNL       c19        20     0.07424       12.0110 ; qtot    2.163
        21           f20bf         1   UNL       f20        21    -0.12685       18.9980 ; qtot    2.036
        22           f21bf         1   UNL       f21        22    -0.13805       18.9980 ; qtot    1.898
        23           o22bf         1   UNL       o22        23    -0.20957       15.9990 ; qtot    1.688
        24           n23bf         1   UNL       n23        24    -0.77257       14.0070 ; qtot    0.916
        25           o24bf         1   UNL       o24        25    -0.59298       15.9990 ; qtot    0.323
        26           n25bf         1   UNL       n25        26    -0.42746       14.0070 ; qtot   -0.105
        27           n26bf         1   UNL       n26        27    -0.83344       14.0070 ; qtot   -0.938
        28           n27bf         1   UNL       n27        28    -0.86394       14.0070 ; qtot   -1.802
        29           h28bf         1   UNL       h28        29     0.16075        1.0080 ; qtot   -1.641
        30           h29bf         1   UNL       h29        30     0.15721        1.0080 ; qtot   -1.484
        31           h30bf         1   UNL       h30        31     0.17297        1.0080 ; qtot   -1.311
        32           h31bf         1   UNL       h31        32     0.16397        1.0080 ; qtot   -1.147
        33           h32bf         1   UNL       h32        33     0.02960        1.0080 ; qtot   -1.118
        34           h33bf         1   UNL       h33        34     0.05892        1.0080 ; qtot   -1.059
        35           h34bf         1   UNL       h34        35     0.05892        1.0080 ; qtot   -1.000
        36           h35bf         1   UNL       h35        36     0.04655        1.0080 ; qtot   -0.953
        37           h36bf         1   UNL       h36        37     0.04655        1.0080 ; qtot   -0.907
        38           h37bf         1   UNL       h37        38     0.04655        1.0080 ; qtot   -0.860
        39           h38bf         1   UNL       h38        39     0.04655        1.0080 ; qtot   -0.814
        40           h39bf         1   UNL       h39        40     0.05892        1.0080 ; qtot   -0.755
        41           h40bf         1   UNL       h40        41     0.05892        1.0080 ; qtot   -0.696
        42           h41bf         1   UNL       h41        42     0.07162        1.0080 ; qtot   -0.624
        43           h42bf         1   UNL       h42        43     0.08325        1.0080 ; qtot   -0.541
        44           h43bf         1   UNL       h43        44     0.08325        1.0080 ; qtot   -0.458
        45           h44bf         1   UNL       h44        45     0.44845        1.0080 ; qtot   -0.009
        46           c45bf         1   UNL       c45        46     0.14400       12.0110 ; qtot    0.135
        47           c46bf         1   UNL       c46        47    -0.10739       12.0110 ; qtot    0.027
        48           h47bf         1   UNL       h47        48     0.04591        1.0080 ; qtot    0.073
        49           h48bf         1   UNL       h48        49     0.04591        1.0080 ; qtot    0.119
        50           h49bf         1   UNL       h49        50     0.04591        1.0080 ; qtot    0.165
        51           c50bf         1   UNL       c50        51    -0.10739       12.0110 ; qtot    0.058
        52           h51bf         1   UNL       h51        52     0.04591        1.0080 ; qtot    0.104
        53           h52bf         1   UNL       h52        53     0.04591        1.0080 ; qtot    0.149
        54           h53bf         1   UNL       h53        54     0.04591        1.0080 ; qtot    0.195
        55           o54bf         1   UNL       o54        55    -0.60514       15.9990 ; qtot   -0.410
        56           h55bf         1   UNL       h55        56     0.40974        1.0080 ; qtot   -0.000

[ bonds ]
;       ai        aj funct               r               k
         1         2     1        0.153564   209800.351904    ;  uncertainty r = 0.000030, k = 4.398850
         1        10     1        0.153800   204926.313672    ;  uncertainty r = 0.000079, k = 2.875806
         1        34     1        0.109644   310935.400293    ;  uncertainty r = 0.000023, k = 1.135247
         1        35     1        0.109644   310935.400293    ;  uncertainty r = 0.000023, k = 1.135247
         2         6     1        0.142789   254488.480176    ;  uncertainty r = 0.000039, k = 2.801925
         2        36     1        0.109818   309244.843652    ;  uncertainty r = 0.000020, k = 0.854841
         2        37     1        0.109818   309244.843652    ;  uncertainty r = 0.000020, k = 0.854841
         3         4     1        0.153564   209800.351904    ;  uncertainty r = 0.000030, k = 4.398850
         3         6     1        0.142789   254488.480176    ;  uncertainty r = 0.000039, k = 2.801925
         3        38     1        0.109818   309244.843652    ;  uncertainty r = 0.000020, k = 0.854841
         3        39     1        0.109818   309244.843652    ;  uncertainty r = 0.000020, k = 0.854841
         4        10     1        0.153800   204926.313672    ;  uncertainty r = 0.000079, k = 2.875806
         4        40     1        0.109644   310935.400293    ;  uncertainty r = 0.000023, k = 1.135247
         4        41     1        0.109644   310935.400293    ;  uncertainty r = 0.000023, k = 1.135247
         5         8     1        0.138747   361176.981592    ;  uncertainty r = 0.000032, k = 2.643588
         5        13     1        0.139007   367691.396045    ;  uncertainty r = 0.000031, k = 2.749259
         5        31     1        0.108780   338576.282275    ;  uncertainty r = 0.000013, k = 1.210229
         7        18     1        0.146338   254796.559863    ;  uncertainty r = 0.000239, k = 25.351410
         7        25     1        0.123515   648136.075098    ;  uncertainty r = 0.000066, k = 18.480089
         7        26     1        0.140449   263422.586816    ;  uncertainty r = 0.000378, k = 35.213414
         8        19     1        0.139121   358077.006348    ;  uncertainty r = 0.000040, k = 4.650811
         8        21     1        0.134764   340072.935645    ;  uncertainty r = 0.000045, k = 2.589505
         9        24     1        0.136645   531258.650098    ;  uncertainty r = 0.000130, k = 16.870261
         9        27     1        0.135843   605002.314063    ;  uncertainty r = 0.000137, k = 21.993885
         9        28     1        0.138336   585582.159570    ;  uncertainty r = 0.000160, k = 23.152214
        10        28     1        0.145807   240009.066846    ;  uncertainty r = 0.000132, k = 9.981083
        10        42     1        0.109351   304415.163379    ;  uncertainty r = 0.000015, k = 2.578070
        11        12     1        0.142609   276741.236377    ;  uncertainty r = 0.000045, k = 22.788162
        11        16     1        0.142251   401764.233154    ;  uncertainty r = 0.000209, k = 28.942810
        11        17     1        0.140346   398727.436719    ;  uncertainty r = 0.000185, k = 20.646979
        12        18     1        0.135392   409011.792480    ;  uncertainty r = 0.000075, k = 13.944295
        12        32     1        0.108670   334774.368506    ;  uncertainty r = 0.000042, k = 1.864898
        13        14     1        0.138905   362175.303809    ;  uncertainty r = 0.000027, k = 1.862514
        13        22     1        0.135460   342148.081152    ;  uncertainty r = 0.000038, k = 2.796473
        14        15     1        0.139206   376188.256299    ;  uncertainty r = 0.000034, k = 0.837546
        14        29     1        0.108734   335618.242285    ;  uncertainty r = 0.000017, k = 1.062658
        15        19     1        0.139238   351219.066699    ;  uncertainty r = 0.000057, k = 2.910415
        15        30     1        0.108702   335466.041113    ;  uncertainty r = 0.000027, k = 2.133558
        16        26     1        0.138197   271609.886230    ;  uncertainty r = 0.000274, k = 42.158691
        16        27     1        0.134215   435296.832715    ;  uncertainty r = 0.000108, k = 17.201629
        17        24     1        0.133415   406678.594482    ;  uncertainty r = 0.000077, k = 10.237142
        17        33     1        0.108927   329046.113965    ;  uncertainty r = 0.000030, k = 1.909598
        18        23     1        0.136094   317342.048145    ;  uncertainty r = 0.000086, k = 7.248126
        19        23     1        0.138160   312130.434863    ;  uncertainty r = 0.000116, k = 5.846346
        20        26     1        0.145424   261103.612988    ;  uncertainty r = 0.000189, k = 15.144510
        20        43     1        0.109186   308995.346094    ;  uncertainty r = 0.000050, k = 3.010184
        20        44     1        0.109186   308995.346094    ;  uncertainty r = 0.000050, k = 3.010184
        20        46     1        0.153644   192319.562109    ;  uncertainty r = 0.000074, k = 5.901359
        28        45     1        0.102176   435698.173926    ;  uncertainty r = 0.000065, k = 4.933167
        46        47     1        0.152887   205158.969507    ;  uncertainty r = 0.000069, k = 5.502285
        46        51     1        0.152887   205158.969507    ;  uncertainty r = 0.000069, k = 5.502285
        46        55     1        0.144151   245690.486328    ;  uncertainty r = 0.000127, k = 14.397844
        47        48     1        0.109594   310337.934082    ;  uncertainty r = 0.000005, k = 1.165022
        47        49     1        0.109594   310337.934082    ;  uncertainty r = 0.000005, k = 1.165022
        47        50     1        0.109594   310337.934082    ;  uncertainty r = 0.000005, k = 1.165022
        51        52     1        0.109594   310337.934082    ;  uncertainty r = 0.000005, k = 1.165022
        51        53     1        0.109594   310337.934082    ;  uncertainty r = 0.000005, k = 1.165024
        51        54     1        0.109594   310337.934082    ;  uncertainty r = 0.000005, k = 1.165023
        55        56     1        0.097137   459231.028809    ;  uncertainty r = 0.000059, k = 2.139064

[ angles ]
;       ai        aj        ak funct           theta             cth
         1         2         6     1      111.446632      714.965579    ;  uncertainty theta = 0.001347, k = 0.063500
         1         2        36     1      109.920456      408.541080    ;  uncertainty theta = 0.002019, k = 0.035643
         1         2        37     1      109.920456      408.541080    ;  uncertainty theta = 0.002019, k = 0.035643
         1        10         4     1      108.571205      585.454959    ;  uncertainty theta = 0.002684, k = 0.080005
         1        10        28     1      110.695145      629.201113    ;  uncertainty theta = 0.003363, k = 0.060631
         1        10        42     1      108.629013      407.998416    ;  uncertainty theta = 0.002420, k = 0.060827
         2         1        10     1      109.739174      566.930979    ;  uncertainty theta = 0.002556, k = 0.101379
         2         1        34     1      108.721451      397.694416    ;  uncertainty theta = 0.000995, k = 0.058468
         2         1        35     1      108.721451      397.694416    ;  uncertainty theta = 0.000995, k = 0.058468
         2         6         3     1      109.309448      562.168308    ;  uncertainty theta = 0.002274, k = 0.150711
         3         4        10     1      109.739174      566.930979    ;  uncertainty theta = 0.002556, k = 0.101379
         3         4        40     1      108.721451      397.694416    ;  uncertainty theta = 0.000995, k = 0.058468
         3         4        41     1      108.721451      397.694416    ;  uncertainty theta = 0.000995, k = 0.058468
         4         3         6     1      111.446632      714.965579    ;  uncertainty theta = 0.001347, k = 0.063500
         4         3        38     1      109.920456      408.541080    ;  uncertainty theta = 0.002019, k = 0.035643
         4         3        39     1      109.920456      408.541080    ;  uncertainty theta = 0.002019, k = 0.035643
         4        10        28     1      110.695145      629.201113    ;  uncertainty theta = 0.003363, k = 0.060631
         4        10        42     1      108.629013      407.998416    ;  uncertainty theta = 0.002420, k = 0.060827
         5         8        19     1      123.443153      352.584549    ;  uncertainty theta = 0.005265, k = 0.202869
         5         8        21     1      118.916702      524.557093    ;  uncertainty theta = 0.000766, k = 0.063533
         5        13        14     1      122.203163      367.950291    ;  uncertainty theta = 0.004353, k = 0.037976
         5        13        22     1      118.416054      506.109309    ;  uncertainty theta = 0.002115, k = 0.044491
         6         2        36     1      107.077614      463.773059    ;  uncertainty theta = 0.001757, k = 0.022995
         6         2        37     1      107.077614      463.773059    ;  uncertainty theta = 0.001757, k = 0.022995
         6         3        38     1      107.077614      463.773059    ;  uncertainty theta = 0.001757, k = 0.022995
         6         3        39     1      107.077614      463.773059    ;  uncertainty theta = 0.001757, k = 0.022995
         7        18        12     1      124.665695      433.966464    ;  uncertainty theta = 0.005446, k = 0.161284
         7        18        23     1      108.459717      385.614182    ;  uncertainty theta = 0.012054, k = 0.266161
         7        26        16     1      122.810524      490.223535    ;  uncertainty theta = 0.007369, k = 0.160753
         7        26        20     1      113.441551      419.859957    ;  uncertainty theta = 0.005080, k = 0.154460
         8         5        13     1      117.873718      466.681991    ;  uncertainty theta = 0.002635, k = 0.148809
         8         5        31     1      120.885605      275.043414    ;  uncertainty theta = 0.003104, k = 0.026017
         8        19        15     1      120.438950      350.580333    ;  uncertainty theta = 0.005824, k = 0.197361
         8        19        23     1      117.649757      371.496917    ;  uncertainty theta = 0.004336, k = 0.212601
         9        24        17     1      116.430397      408.139285    ;  uncertainty theta = 0.008084, k = 0.292187
         9        27        16     1      117.610977      453.144099    ;  uncertainty theta = 0.006722, k = 0.127647
         9        28        10     1      115.769875      413.653066    ;  uncertainty theta = 0.005271, k = 0.143046
         9        28        45     1      116.919144      444.716566    ;  uncertainty theta = 0.004236, k = 0.155196
        10         1        34     1      108.113968      386.815958    ;  uncertainty theta = 0.001236, k = 0.022845
        10         1        35     1      108.113968      386.815958    ;  uncertainty theta = 0.001236, k = 0.022845
        10         4        40     1      108.113968      386.815958    ;  uncertainty theta = 0.001236, k = 0.022845
        10         4        41     1      108.113968      386.815958    ;  uncertainty theta = 0.001236, k = 0.022845
        10        28        45     1      112.314072      333.078060    ;  uncertainty theta = 0.005154, k = 0.136963
        11        12        18     1      121.231750      510.259951    ;  uncertainty theta = 0.006901, k = 0.205657
        11        12        32     1      118.301880      255.139520    ;  uncertainty theta = 0.002882, k = 0.281063
        11        16        26     1      118.056175      486.757894    ;  uncertainty theta = 0.008554, k = 0.235330
        11        16        27     1      122.788086      545.467932    ;  uncertainty theta = 0.005177, k = 0.158016
        11        17        24     1      122.573898      739.745194    ;  uncertainty theta = 0.001502, k = 0.185142
        11        17        33     1      120.138596      260.992195    ;  uncertainty theta = 0.003960, k = 0.108553
        12        11        16     1      120.145897      441.910389    ;  uncertainty theta = 0.011714, k = 0.204531
        12        11        17     1      123.477745      406.388429    ;  uncertainty theta = 0.007028, k = 0.174657
        12        18        23     1      122.495399      426.177135    ;  uncertainty theta = 0.003016, k = 0.092274
        13         5        31     1      122.167213      276.182816    ;  uncertainty theta = 0.001979, k = 0.047518
        13        14        15     1      117.679276      490.002065    ;  uncertainty theta = 0.001416, k = 0.046653
        13        14        29     1      120.978439      282.379204    ;  uncertainty theta = 0.000982, k = 0.023307
        14        13        22     1      119.340736      515.983168    ;  uncertainty theta = 0.001915, k = 0.014125
        14        15        19     1      121.214966      509.817585    ;  uncertainty theta = 0.002734, k = 0.081000
        14        15        30     1      120.371567      284.922126    ;  uncertainty theta = 0.002332, k = 0.030236
        15        14        29     1      121.389076      278.892591    ;  uncertainty theta = 0.001182, k = 0.028037
        15        19        23     1      121.313034      424.254318    ;  uncertainty theta = 0.004582, k = 0.111195
        16        11        17     1      117.223022      433.771903    ;  uncertainty theta = 0.005706, k = 0.172888
        16        26        20     1      114.504738      417.797388    ;  uncertainty theta = 0.006344, k = 0.183332
        18         7        25     1      123.686378      478.043036    ;  uncertainty theta = 0.002261, k = 0.040321
        18         7        26     1      114.902344      326.735535    ;  uncertainty theta = 0.011369, k = 0.526696
        18        12        32     1      120.565475      276.248606    ;  uncertainty theta = 0.006005, k = 0.204362
        18        23        19     1      112.349411      458.739759    ;  uncertainty theta = 0.005392, k = 0.291515
        19         8        21     1      117.525742      487.064690    ;  uncertainty theta = 0.002079, k = 0.147581
        19        15        30     1      118.610428      275.458648    ;  uncertainty theta = 0.003647, k = 0.058785
        20        46        47     1      108.340309      497.461103    ;  uncertainty theta = 0.001626, k = 0.057813
        20        46        51     1      108.340309      497.461103    ;  uncertainty theta = 0.001626, k = 0.057813
        20        46        55     1      108.706314      605.086037    ;  uncertainty theta = 0.005225, k = 0.145860
        24         9        27     1      128.699509      744.224276    ;  uncertainty theta = 0.002604, k = 0.101807
        24         9        28     1      120.633926      828.446109    ;  uncertainty theta = 0.008794, k = 0.131219
        24        17        33     1      117.368210      318.255364    ;  uncertainty theta = 0.003552, k = 0.161160
        25         7        26     1      122.312576      684.838047    ;  uncertainty theta = 0.003249, k = 0.092139
        26        16        27     1      117.449135      608.582259    ;  uncertainty theta = 0.011300, k = 0.150927
        26        20        43     1      104.563332      443.867393    ;  uncertainty theta = 0.003853, k = 0.097148
        26        20        44     1      104.563332      443.867393    ;  uncertainty theta = 0.003853, k = 0.097148
        26        20        46     1      110.345581      581.536545    ;  uncertainty theta = 0.005123, k = 0.174630
        27         9        28     1      121.224037      914.820083    ;  uncertainty theta = 0.007146, k = 0.101001
        28        10        42     1      103.516525      447.268585    ;  uncertainty theta = 0.003472, k = 0.117225
        34         1        35     1      105.438782      311.403087    ;  uncertainty theta = 0.002031, k = 0.016795
        36         2        37     1      106.555069      320.243013    ;  uncertainty theta = 0.001313, k = 0.032691
        38         3        39     1      106.555069      320.243013    ;  uncertainty theta = 0.001313, k = 0.032691
        40         4        41     1      105.438782      311.403087    ;  uncertainty theta = 0.002031, k = 0.016795
        43        20        44     1      107.855125      316.655049    ;  uncertainty theta = 0.003987, k = 0.062187
        43        20        46     1      108.218056      383.012781    ;  uncertainty theta = 0.003434, k = 0.153142
        44        20        46     1      108.218056      383.012781    ;  uncertainty theta = 0.003434, k = 0.153142
        46        47        48     1      106.920006      378.450448    ;  uncertainty theta = 0.001447, k = 0.055287
        46        47        49     1      106.920006      378.450448    ;  uncertainty theta = 0.001447, k = 0.055287
        46        47        50     1      106.920006      378.450448    ;  uncertainty theta = 0.001447, k = 0.055287
        46        51        52     1      106.920006      378.450448    ;  uncertainty theta = 0.001447, k = 0.055287
        46        51        53     1      106.920006      378.450448    ;  uncertainty theta = 0.001447, k = 0.055287
        46        51        54     1      106.920006      378.450448    ;  uncertainty theta = 0.001447, k = 0.055287
        46        55        56     1      107.593544      467.966189    ;  uncertainty theta = 0.001464, k = 0.053041
        47        46        51     1      110.969604      554.265211    ;  uncertainty theta = 0.000833, k = 0.158932
        47        46        55     1      110.238098      697.493281    ;  uncertainty theta = 0.002926, k = 0.108878
        48        47        49     1      105.647461      317.956867    ;  uncertainty theta = 0.000897, k = 0.008746
        48        47        50     1      105.647461      317.956867    ;  uncertainty theta = 0.000897, k = 0.008746
        49        47        50     1      105.647461      317.956867    ;  uncertainty theta = 0.000897, k = 0.008746
        51        46        55     1      110.238098      697.493281    ;  uncertainty theta = 0.002926, k = 0.108878
        52        51        53     1      105.647461      317.956867    ;  uncertainty theta = 0.000897, k = 0.008746
        52        51        54     1      105.647461      317.956867    ;  uncertainty theta = 0.000897, k = 0.008746
        53        51        54     1      105.647461      317.956867    ;  uncertainty theta = 0.000897, k = 0.008746

[ dihedrals ] ; propers for gromacs 4.5 or higher, use funct 9
;       ai        aj        ak        al funct           phase               k        pn
         1         2         6         3     9        0.000000       -3.090920         1    ;  uncertainty k = 1.764723
         1         2         6         3     9      180.000000        0.099645         2    ;  uncertainty k = 1.147878
         1         2         6         3     9        0.000000        0.937069         3    ;  uncertainty k = 0.257052
         1         2         6         3     9      180.000000       -0.348700         4    ;  uncertainty k = 0.188482
         1        10         4         3     9        0.000000       -7.182169         1    ;  uncertainty k = 1.160296
         1        10         4         3     9      180.000000        0.651721         2    ;  uncertainty k = 0.689257
         1        10         4         3     9        0.000000        1.337200         3    ;  uncertainty k = 0.165866
         1        10         4         3     9      180.000000       -1.433187         4    ;  uncertainty k = 0.219126
         1        10         4        40     9        0.000000       -1.858871         1    ;  uncertainty k = 0.333669
         1        10         4        40     9      180.000000       -0.004379         2    ;  uncertainty k = 0.147655
         1        10         4        40     9        0.000000        0.298804         3    ;  uncertainty k = 0.155785
         1        10         4        40     9      180.000000       -0.141300         4    ;  uncertainty k = 0.079428
         1        10         4        41     9        0.000000       -1.858871         1    ;  uncertainty k = 0.333669
         1        10         4        41     9      180.000000       -0.004379         2    ;  uncertainty k = 0.147655
         1        10         4        41     9        0.000000        0.298804         3    ;  uncertainty k = 0.155785
         1        10         4        41     9      180.000000       -0.141300         4    ;  uncertainty k = 0.079428
         1        10        28         9     9        0.000000       -2.505165         1    ;  uncertainty k = 0.386990
         1        10        28         9     9      180.000000        0.497922         2    ;  uncertainty k = 0.198476
         1        10        28         9     9        0.000000        0.367322         3    ;  uncertainty k = 0.126648
         1        10        28         9     9      180.000000        0.361622         4    ;  uncertainty k = 0.081111
         1        10        28        45     9        0.000000        2.787690         1    ;  uncertainty k = 0.893880
         1        10        28        45     9      180.000000       -0.663636         2    ;  uncertainty k = 0.236090
         1        10        28        45     9        0.000000        0.218247         3    ;  uncertainty k = 0.119918
         1        10        28        45     9      180.000000        0.123443         4    ;  uncertainty k = 0.073280
         2         1        10         4     9        0.000000       -7.182169         1    ;  uncertainty k = 1.160296
         2         1        10         4     9      180.000000        0.651721         2    ;  uncertainty k = 0.689257
         2         1        10         4     9        0.000000        1.337200         3    ;  uncertainty k = 0.165866
         2         1        10         4     9      180.000000       -1.433187         4    ;  uncertainty k = 0.219126
         2         1        10        28     9        0.000000       -4.805353         1    ;  uncertainty k = 0.699431
         2         1        10        28     9      180.000000       -0.187719         2    ;  uncertainty k = 0.333371
         2         1        10        28     9        0.000000        1.016385         3    ;  uncertainty k = 0.162984
         2         1        10        28     9      180.000000       -0.078100         4    ;  uncertainty k = 0.195994
         2         1        10        42     9        0.000000       -1.687319         1    ;  uncertainty k = 0.555497
         2         1        10        42     9      180.000000       -0.643722         2    ;  uncertainty k = 0.388884
         2         1        10        42     9        0.000000        0.030461         3    ;  uncertainty k = 0.099396
         2         1        10        42     9      180.000000       -0.147535         4    ;  uncertainty k = 0.108263
         2         6         3         4     9        0.000000       -3.090920         1    ;  uncertainty k = 1.764723
         2         6         3         4     9      180.000000        0.099645         2    ;  uncertainty k = 1.147878
         2         6         3         4     9        0.000000        0.937069         3    ;  uncertainty k = 0.257052
         2         6         3         4     9      180.000000       -0.348700         4    ;  uncertainty k = 0.188482
         2         6         3        38     9        0.000000       -5.435409         1    ;  uncertainty k = 1.705293
         2         6         3        38     9      180.000000        0.309318         2    ;  uncertainty k = 0.194051
         2         6         3        38     9        0.000000        0.745836         3    ;  uncertainty k = 0.129776
         2         6         3        38     9      180.000000       -0.529315         4    ;  uncertainty k = 0.148432
         2         6         3        39     9        0.000000       -5.435409         1    ;  uncertainty k = 1.705293
         2         6         3        39     9      180.000000        0.309318         2    ;  uncertainty k = 0.194051
         2         6         3        39     9        0.000000        0.745836         3    ;  uncertainty k = 0.129776
         2         6         3        39     9      180.000000       -0.529315         4    ;  uncertainty k = 0.148432
         3         4        10        28     9        0.000000       -4.805353         1    ;  uncertainty k = 0.699431
         3         4        10        28     9      180.000000       -0.187719         2    ;  uncertainty k = 0.333371
         3         4        10        28     9        0.000000        1.016385         3    ;  uncertainty k = 0.162984
         3         4        10        28     9      180.000000       -0.078100         4    ;  uncertainty k = 0.195994
         3         4        10        42     9        0.000000       -1.687319         1    ;  uncertainty k = 0.555497
         3         4        10        42     9      180.000000       -0.643722         2    ;  uncertainty k = 0.388884
         3         4        10        42     9        0.000000        0.030461         3    ;  uncertainty k = 0.099396
         3         4        10        42     9      180.000000       -0.147535         4    ;  uncertainty k = 0.108263
         3         6         2        36     9        0.000000       -5.435409         1    ;  uncertainty k = 1.705293
         3         6         2        36     9      180.000000        0.309318         2    ;  uncertainty k = 0.194051
         3         6         2        36     9        0.000000        0.745836         3    ;  uncertainty k = 0.129776
         3         6         2        36     9      180.000000       -0.529315         4    ;  uncertainty k = 0.148432
         3         6         2        37     9        0.000000       -5.435409         1    ;  uncertainty k = 1.705293
         3         6         2        37     9      180.000000        0.309318         2    ;  uncertainty k = 0.194051
         3         6         2        37     9        0.000000        0.745836         3    ;  uncertainty k = 0.129776
         3         6         2        37     9      180.000000       -0.529315         4    ;  uncertainty k = 0.148432
         4        10         1        34     9        0.000000       -1.858871         1    ;  uncertainty k = 0.333669
         4        10         1        34     9      180.000000       -0.004379         2    ;  uncertainty k = 0.147655
         4        10         1        34     9        0.000000        0.298804         3    ;  uncertainty k = 0.155785
         4        10         1        34     9      180.000000       -0.141300         4    ;  uncertainty k = 0.079428
         4        10         1        35     9        0.000000       -1.858871         1    ;  uncertainty k = 0.333669
         4        10         1        35     9      180.000000       -0.004379         2    ;  uncertainty k = 0.147655
         4        10         1        35     9        0.000000        0.298804         3    ;  uncertainty k = 0.155785
         4        10         1        35     9      180.000000       -0.141300         4    ;  uncertainty k = 0.079428
         4        10        28         9     9        0.000000       -2.505165         1    ;  uncertainty k = 0.386990
         4        10        28         9     9      180.000000        0.497922         2    ;  uncertainty k = 0.198476
         4        10        28         9     9        0.000000        0.367322         3    ;  uncertainty k = 0.126648
         4        10        28         9     9      180.000000        0.361622         4    ;  uncertainty k = 0.081111
         4        10        28        45     9        0.000000        2.787690         1    ;  uncertainty k = 0.893880
         4        10        28        45     9      180.000000       -0.663636         2    ;  uncertainty k = 0.236090
         4        10        28        45     9        0.000000        0.218247         3    ;  uncertainty k = 0.119918
         4        10        28        45     9      180.000000        0.123443         4    ;  uncertainty k = 0.073280
         5         8        19        15     9        0.000000       -0.306313         1    ;  uncertainty k = 0.505391
         5         8        19        15     9      180.000000        5.699560         2    ;  uncertainty k = 1.071993
         5         8        19        15     9        0.000000        0.341049         3    ;  uncertainty k = 0.427163
         5         8        19        15     9      180.000000        1.286695         4    ;  uncertainty k = 0.336491
         5         8        19        23     9        0.000000        0.209707         1    ;  uncertainty k = 0.181119
         5         8        19        23     9      180.000000        8.078772         2    ;  uncertainty k = 0.443297
         5         8        19        23     9        0.000000        1.333895         3    ;  uncertainty k = 0.197684
         5         8        19        23     9      180.000000        1.703363         4    ;  uncertainty k = 0.101848
         5        13        14        15     9        0.000000        0.006656         1    ;  uncertainty k = 0.178742
         5        13        14        15     9      180.000000        9.851306         2    ;  uncertainty k = 0.487067
         5        13        14        15     9        0.000000       -0.289375         3    ;  uncertainty k = 0.510037
         5        13        14        15     9      180.000000        1.102178         4    ;  uncertainty k = 0.341530
         5        13        14        29     9        0.000000        0.058690         1    ;  uncertainty k = 0.184961
         5        13        14        29     9      180.000000        5.722279         2    ;  uncertainty k = 0.634542
         5        13        14        29     9        0.000000        1.318867         3    ;  uncertainty k = 0.348930
         5        13        14        29     9      180.000000        1.524759         4    ;  uncertainty k = 0.200416
         6         2         1        10     9        0.000000       -0.987582         1    ;  uncertainty k = 1.101439
         6         2         1        10     9      180.000000       -3.903899         2    ;  uncertainty k = 0.673250
         6         2         1        10     9        0.000000        1.869479         3    ;  uncertainty k = 0.389552
         6         2         1        10     9      180.000000       -0.727265         4    ;  uncertainty k = 0.139798
         6         2         1        34     9        0.000000       -1.784485         1    ;  uncertainty k = 0.521414
         6         2         1        34     9      180.000000       -0.100756         2    ;  uncertainty k = 0.269946
         6         2         1        34     9        0.000000        1.457848         3    ;  uncertainty k = 0.236776
         6         2         1        34     9      180.000000       -0.196225         4    ;  uncertainty k = 0.165688
         6         2         1        35     9        0.000000       -1.784485         1    ;  uncertainty k = 0.521414
         6         2         1        35     9      180.000000       -0.100756         2    ;  uncertainty k = 0.269946
         6         2         1        35     9        0.000000        1.457848         3    ;  uncertainty k = 0.236776
         6         2         1        35     9      180.000000       -0.196225         4    ;  uncertainty k = 0.165688
         6         3         4        10     9        0.000000       -0.987582         1    ;  uncertainty k = 1.101439
         6         3         4        10     9      180.000000       -3.903899         2    ;  uncertainty k = 0.673250
         6         3         4        10     9        0.000000        1.869479         3    ;  uncertainty k = 0.389552
         6         3         4        10     9      180.000000       -0.727265         4    ;  uncertainty k = 0.139798
         6         3         4        40     9        0.000000       -1.784485         1    ;  uncertainty k = 0.521414
         6         3         4        40     9      180.000000       -0.100756         2    ;  uncertainty k = 0.269946
         6         3         4        40     9        0.000000        1.457848         3    ;  uncertainty k = 0.236776
         6         3         4        40     9      180.000000       -0.196225         4    ;  uncertainty k = 0.165688
         6         3         4        41     9        0.000000       -1.784485         1    ;  uncertainty k = 0.521414
         6         3         4        41     9      180.000000       -0.100756         2    ;  uncertainty k = 0.269946
         6         3         4        41     9        0.000000        1.457848         3    ;  uncertainty k = 0.236776
         6         3         4        41     9      180.000000       -0.196225         4    ;  uncertainty k = 0.165688
         7        18        12        11     9        0.000000        0.288402         1    ;  uncertainty k = 0.551023
         7        18        12        11     9      180.000000       13.329650         2    ;  uncertainty k = 0.330237
         7        18        12        11     9        0.000000        1.603819         3    ;  uncertainty k = 0.178557
         7        18        12        11     9      180.000000        1.143459         4    ;  uncertainty k = 0.251530
         7        18        12        32     9        0.000000        0.170720         1    ;  uncertainty k = 0.642538
         7        18        12        32     9      180.000000       10.849321         2    ;  uncertainty k = 0.656347
         7        18        12        32     9        0.000000        1.590689         3    ;  uncertainty k = 0.450309
         7        18        12        32     9      180.000000        1.209191         4    ;  uncertainty k = 0.070407
         7        18        23        19     9        0.000000        3.002862         1    ;  uncertainty k = 2.030880
         7        18        23        19     9      180.000000        3.139361         2    ;  uncertainty k = 0.211380
         7        18        23        19     9        0.000000        1.806530         3    ;  uncertainty k = 0.371173
         7        18        23        19     9      180.000000        0.157409         4    ;  uncertainty k = 0.218160
         7        26        16        11     9        0.000000        0.671568         1    ;  uncertainty k = 1.906441
         7        26        16        11     9      180.000000        4.158827         2    ;  uncertainty k = 0.990009
         7        26        16        11     9        0.000000        0.434661         3    ;  uncertainty k = 0.378732
         7        26        16        11     9      180.000000        0.129079         4    ;  uncertainty k = 0.121795
         7        26        16        27     9        0.000000        0.020774         1    ;  uncertainty k = 1.600038
         7        26        16        27     9      180.000000        7.399947         2    ;  uncertainty k = 0.501885
         7        26        16        27     9        0.000000        1.112507         3    ;  uncertainty k = 0.443149
         7        26        16        27     9      180.000000       -0.144588         4    ;  uncertainty k = 0.274854
         7        26        20        43     9        0.000000       -0.297113         1    ;  uncertainty k = 0.663178
         7        26        20        43     9      180.000000        1.537644         2    ;  uncertainty k = 0.664437
         7        26        20        43     9        0.000000        0.269236         3    ;  uncertainty k = 0.057160
         7        26        20        43     9      180.000000        0.454669         4    ;  uncertainty k = 0.067151
         7        26        20        44     9        0.000000       -0.297113         1    ;  uncertainty k = 0.663178
         7        26        20        44     9      180.000000        1.537644         2    ;  uncertainty k = 0.664437
         7        26        20        44     9        0.000000        0.269236         3    ;  uncertainty k = 0.057160
         7        26        20        44     9      180.000000        0.454669         4    ;  uncertainty k = 0.067151
         7        26        20        46     9        0.000000        1.346709         1    ;  uncertainty k = 0.912743
         7        26        20        46     9      180.000000        0.189051         2    ;  uncertainty k = 0.455230
         7        26        20        46     9        0.000000       -0.008868         3    ;  uncertainty k = 0.278702
         7        26        20        46     9      180.000000        0.503956         4    ;  uncertainty k = 0.048804
         8         5        13        14     9        0.000000       -0.049959         1    ;  uncertainty k = 0.238365
         8         5        13        14     9      180.000000        8.709297         2    ;  uncertainty k = 0.507640
         8         5        13        14     9        0.000000       -0.103094         3    ;  uncertainty k = 0.454333
         8         5        13        14     9      180.000000        1.263124         4    ;  uncertainty k = 0.287252
         8         5        13        22     9        0.000000        0.023050         1    ;  uncertainty k = 0.157478
         8         5        13        22     9      180.000000       12.231401         2    ;  uncertainty k = 0.567990
         8         5        13        22     9        0.000000        1.527926         3    ;  uncertainty k = 0.329456
         8         5        13        22     9      180.000000        1.522411         4    ;  uncertainty k = 0.258192
         8        19        15        14     9        0.000000        0.015776         1    ;  uncertainty k = 0.049644
         8        19        15        14     9      180.000000        9.130352         2    ;  uncertainty k = 0.496855
         8        19        15        14     9        0.000000        0.154802         3    ;  uncertainty k = 0.380221
         8        19        15        14     9      180.000000        1.321067         4    ;  uncertainty k = 0.368043
         8        19        15        30     9        0.000000        0.146476         1    ;  uncertainty k = 0.242432
         8        19        15        30     9      180.000000        6.097361         2    ;  uncertainty k = 0.718867
         8        19        15        30     9        0.000000        1.323120         3    ;  uncertainty k = 0.435541
         8        19        15        30     9      180.000000        1.565701         4    ;  uncertainty k = 0.129358
         8        19        23        18     9        0.000000        3.642353         1    ;  uncertainty k = 0.787116
         8        19        23        18     9      180.000000        2.947557         2    ;  uncertainty k = 0.362365
         8        19        23        18     9        0.000000        0.855606         3    ;  uncertainty k = 0.229484
         8        19        23        18     9      180.000000        0.047733         4    ;  uncertainty k = 0.192573
         9        24        17        11     9        0.000000       -0.072405         1    ;  uncertainty k = 0.770218
         9        24        17        11     9      180.000000       17.273604         2    ;  uncertainty k = 0.605279
         9        24        17        11     9        0.000000       -0.496287         3    ;  uncertainty k = 0.676757
         9        24        17        11     9      180.000000        1.602076         4    ;  uncertainty k = 0.596362
         9        24        17        33     9        0.000000        0.074308         1    ;  uncertainty k = 0.978395
         9        24        17        33     9      180.000000       17.919801         2    ;  uncertainty k = 0.668021
         9        24        17        33     9        0.000000        1.366389         3    ;  uncertainty k = 0.782182
         9        24        17        33     9      180.000000        1.132681         4    ;  uncertainty k = 0.479665
         9        27        16        11     9        0.000000        0.189729         1    ;  uncertainty k = 0.765779
         9        27        16        11     9      180.000000       13.156607         2    ;  uncertainty k = 0.613683
         9        27        16        11     9        0.000000        0.201962         3    ;  uncertainty k = 0.925448
         9        27        16        11     9      180.000000        1.005741         4    ;  uncertainty k = 0.377941
         9        27        16        26     9        0.000000        0.467877         1    ;  uncertainty k = 0.544993
         9        27        16        26     9      180.000000       16.145395         2    ;  uncertainty k = 0.957592
         9        27        16        26     9        0.000000        1.903790         3    ;  uncertainty k = 0.303572
         9        27        16        26     9      180.000000        1.129392         4    ;  uncertainty k = 0.448507
         9        28        10        42     9        0.000000       -0.140403         1    ;  uncertainty k = 0.458987
         9        28        10        42     9      180.000000       -0.299246         2    ;  uncertainty k = 0.132432
         9        28        10        42     9        0.000000        0.051471         3    ;  uncertainty k = 0.152476
         9        28        10        42     9      180.000000        0.288509         4    ;  uncertainty k = 0.067555
        10         1         2        36     9        0.000000        3.577617         1    ;  uncertainty k = 1.073611
        10         1         2        36     9      180.000000       -2.876486         2    ;  uncertainty k = 0.518010
        10         1         2        36     9        0.000000       -0.152945         3    ;  uncertainty k = 0.197941
        10         1         2        36     9      180.000000        0.397574         4    ;  uncertainty k = 0.144225
        10         1         2        37     9        0.000000        3.577617         1    ;  uncertainty k = 1.073611
        10         1         2        37     9      180.000000       -2.876486         2    ;  uncertainty k = 0.518010
        10         1         2        37     9        0.000000       -0.152945         3    ;  uncertainty k = 0.197941
        10         1         2        37     9      180.000000        0.397574         4    ;  uncertainty k = 0.144225
        10         4         3        38     9        0.000000        3.577617         1    ;  uncertainty k = 1.073611
        10         4         3        38     9      180.000000       -2.876486         2    ;  uncertainty k = 0.518010
        10         4         3        38     9        0.000000       -0.152945         3    ;  uncertainty k = 0.197941
        10         4         3        38     9      180.000000        0.397574         4    ;  uncertainty k = 0.144225
        10         4         3        39     9        0.000000        3.577617         1    ;  uncertainty k = 1.073611
        10         4         3        39     9      180.000000       -2.876486         2    ;  uncertainty k = 0.518010
        10         4         3        39     9        0.000000       -0.152945         3    ;  uncertainty k = 0.197941
        10         4         3        39     9      180.000000        0.397574         4    ;  uncertainty k = 0.144225
        10        28         9        24     9        0.000000        9.093945         1    ;  uncertainty k = 0.673524
        10        28         9        24     9      180.000000       11.328686         2    ;  uncertainty k = 0.246478
        10        28         9        24     9        0.000000        1.388656         3    ;  uncertainty k = 0.179740
        10        28         9        24     9      180.000000       -0.343204         4    ;  uncertainty k = 0.041612
        10        28         9        27     9        0.000000       10.053080         1    ;  uncertainty k = 0.709062
        10        28         9        27     9      180.000000       11.500084         2    ;  uncertainty k = 0.166059
        10        28         9        27     9        0.000000        1.262159         3    ;  uncertainty k = 0.211791
        10        28         9        27     9      180.000000       -0.379702         4    ;  uncertainty k = 0.058109
        11        12        18        23     9        0.000000        0.134730         1    ;  uncertainty k = 0.315884
        11        12        18        23     9      180.000000       21.248794         2    ;  uncertainty k = 0.621963
        11        12        18        23     9        0.000000        2.038760         3    ;  uncertainty k = 0.327390
        11        12        18        23     9      180.000000        0.645045         4    ;  uncertainty k = 0.556736
        11        16        26        20     9        0.000000        2.448098         1    ;  uncertainty k = 0.592174
        11        16        26        20     9      180.000000        8.878103         2    ;  uncertainty k = 0.270457
        11        16        26        20     9        0.000000        0.774342         3    ;  uncertainty k = 0.688591
        11        16        26        20     9      180.000000       -0.088864         4    ;  uncertainty k = 0.531942
        12        11        16        26     9        0.000000       -0.086995         1    ;  uncertainty k = 0.322765
        12        11        16        26     9      180.000000        7.842670         2    ;  uncertainty k = 0.519991
        12        11        16        26     9        0.000000        0.359191         3    ;  uncertainty k = 0.464699
        12        11        16        26     9      180.000000        1.022246         4    ;  uncertainty k = 0.217317
        12        11        16        27     9        0.000000        0.279555         1    ;  uncertainty k = 0.926917
        12        11        16        27     9      180.000000        8.246861         2    ;  uncertainty k = 1.424472
        12        11        16        27     9        0.000000        0.038794         3    ;  uncertainty k = 0.295882
        12        11        16        27     9      180.000000        1.260671         4    ;  uncertainty k = 0.567686
        12        11        17        24     9        0.000000        0.202355         1    ;  uncertainty k = 0.365865
        12        11        17        24     9      180.000000       10.740474         2    ;  uncertainty k = 0.604175
        12        11        17        24     9        0.000000        0.288303         3    ;  uncertainty k = 0.238852
        12        11        17        24     9      180.000000        1.228552         4    ;  uncertainty k = 0.359252
        12        11        17        33     9        0.000000       -0.447713         1    ;  uncertainty k = 0.564177
        12        11        17        33     9      180.000000        5.951853         2    ;  uncertainty k = 0.610297
        12        11        17        33     9        0.000000        0.824680         3    ;  uncertainty k = 0.261455
        12        11        17        33     9      180.000000        0.694799         4    ;  uncertainty k = 0.185376
        12        18         7        25     9        0.000000       -2.925996         1    ;  uncertainty k = 1.097363
        12        18         7        25     9      180.000000        2.871950         2    ;  uncertainty k = 0.885312
        12        18         7        25     9        0.000000       -0.182709         3    ;  uncertainty k = 0.464608
        12        18         7        25     9      180.000000       -0.022199         4    ;  uncertainty k = 0.189334
        12        18         7        26     9        0.000000        2.156035         1    ;  uncertainty k = 2.465363
        12        18         7        26     9      180.000000        0.595684         2    ;  uncertainty k = 0.826202
        12        18         7        26     9        0.000000        0.442310         3    ;  uncertainty k = 0.434091
        12        18         7        26     9      180.000000        0.387994         4    ;  uncertainty k = 0.198733
        12        18        23        19     9        0.000000        6.025205         1    ;  uncertainty k = 1.077323
        12        18        23        19     9      180.000000        6.312810         2    ;  uncertainty k = 0.149857
        12        18        23        19     9        0.000000       -0.841516         3    ;  uncertainty k = 0.374149
        12        18        23        19     9      180.000000        0.115728         4    ;  uncertainty k = 0.111332
        13         5         8        19     9        0.000000       -0.028157         1    ;  uncertainty k = 0.164194
        13         5         8        19     9      180.000000        8.671004         2    ;  uncertainty k = 0.512359
        13         5         8        19     9        0.000000        0.207433         3    ;  uncertainty k = 0.509188
        13         5         8        19     9      180.000000        1.302601         4    ;  uncertainty k = 0.281851
        13         5         8        21     9        0.000000       -0.002392         1    ;  uncertainty k = 0.247129
        13         5         8        21     9      180.000000       13.084887         2    ;  uncertainty k = 0.509633
        13         5         8        21     9        0.000000        1.474366         3    ;  uncertainty k = 0.306558
        13         5         8        21     9      180.000000        1.520558         4    ;  uncertainty k = 0.243651
        13        14        15        19     9        0.000000       -0.113542         1    ;  uncertainty k = 0.211768
        13        14        15        19     9      180.000000       13.972594         2    ;  uncertainty k = 0.306737
        13        14        15        19     9        0.000000       -0.786444         3    ;  uncertainty k = 0.554355
        13        14        15        19     9      180.000000        0.930464         4    ;  uncertainty k = 0.288428
        13        14        15        30     9        0.000000       -0.003440         1    ;  uncertainty k = 0.095641
        13        14        15        30     9      180.000000        7.538138         2    ;  uncertainty k = 0.273713
        13        14        15        30     9        0.000000        1.412643         3    ;  uncertainty k = 0.270752
        13        14        15        30     9      180.000000        1.740927         4    ;  uncertainty k = 0.123790
        14        13         5        31     9        0.000000        0.138635         1    ;  uncertainty k = 0.151239
        14        13         5        31     9      180.000000        5.451074         2    ;  uncertainty k = 0.660632
        14        13         5        31     9        0.000000        1.286115         3    ;  uncertainty k = 0.294094
        14        13         5        31     9      180.000000        1.480963         4    ;  uncertainty k = 0.179055
        14        15        19        23     9        0.000000       -0.064057         1    ;  uncertainty k = 0.392115
        14        15        19        23     9      180.000000       11.007024         2    ;  uncertainty k = 0.446783
        14        15        19        23     9        0.000000        1.358780         3    ;  uncertainty k = 0.241783
        14        15        19        23     9      180.000000        1.735948         4    ;  uncertainty k = 0.120659
        15        14        13        22     9        0.000000       -0.032001         1    ;  uncertainty k = 0.254449
        15        14        13        22     9      180.000000       12.251927         2    ;  uncertainty k = 0.522356
        15        14        13        22     9        0.000000        1.414423         3    ;  uncertainty k = 0.230243
        15        14        13        22     9      180.000000        1.530094         4    ;  uncertainty k = 0.209632
        15        19         8        21     9        0.000000        0.257162         1    ;  uncertainty k = 0.251999
        15        19         8        21     9      180.000000        8.387430         2    ;  uncertainty k = 0.311300
        15        19         8        21     9        0.000000        1.426919         3    ;  uncertainty k = 0.223314
        15        19         8        21     9      180.000000        1.675064         4    ;  uncertainty k = 0.138706
        15        19        23        18     9        0.000000        4.636374         1    ;  uncertainty k = 1.026403
        15        19        23        18     9      180.000000        3.974903         2    ;  uncertainty k = 0.166263
        15        19        23        18     9        0.000000        0.382780         3    ;  uncertainty k = 0.329302
        15        19        23        18     9      180.000000        0.118990         4    ;  uncertainty k = 0.075799
        16        11        12        18     9        0.000000       -0.099481         1    ;  uncertainty k = 1.050540
        16        11        12        18     9      180.000000        6.494132         2    ;  uncertainty k = 0.922377
        16        11        12        18     9        0.000000        0.242207         3    ;  uncertainty k = 0.425814
        16        11        12        18     9      180.000000        0.558746         4    ;  uncertainty k = 0.196411
        16        11        12        32     9        0.000000        0.529076         1    ;  uncertainty k = 1.174983
        16        11        12        32     9      180.000000        6.228558         2    ;  uncertainty k = 0.580134
        16        11        12        32     9        0.000000        1.078071         3    ;  uncertainty k = 0.297865
        16        11        12        32     9      180.000000        0.203706         4    ;  uncertainty k = 0.175395
        16        11        17        24     9        0.000000       -0.000919         1    ;  uncertainty k = 0.573545
        16        11        17        24     9      180.000000       12.084819         2    ;  uncertainty k = 0.420722
        16        11        17        24     9        0.000000       -0.988183         3    ;  uncertainty k = 0.827531
        16        11        17        24     9      180.000000        0.802679         4    ;  uncertainty k = 0.145586
        16        11        17        33     9        0.000000       -0.154892         1    ;  uncertainty k = 0.881672
        16        11        17        33     9      180.000000        6.428880         2    ;  uncertainty k = 0.764805
        16        11        17        33     9        0.000000        0.665746         3    ;  uncertainty k = 0.096133
        16        11        17        33     9      180.000000        0.766956         4    ;  uncertainty k = 0.246461
        16        26         7        18     9        0.000000        2.038774         1    ;  uncertainty k = 2.000900
        16        26         7        18     9      180.000000        2.353861         2    ;  uncertainty k = 1.342557
        16        26         7        18     9        0.000000        1.033187         3    ;  uncertainty k = 0.353786
        16        26         7        18     9      180.000000        0.487102         4    ;  uncertainty k = 0.273168
        16        26         7        25     9        0.000000        2.812175         1    ;  uncertainty k = 2.299635
        16        26         7        25     9      180.000000       13.971598         2    ;  uncertainty k = 0.658305
        16        26         7        25     9        0.000000        0.907265         3    ;  uncertainty k = 0.096319
        16        26         7        25     9      180.000000       -0.481139         4    ;  uncertainty k = 0.469977
        16        26        20        43     9        0.000000       -0.421122         1    ;  uncertainty k = 0.859460
        16        26        20        43     9      180.000000        1.459351         2    ;  uncertainty k = 0.383276
        16        26        20        43     9        0.000000       -0.033894         3    ;  uncertainty k = 0.296304
        16        26        20        43     9      180.000000        0.479231         4    ;  uncertainty k = 0.123076
        16        26        20        44     9        0.000000       -0.421122         1    ;  uncertainty k = 0.859460
        16        26        20        44     9      180.000000        1.459351         2    ;  uncertainty k = 0.383276
        16        26        20        44     9        0.000000       -0.033894         3    ;  uncertainty k = 0.296304
        16        26        20        44     9      180.000000        0.479231         4    ;  uncertainty k = 0.123076
        16        26        20        46     9        0.000000        0.182128         1    ;  uncertainty k = 1.091985
        16        26        20        46     9      180.000000        0.226463         2    ;  uncertainty k = 0.593074
        16        26        20        46     9        0.000000        0.256681         3    ;  uncertainty k = 0.205660
        16        26        20        46     9      180.000000        0.252938         4    ;  uncertainty k = 0.084882
        16        27         9        24     9        0.000000       -0.019828         1    ;  uncertainty k = 1.736458
        16        27         9        24     9      180.000000        6.536764         2    ;  uncertainty k = 0.863365
        16        27         9        24     9        0.000000        1.246641         3    ;  uncertainty k = 0.638638
        16        27         9        24     9      180.000000        0.772259         4    ;  uncertainty k = 0.327353
        16        27         9        28     9        0.000000        0.582719         1    ;  uncertainty k = 1.677746
        16        27         9        28     9      180.000000        9.003009         2    ;  uncertainty k = 0.735885
        16        27         9        28     9        0.000000        1.980678         3    ;  uncertainty k = 0.449223
        16        27         9        28     9      180.000000        0.873993         4    ;  uncertainty k = 0.277211
        17        11        12        18     9        0.000000        0.149037         1    ;  uncertainty k = 0.521768
        17        11        12        18     9      180.000000        5.253418         2    ;  uncertainty k = 1.039572
        17        11        12        18     9        0.000000        0.967220         3    ;  uncertainty k = 0.321451
        17        11        12        18     9      180.000000        0.400959         4    ;  uncertainty k = 0.240347
        17        11        12        32     9        0.000000        0.400693         1    ;  uncertainty k = 1.028720
        17        11        12        32     9      180.000000        5.374925         2    ;  uncertainty k = 0.259194
        17        11        12        32     9        0.000000        0.934403         3    ;  uncertainty k = 0.325657
        17        11        12        32     9      180.000000        0.077419         4    ;  uncertainty k = 0.144185
        17        11        16        26     9        0.000000       -0.761704         1    ;  uncertainty k = 0.616017
        17        11        16        26     9      180.000000        6.033656         2    ;  uncertainty k = 0.705141
        17        11        16        26     9        0.000000        0.113033         3    ;  uncertainty k = 0.295804
        17        11        16        26     9      180.000000        0.971793         4    ;  uncertainty k = 0.287088
        17        11        16        27     9        0.000000        0.063527         1    ;  uncertainty k = 0.462214
        17        11        16        27     9      180.000000        7.667108         2    ;  uncertainty k = 0.944292
        17        11        16        27     9        0.000000       -0.310580         3    ;  uncertainty k = 0.318874
        17        11        16        27     9      180.000000        1.190764         4    ;  uncertainty k = 0.587273
        17        24         9        27     9        0.000000        0.075359         1    ;  uncertainty k = 0.882870
        17        24         9        27     9      180.000000        6.538165         2    ;  uncertainty k = 1.384737
        17        24         9        27     9        0.000000        0.800451         3    ;  uncertainty k = 0.544209
        17        24         9        27     9      180.000000        0.515895         4    ;  uncertainty k = 0.219888
        17        24         9        28     9        0.000000        0.345932         1    ;  uncertainty k = 0.780093
        17        24         9        28     9      180.000000        7.807499         2    ;  uncertainty k = 0.530631
        17        24         9        28     9        0.000000        1.834583         3    ;  uncertainty k = 0.693167
        17        24         9        28     9      180.000000        0.637104         4    ;  uncertainty k = 0.276027
        18         7        26        20     9        0.000000        1.973149         1    ;  uncertainty k = 1.022406
        18         7        26        20     9      180.000000        7.791160         2    ;  uncertainty k = 0.972609
        18         7        26        20     9        0.000000        1.344134         3    ;  uncertainty k = 0.098975
        18         7        26        20     9      180.000000       -0.238961         4    ;  uncertainty k = 0.364557
        19         8         5        31     9        0.000000        0.057379         1    ;  uncertainty k = 0.165911
        19         8         5        31     9      180.000000        5.716951         2    ;  uncertainty k = 0.832327
        19         8         5        31     9        0.000000        1.299980         3    ;  uncertainty k = 0.327602
        19         8         5        31     9      180.000000        1.492424         4    ;  uncertainty k = 0.176810
        19        15        14        29     9        0.000000        0.076709         1    ;  uncertainty k = 0.186984
        19        15        14        29     9      180.000000        7.523892         2    ;  uncertainty k = 0.356925
        19        15        14        29     9        0.000000        1.389232         3    ;  uncertainty k = 0.254789
        19        15        14        29     9      180.000000        1.744370         4    ;  uncertainty k = 0.166848
        20        26         7        25     9        0.000000        2.221220         1    ;  uncertainty k = 1.251033
        20        26         7        25     9      180.000000       14.168202         2    ;  uncertainty k = 0.268253
        20        26         7        25     9        0.000000        0.349284         3    ;  uncertainty k = 0.332612
        20        26         7        25     9      180.000000       -0.241982         4    ;  uncertainty k = 0.414715
        20        26        16        27     9        0.000000        2.464799         1    ;  uncertainty k = 1.482726
        20        26        16        27     9      180.000000       11.130227         2    ;  uncertainty k = 0.522841
        20        26        16        27     9        0.000000        1.071151         3    ;  uncertainty k = 0.167042
        20        26        16        27     9      180.000000       -0.126758         4    ;  uncertainty k = 0.387351
        20        46        47        48     9        0.000000       -0.288603         1    ;  uncertainty k = 0.233756
        20        46        47        48     9      180.000000       -1.186858         2    ;  uncertainty k = 0.143618
        20        46        47        48     9        0.000000        0.431717         3    ;  uncertainty k = 0.127352
        20        46        47        48     9      180.000000       -0.269033         4    ;  uncertainty k = 0.068301
        20        46        47        49     9        0.000000       -0.288603         1    ;  uncertainty k = 0.233756
        20        46        47        49     9      180.000000       -1.186858         2    ;  uncertainty k = 0.143618
        20        46        47        49     9        0.000000        0.431717         3    ;  uncertainty k = 0.127352
        20        46        47        49     9      180.000000       -0.269033         4    ;  uncertainty k = 0.068301
        20        46        47        50     9        0.000000       -0.288603         1    ;  uncertainty k = 0.233756
        20        46        47        50     9      180.000000       -1.186858         2    ;  uncertainty k = 0.143618
        20        46        47        50     9        0.000000        0.431717         3    ;  uncertainty k = 0.127352
        20        46        47        50     9      180.000000       -0.269033         4    ;  uncertainty k = 0.068301
        20        46        51        52     9        0.000000       -0.288603         1    ;  uncertainty k = 0.233756
        20        46        51        52     9      180.000000       -1.186858         2    ;  uncertainty k = 0.143618
        20        46        51        52     9        0.000000        0.431717         3    ;  uncertainty k = 0.127352
        20        46        51        52     9      180.000000       -0.269033         4    ;  uncertainty k = 0.068301
        20        46        51        53     9        0.000000       -0.288603         1    ;  uncertainty k = 0.233756
        20        46        51        53     9      180.000000       -1.186858         2    ;  uncertainty k = 0.143618
        20        46        51        53     9        0.000000        0.431717         3    ;  uncertainty k = 0.127352
        20        46        51        53     9      180.000000       -0.269033         4    ;  uncertainty k = 0.068301
        20        46        51        54     9        0.000000       -0.288603         1    ;  uncertainty k = 0.233756
        20        46        51        54     9      180.000000       -1.186858         2    ;  uncertainty k = 0.143618
        20        46        51        54     9        0.000000        0.431717         3    ;  uncertainty k = 0.127352
        20        46        51        54     9      180.000000       -0.269033         4    ;  uncertainty k = 0.068301
        20        46        55        56     9        0.000000       16.517977         1    ;  uncertainty k = 0.086697
        20        46        55        56     9      180.000000       -5.115803         2    ;  uncertainty k = 0.476698
        20        46        55        56     9        0.000000        1.123827         3    ;  uncertainty k = 0.140925
        20        46        55        56     9      180.000000        0.594602         4    ;  uncertainty k = 0.229011
        21         8         5        31     9        0.000000       -0.230980         1    ;  uncertainty k = 0.291748
        21         8         5        31     9      180.000000        9.239380         2    ;  uncertainty k = 0.341179
        21         8         5        31     9        0.000000        0.839928         3    ;  uncertainty k = 0.293710
        21         8         5        31     9      180.000000        1.043063         4    ;  uncertainty k = 0.201990
        21         8        19        23     9        0.000000       -0.105793         1    ;  uncertainty k = 0.354022
        21         8        19        23     9      180.000000       12.165824         2    ;  uncertainty k = 0.214592
        21         8        19        23     9        0.000000        1.160865         3    ;  uncertainty k = 0.370829
        21         8        19        23     9      180.000000        1.261897         4    ;  uncertainty k = 0.194088
        22        13         5        31     9        0.000000       -0.271891         1    ;  uncertainty k = 0.249928
        22        13         5        31     9      180.000000        8.500019         2    ;  uncertainty k = 0.281498
        22        13         5        31     9        0.000000        0.815708         3    ;  uncertainty k = 0.327842
        22        13         5        31     9      180.000000        0.992978         4    ;  uncertainty k = 0.194491
        22        13        14        29     9        0.000000       -0.357248         1    ;  uncertainty k = 0.222188
        22        13        14        29     9      180.000000        8.920407         2    ;  uncertainty k = 0.265967
        22        13        14        29     9        0.000000        0.818892         3    ;  uncertainty k = 0.249596
        22        13        14        29     9      180.000000        0.905586         4    ;  uncertainty k = 0.175017
        23        18         7        25     9        0.000000       -2.005828         1    ;  uncertainty k = 1.513848
        23        18         7        25     9      180.000000        9.849363         2    ;  uncertainty k = 0.501334
        23        18         7        25     9        0.000000        0.233768         3    ;  uncertainty k = 0.525017
        23        18         7        25     9      180.000000       -0.378394         4    ;  uncertainty k = 0.445169
        23        18         7        26     9        0.000000        1.639855         1    ;  uncertainty k = 1.359037
        23        18         7        26     9      180.000000        3.392715         2    ;  uncertainty k = 0.790290
        23        18         7        26     9        0.000000        0.677281         3    ;  uncertainty k = 0.462556
        23        18         7        26     9      180.000000        0.576408         4    ;  uncertainty k = 0.125549
        23        18        12        32     9        0.000000        0.183029         1    ;  uncertainty k = 0.788563
        23        18        12        32     9      180.000000       16.374971         2    ;  uncertainty k = 0.464729
        23        18        12        32     9        0.000000        1.923257         3    ;  uncertainty k = 0.064543
        23        18        12        32     9      180.000000        0.964566         4    ;  uncertainty k = 0.594975
        23        19        15        30     9        0.000000       -0.025816         1    ;  uncertainty k = 0.162969
        23        19        15        30     9      180.000000        8.757822         2    ;  uncertainty k = 0.242306
        23        19        15        30     9        0.000000        0.878698         3    ;  uncertainty k = 0.265252
        23        19        15        30     9      180.000000        1.203360         4    ;  uncertainty k = 0.152721
        24         9        28        45     9        0.000000       10.289718         1    ;  uncertainty k = 0.671473
        24         9        28        45     9      180.000000        9.708731         2    ;  uncertainty k = 0.263556
        24         9        28        45     9        0.000000        1.249260         3    ;  uncertainty k = 0.563999
        24         9        28        45     9      180.000000       -0.441153         4    ;  uncertainty k = 0.253050
        26        20        46        47     9        0.000000        0.398416         1    ;  uncertainty k = 0.708993
        26        20        46        47     9      180.000000       -0.903159         2    ;  uncertainty k = 0.576630
        26        20        46        47     9        0.000000        0.752260         3    ;  uncertainty k = 0.202418
        26        20        46        47     9      180.000000       -0.173778         4    ;  uncertainty k = 0.093619
        26        20        46        51     9        0.000000        0.398416         1    ;  uncertainty k = 0.708993
        26        20        46        51     9      180.000000       -0.903159         2    ;  uncertainty k = 0.576630
        26        20        46        51     9        0.000000        0.752260         3    ;  uncertainty k = 0.202418
        26        20        46        51     9      180.000000       -0.173778         4    ;  uncertainty k = 0.093619
        26        20        46        55     9        0.000000        0.195572         1    ;  uncertainty k = 0.697539
        26        20        46        55     9      180.000000       -2.337002         2    ;  uncertainty k = 0.444479
        26        20        46        55     9        0.000000        0.726010         3    ;  uncertainty k = 0.250539
        26        20        46        55     9      180.000000       -0.223631         4    ;  uncertainty k = 0.078805
        27         9        28        45     9        0.000000       12.429669         1    ;  uncertainty k = 0.674967
        27         9        28        45     9      180.000000       10.330289         2    ;  uncertainty k = 0.421477
        27         9        28        45     9        0.000000        1.229435         3    ;  uncertainty k = 0.554087
        27         9        28        45     9      180.000000       -0.548151         4    ;  uncertainty k = 0.181940
        28        10         1        34     9        0.000000       -0.664477         1    ;  uncertainty k = 0.439753
        28        10         1        34     9      180.000000       -0.719545         2    ;  uncertainty k = 0.206247
        28        10         1        34     9        0.000000        1.110830         3    ;  uncertainty k = 0.090613
        28        10         1        34     9      180.000000       -0.312617         4    ;  uncertainty k = 0.084156
        28        10         1        35     9        0.000000       -0.664477         1    ;  uncertainty k = 0.439753
        28        10         1        35     9      180.000000       -0.719545         2    ;  uncertainty k = 0.206247
        28        10         1        35     9        0.000000        1.110830         3    ;  uncertainty k = 0.090613
        28        10         1        35     9      180.000000       -0.312617         4    ;  uncertainty k = 0.084156
        28        10         4        40     9        0.000000       -0.664477         1    ;  uncertainty k = 0.439753
        28        10         4        40     9      180.000000       -0.719545         2    ;  uncertainty k = 0.206247
        28        10         4        40     9        0.000000        1.110830         3    ;  uncertainty k = 0.090613
        28        10         4        40     9      180.000000       -0.312617         4    ;  uncertainty k = 0.084156
        28        10         4        41     9        0.000000       -0.664477         1    ;  uncertainty k = 0.439753
        28        10         4        41     9      180.000000       -0.719545         2    ;  uncertainty k = 0.206247
        28        10         4        41     9        0.000000        1.110830         3    ;  uncertainty k = 0.090613
        28        10         4        41     9      180.000000       -0.312617         4    ;  uncertainty k = 0.084156
        29        14        15        30     9        0.000000        0.032265         1    ;  uncertainty k = 0.250069
        29        14        15        30     9      180.000000        7.287468         2    ;  uncertainty k = 0.427630
        29        14        15        30     9        0.000000       -0.295849         3    ;  uncertainty k = 0.226115
        29        14        15        30     9      180.000000        0.117549         4    ;  uncertainty k = 0.137082
        34         1         2        36     9        0.000000       -0.225271         1    ;  uncertainty k = 0.371621
        34         1         2        36     9      180.000000        0.719911         2    ;  uncertainty k = 0.314572
        34         1         2        36     9        0.000000        0.112053         3    ;  uncertainty k = 0.052184
        34         1         2        36     9      180.000000       -0.321413         4    ;  uncertainty k = 0.066104
        34         1         2        37     9        0.000000       -0.225271         1    ;  uncertainty k = 0.371621
        34         1         2        37     9      180.000000        0.719911         2    ;  uncertainty k = 0.314572
        34         1         2        37     9        0.000000        0.112053         3    ;  uncertainty k = 0.052184
        34         1         2        37     9      180.000000       -0.321413         4    ;  uncertainty k = 0.066104
        34         1        10        42     9        0.000000        1.333899         1    ;  uncertainty k = 0.470364
        34         1        10        42     9      180.000000       -0.346033         2    ;  uncertainty k = 0.220492
        34         1        10        42     9        0.000000        0.040957         3    ;  uncertainty k = 0.124052
        34         1        10        42     9      180.000000        0.039296         4    ;  uncertainty k = 0.035575
        35         1         2        36     9        0.000000       -0.225271         1    ;  uncertainty k = 0.371621
        35         1         2        36     9      180.000000        0.719911         2    ;  uncertainty k = 0.314572
        35         1         2        36     9        0.000000        0.112053         3    ;  uncertainty k = 0.052184
        35         1         2        36     9      180.000000       -0.321413         4    ;  uncertainty k = 0.066104
        35         1         2        37     9        0.000000       -0.225271         1    ;  uncertainty k = 0.371621
        35         1         2        37     9      180.000000        0.719911         2    ;  uncertainty k = 0.314572
        35         1         2        37     9        0.000000        0.112053         3    ;  uncertainty k = 0.052184
        35         1         2        37     9      180.000000       -0.321413         4    ;  uncertainty k = 0.066104
        35         1        10        42     9        0.000000        1.333899         1    ;  uncertainty k = 0.470364
        35         1        10        42     9      180.000000       -0.346033         2    ;  uncertainty k = 0.220492
        35         1        10        42     9        0.000000        0.040957         3    ;  uncertainty k = 0.124052
        35         1        10        42     9      180.000000        0.039296         4    ;  uncertainty k = 0.035575
        38         3         4        40     9        0.000000       -0.225271         1    ;  uncertainty k = 0.371621
        38         3         4        40     9      180.000000        0.719911         2    ;  uncertainty k = 0.314572
        38         3         4        40     9        0.000000        0.112053         3    ;  uncertainty k = 0.052184
        38         3         4        40     9      180.000000       -0.321413         4    ;  uncertainty k = 0.066104
        38         3         4        41     9        0.000000       -0.225271         1    ;  uncertainty k = 0.371621
        38         3         4        41     9      180.000000        0.719911         2    ;  uncertainty k = 0.314572
        38         3         4        41     9        0.000000        0.112053         3    ;  uncertainty k = 0.052184
        38         3         4        41     9      180.000000       -0.321413         4    ;  uncertainty k = 0.066104
        39         3         4        40     9        0.000000       -0.225271         1    ;  uncertainty k = 0.371621
        39         3         4        40     9      180.000000        0.719911         2    ;  uncertainty k = 0.314572
        39         3         4        40     9        0.000000        0.112053         3    ;  uncertainty k = 0.052184
        39         3         4        40     9      180.000000       -0.321413         4    ;  uncertainty k = 0.066104
        39         3         4        41     9        0.000000       -0.225271         1    ;  uncertainty k = 0.371621
        39         3         4        41     9      180.000000        0.719911         2    ;  uncertainty k = 0.314572
        39         3         4        41     9        0.000000        0.112053         3    ;  uncertainty k = 0.052184
        39         3         4        41     9      180.000000       -0.321413         4    ;  uncertainty k = 0.066104
        40         4        10        42     9        0.000000        1.333899         1    ;  uncertainty k = 0.470364
        40         4        10        42     9      180.000000       -0.346033         2    ;  uncertainty k = 0.220492
        40         4        10        42     9        0.000000        0.040957         3    ;  uncertainty k = 0.124052
        40         4        10        42     9      180.000000        0.039296         4    ;  uncertainty k = 0.035575
        41         4        10        42     9        0.000000        1.333899         1    ;  uncertainty k = 0.470364
        41         4        10        42     9      180.000000       -0.346033         2    ;  uncertainty k = 0.220492
        41         4        10        42     9        0.000000        0.040957         3    ;  uncertainty k = 0.124052
        41         4        10        42     9      180.000000        0.039296         4    ;  uncertainty k = 0.035575
        42        10        28        45     9        0.000000        0.976343         1    ;  uncertainty k = 0.742026
        42        10        28        45     9      180.000000       -1.754256         2    ;  uncertainty k = 0.294903
        42        10        28        45     9        0.000000       -0.016582         3    ;  uncertainty k = 0.098589
        42        10        28        45     9      180.000000        0.124158         4    ;  uncertainty k = 0.074181
        43        20        46        47     9        0.000000       -1.445997         1    ;  uncertainty k = 0.454023
        43        20        46        47     9      180.000000        0.325183         2    ;  uncertainty k = 0.185229
        43        20        46        47     9        0.000000        0.084492         3    ;  uncertainty k = 0.075840
        43        20        46        47     9      180.000000       -0.195992         4    ;  uncertainty k = 0.054830
        43        20        46        51     9        0.000000       -1.445997         1    ;  uncertainty k = 0.454023
        43        20        46        51     9      180.000000        0.325183         2    ;  uncertainty k = 0.185229
        43        20        46        51     9        0.000000        0.084492         3    ;  uncertainty k = 0.075840
        43        20        46        51     9      180.000000       -0.195992         4    ;  uncertainty k = 0.054830
        43        20        46        55     9        0.000000       -0.774880         1    ;  uncertainty k = 0.610880
        43        20        46        55     9      180.000000       -0.454643         2    ;  uncertainty k = 0.436557
        43        20        46        55     9        0.000000        0.436478         3    ;  uncertainty k = 0.125789
        43        20        46        55     9      180.000000       -0.229301         4    ;  uncertainty k = 0.148912
        44        20        46        47     9        0.000000       -1.445997         1    ;  uncertainty k = 0.454023
        44        20        46        47     9      180.000000        0.325183         2    ;  uncertainty k = 0.185229
        44        20        46        47     9        0.000000        0.084492         3    ;  uncertainty k = 0.075840
        44        20        46        47     9      180.000000       -0.195992         4    ;  uncertainty k = 0.054830
        44        20        46        51     9        0.000000       -1.445997         1    ;  uncertainty k = 0.454023
        44        20        46        51     9      180.000000        0.325183         2    ;  uncertainty k = 0.185229
        44        20        46        51     9        0.000000        0.084492         3    ;  uncertainty k = 0.075840
        44        20        46        51     9      180.000000       -0.195992         4    ;  uncertainty k = 0.054830
        44        20        46        55     9        0.000000       -0.774880         1    ;  uncertainty k = 0.610880
        44        20        46        55     9      180.000000       -0.454643         2    ;  uncertainty k = 0.436557
        44        20        46        55     9        0.000000        0.436478         3    ;  uncertainty k = 0.125789
        44        20        46        55     9      180.000000       -0.229301         4    ;  uncertainty k = 0.148912
        47        46        51        52     9        0.000000       -0.935865         1    ;  uncertainty k = 0.313894
        47        46        51        52     9      180.000000       -0.125886         2    ;  uncertainty k = 0.207499
        47        46        51        52     9        0.000000        0.647771         3    ;  uncertainty k = 0.110312
        47        46        51        52     9      180.000000       -0.042189         4    ;  uncertainty k = 0.065400
        47        46        51        53     9        0.000000       -0.935865         1    ;  uncertainty k = 0.313894
        47        46        51        53     9      180.000000       -0.125886         2    ;  uncertainty k = 0.207499
        47        46        51        53     9        0.000000        0.647771         3    ;  uncertainty k = 0.110312
        47        46        51        53     9      180.000000       -0.042189         4    ;  uncertainty k = 0.065400
        47        46        51        54     9        0.000000       -0.935865         1    ;  uncertainty k = 0.313894
        47        46        51        54     9      180.000000       -0.125886         2    ;  uncertainty k = 0.207499
        47        46        51        54     9        0.000000        0.647771         3    ;  uncertainty k = 0.110312
        47        46        51        54     9      180.000000       -0.042189         4    ;  uncertainty k = 0.065400
        47        46        55        56     9        0.000000       16.019687         1    ;  uncertainty k = 0.136712
        47        46        55        56     9      180.000000       -2.271187         2    ;  uncertainty k = 0.420768
        47        46        55        56     9        0.000000        1.007377         3    ;  uncertainty k = 0.156483
        47        46        55        56     9      180.000000        0.501603         4    ;  uncertainty k = 0.101180
        48        47        46        51     9        0.000000       -0.935865         1    ;  uncertainty k = 0.313894
        48        47        46        51     9      180.000000       -0.125886         2    ;  uncertainty k = 0.207499
        48        47        46        51     9        0.000000        0.647771         3    ;  uncertainty k = 0.110312
        48        47        46        51     9      180.000000       -0.042189         4    ;  uncertainty k = 0.065400
        48        47        46        55     9        0.000000       -2.063424         1    ;  uncertainty k = 0.489390
        48        47        46        55     9      180.000000       -0.981975         2    ;  uncertainty k = 0.241648
        48        47        46        55     9        0.000000        0.804133         3    ;  uncertainty k = 0.098055
        48        47        46        55     9      180.000000       -0.198809         4    ;  uncertainty k = 0.036710
        49        47        46        51     9        0.000000       -0.935865         1    ;  uncertainty k = 0.313894
        49        47        46        51     9      180.000000       -0.125886         2    ;  uncertainty k = 0.207499
        49        47        46        51     9        0.000000        0.647771         3    ;  uncertainty k = 0.110312
        49        47        46        51     9      180.000000       -0.042189         4    ;  uncertainty k = 0.065400
        49        47        46        55     9        0.000000       -2.063424         1    ;  uncertainty k = 0.489390
        49        47        46        55     9      180.000000       -0.981975         2    ;  uncertainty k = 0.241648
        49        47        46        55     9        0.000000        0.804133         3    ;  uncertainty k = 0.098055
        49        47        46        55     9      180.000000       -0.198809         4    ;  uncertainty k = 0.036710
        50        47        46        51     9        0.000000       -0.935865         1    ;  uncertainty k = 0.313894
        50        47        46        51     9      180.000000       -0.125886         2    ;  uncertainty k = 0.207499
        50        47        46        51     9        0.000000        0.647771         3    ;  uncertainty k = 0.110312
        50        47        46        51     9      180.000000       -0.042189         4    ;  uncertainty k = 0.065400
        50        47        46        55     9        0.000000       -2.063424         1    ;  uncertainty k = 0.489390
        50        47        46        55     9      180.000000       -0.981975         2    ;  uncertainty k = 0.241648
        50        47        46        55     9        0.000000        0.804133         3    ;  uncertainty k = 0.098055
        50        47        46        55     9      180.000000       -0.198809         4    ;  uncertainty k = 0.036710
        51        46        55        56     9        0.000000       16.019687         1    ;  uncertainty k = 0.136712
        51        46        55        56     9      180.000000       -2.271187         2    ;  uncertainty k = 0.420768
        51        46        55        56     9        0.000000        1.007377         3    ;  uncertainty k = 0.156483
        51        46        55        56     9      180.000000        0.501603         4    ;  uncertainty k = 0.101180
        52        51        46        55     9        0.000000       -2.063424         1    ;  uncertainty k = 0.489390
        52        51        46        55     9      180.000000       -0.981975         2    ;  uncertainty k = 0.241648
        52        51        46        55     9        0.000000        0.804133         3    ;  uncertainty k = 0.098055
        52        51        46        55     9      180.000000       -0.198809         4    ;  uncertainty k = 0.036710
        53        51        46        55     9        0.000000       -2.063424         1    ;  uncertainty k = 0.489390
        53        51        46        55     9      180.000000       -0.981975         2    ;  uncertainty k = 0.241648
        53        51        46        55     9        0.000000        0.804133         3    ;  uncertainty k = 0.098055
        53        51        46        55     9      180.000000       -0.198809         4    ;  uncertainty k = 0.036710
        54        51        46        55     9        0.000000       -2.063424         1    ;  uncertainty k = 0.489390
        54        51        46        55     9      180.000000       -0.981975         2    ;  uncertainty k = 0.241648
        54        51        46        55     9        0.000000        0.804133         3    ;  uncertainty k = 0.098055
        54        51        46        55     9      180.000000       -0.198809         4    ;  uncertainty k = 0.036710

[ dihedrals ] ; impropers
;       ai        aj        ak        al funct           phase               k        pn
         5         8        13        31     4      180.000000        1.109680         2    ;  uncertainty k = 0.271256
         5        13        31         8     4      180.000000        1.109680         2    ;  uncertainty k = 0.271256
         5        31         8        13     4      180.000000        1.109680         2    ;  uncertainty k = 0.271256
         7        18        25        26     4      180.000000       49.186936         2    ;  uncertainty k = 0.023978
         7        25        26        18     4      180.000000       49.186936         2    ;  uncertainty k = 0.023978
         7        26        18        25     4      180.000000       49.186936         2    ;  uncertainty k = 0.023978
         8         5        19        21     4      180.000000       14.318672         2    ;  uncertainty k = 0.052158
         8        19        21         5     4      180.000000       14.318672         2    ;  uncertainty k = 0.052158
         8        21         5        19     4      180.000000       14.318672         2    ;  uncertainty k = 0.052158
         9        24        27        28     4      180.000000       45.765607         2    ;  uncertainty k = 0.102375
         9        27        28        24     4      180.000000       45.765607         2    ;  uncertainty k = 0.102375
         9        28        24        27     4      180.000000       45.765607         2    ;  uncertainty k = 0.102375
        11        12        16        17     4      180.000000        3.679651         2    ;  uncertainty k = 0.528002
        11        16        17        12     4      180.000000        3.679651         2    ;  uncertainty k = 0.528002
        11        17        12        16     4      180.000000        3.679651         2    ;  uncertainty k = 0.528002
        12        11        18        32     4      180.000000        7.515581         2    ;  uncertainty k = 0.359961
        12        18        32        11     4      180.000000        7.515581         2    ;  uncertainty k = 0.359961
        12        32        11        18     4      180.000000        7.515581         2    ;  uncertainty k = 0.359961
        13         5        14        22     4      180.000000       17.110314         2    ;  uncertainty k = 0.053382
        13        14        22         5     4      180.000000       17.110314         2    ;  uncertainty k = 0.053382
        13        22         5        14     4      180.000000       17.110314         2    ;  uncertainty k = 0.053382
        14        13        15        29     4      180.000000        2.090574         2    ;  uncertainty k = 0.191083
        14        15        29        13     4      180.000000        2.090574         2    ;  uncertainty k = 0.191083
        14        29        13        15     4      180.000000        2.090574         2    ;  uncertainty k = 0.191083
        15        14        19        30     4      180.000000        3.395592         2    ;  uncertainty k = 0.158338
        15        19        30        14     4      180.000000        3.395592         2    ;  uncertainty k = 0.158338
        15        30        14        19     4      180.000000        3.395592         2    ;  uncertainty k = 0.158338
        16        11        26        27     4      180.000000       30.627054         2    ;  uncertainty k = 0.066982
        16        26        27        11     4      180.000000       30.627054         2    ;  uncertainty k = 0.066982
        16        27        11        26     4      180.000000       30.627054         2    ;  uncertainty k = 0.066982
        17        11        24        33     4      180.000000       16.728421         2    ;  uncertainty k = 0.076499
        17        24        33        11     4      180.000000       16.728421         2    ;  uncertainty k = 0.076499
        17        33        11        24     4      180.000000       16.728421         2    ;  uncertainty k = 0.076499
        18         7        12        23     4      180.000000       13.040074         2    ;  uncertainty k = 0.264505
        18        12        23         7     4      180.000000       13.040074         2    ;  uncertainty k = 0.264505
        18        23         7        12     4      180.000000       13.040074         2    ;  uncertainty k = 0.264505
        19         8        15        23     4      180.000000       11.882712         2    ;  uncertainty k = 0.189067
        19        15        23         8     4      180.000000       11.882712         2    ;  uncertainty k = 0.189067
        19        23         8        15     4      180.000000       11.882712         2    ;  uncertainty k = 0.189067
        26         7        16        20     4      180.000000        3.838674         2    ;  uncertainty k = 0.859235
        26        16        20         7     4      180.000000        3.838674         2    ;  uncertainty k = 0.859235
        26        20         7        16     4      180.000000        3.838674         2    ;  uncertainty k = 0.859235
        28         9        10        45     4      180.000000        0.693580         2    ;  uncertainty k = 0.786577
        28        10        45         9     4      180.000000        0.693580         2    ;  uncertainty k = 0.786577
        28        45         9        10     4      180.000000        0.693580         2    ;  uncertainty k = 0.786577

[ pairs ]
;       ai        aj funct
         1         3     1
         1         9     1
         1        40     1
         1        41     1
         1        45     1
         2         4     1
         2        28     1
         2        38     1
         2        39     1
         2        42     1
         3        28     1
         3        36     1
         3        37     1
         3        42     1
         4         9     1
         4        34     1
         4        35     1
         4        45     1
         5        15     1
         5        23     1
         5        29     1
         6        10     1
         6        34     1
         6        35     1
         6        40     1
         6        41     1
         7        11     1
         7        19     1
         7        27     1
         7        32     1
         7        43     1
         7        44     1
         7        46     1
         8        14     1
         8        18     1
         8        22     1
         8        30     1
         9        11     1
         9        26     1
         9        33     1
         9        42     1
        10        24     1
        10        27     1
        10        36     1
        10        37     1
        10        38     1
        10        39     1
        11        20     1
        11        23     1
        12        19     1
        12        24     1
        12        25     1
        12        26     1
        12        27     1
        12        33     1
        13        19     1
        13        21     1
        13        30     1
        14        23     1
        14        31     1
        15        18     1
        15        21     1
        15        22     1
        16        18     1
        16        24     1
        16        25     1
        16        28     1
        16        32     1
        16        33     1
        16        43     1
        16        44     1
        16        46     1
        17        18     1
        17        26     1
        17        27     1
        17        28     1
        17        32     1
        18        20     1
        19        29     1
        19        31     1
        20        25     1
        20        27     1
        20        48     1
        20        49     1
        20        50     1
        20        52     1
        20        53     1
        20        54     1
        20        56     1
        21        23     1
        21        31     1
        22        29     1
        22        31     1
        23        25     1
        23        26     1
        23        30     1
        23        32     1
        24        45     1
        26        47     1
        26        51     1
        26        55     1
        27        45     1
        28        34     1
        28        35     1
        28        40     1
        28        41     1
        29        30     1
        34        36     1
        34        37     1
        34        42     1
        35        36     1
        35        37     1
        35        42     1
        38        40     1
        38        41     1
        39        40     1
        39        41     1
        40        42     1
        41        42     1
        42        45     1
        43        47     1
        43        51     1
        43        55     1
        44        47     1
        44        51     1
        44        55     1
        47        52     1
        47        53     1
        47        54     1
        47        56     1
        48        51     1
        48        55     1
        49        51     1
        49        55     1
        50        51     1
        50        55     1
        51        56     1
        52        55     1
        53        55     1
        54        55     1
