; ITP file created by ByteFF-joint-25, 2026-02-17 09:22:14.802622

[ atomtypes ]
;name           bonded.type        at.num        mass        charge   ptype           sigma         epsilon
 c0bf                                   6      0.0000       0.00000       A     3.39787e-01     4.51000e-01    ;  uncertainty sigma = 0.000007, epsilon = 0.000697
 c1bf                                   6      0.0000       0.00000       A     3.39778e-01     4.50893e-01    ;  uncertainty sigma = 0.000003, epsilon = 0.000829
 c2bf                                   6      0.0000       0.00000       A     3.39778e-01     4.50893e-01    ;  uncertainty sigma = 0.000003, epsilon = 0.000829
 c3bf                                   6      0.0000       0.00000       A     3.39787e-01     4.51000e-01    ;  uncertainty sigma = 0.000007, epsilon = 0.000697
 c4bf                                   6      0.0000       0.00000       A     3.31526e-01     4.13477e-01    ;  uncertainty sigma = 0.000006, epsilon = 0.000754
 o5bf                                   8      0.0000       0.00000       A     3.15613e-01     3.03556e-01    ;  uncertainty sigma = 0.000019, epsilon = 0.001085
 c6bf                                   6      0.0000       0.00000       A     3.31536e-01     4.13275e-01    ;  uncertainty sigma = 0.000021, epsilon = 0.001552
 c7bf                                   6      0.0000       0.00000       A     3.31525e-01     4.12996e-01    ;  uncertainty sigma = 0.000006, epsilon = 0.000558
 c8bf                                   6      0.0000       0.00000       A     3.31531e-01     4.13812e-01    ;  uncertainty sigma = 0.000011, epsilon = 0.000825
 c9bf                                   6      0.0000       0.00000       A     3.39779e-01     4.51067e-01    ;  uncertainty sigma = 0.000013, epsilon = 0.000925
 c10bf                                  6      0.0000       0.00000       A     3.31543e-01     4.13548e-01    ;  uncertainty sigma = 0.000020, epsilon = 0.001073
 c11bf                                  6      0.0000       0.00000       A     3.31525e-01     4.12978e-01    ;  uncertainty sigma = 0.000012, epsilon = 0.001323
 c12bf                                  6      0.0000       0.00000       A     3.31521e-01     4.13309e-01    ;  uncertainty sigma = 0.000005, epsilon = 0.000623
 c13bf                                  6      0.0000       0.00000       A     3.31522e-01     4.13402e-01    ;  uncertainty sigma = 0.000004, epsilon = 0.000568
 c14bf                                  6      0.0000       0.00000       A     3.31532e-01     4.13487e-01    ;  uncertainty sigma = 0.000005, epsilon = 0.000789
 c15bf                                  6      0.0000       0.00000       A     3.31508e-01     4.13812e-01    ;  uncertainty sigma = 0.000015, epsilon = 0.001435
 c16bf                                  6      0.0000       0.00000       A     3.31538e-01     4.13552e-01    ;  uncertainty sigma = 0.000008, epsilon = 0.001410
 c17bf                                  6      0.0000       0.00000       A     3.31535e-01     4.13459e-01    ;  uncertainty sigma = 0.000022, epsilon = 0.001521
 c18bf                                  6      0.0000       0.00000       A     3.31544e-01     4.13185e-01    ;  uncertainty sigma = 0.000012, epsilon = 0.000998
 f19bf                                  9      0.0000       0.00000       A     3.03401e-01     3.48403e-01    ;  uncertainty sigma = 0.000015, epsilon = 0.000906
 f20bf                                  9      0.0000       0.00000       A     3.03426e-01     3.47978e-01    ;  uncertainty sigma = 0.000008, epsilon = 0.000768
 o21bf                                  8      0.0000       0.00000       A     3.15670e-01     3.03521e-01    ;  uncertainty sigma = 0.000054, epsilon = 0.003661
 n22bf                                  7      0.0000       0.00000       A     3.38435e-01     3.93631e-01    ;  uncertainty sigma = 0.000019, epsilon = 0.001026
 o23bf                                  8      0.0000       0.00000       A     3.04843e-01     6.10930e-01    ;  uncertainty sigma = 0.000016, epsilon = 0.000788
 n24bf                                  7      0.0000       0.00000       A     3.18166e-01     6.86029e-01    ;  uncertainty sigma = 0.000039, epsilon = 0.003298
 n25bf                                  7      0.0000       0.00000       A     3.38447e-01     3.93253e-01    ;  uncertainty sigma = 0.000043, epsilon = 0.001867
 n26bf                                  7      0.0000       0.00000       A     3.27898e-01     6.46446e-01    ;  uncertainty sigma = 0.000031, epsilon = 0.005668
 h27bf                                  1      0.0000       0.00000       A     2.62564e-01     6.70554e-02    ;  uncertainty sigma = 0.000012, epsilon = 0.000465
 h28bf                                  1      0.0000       0.00000       A     2.62548e-01     6.71486e-02    ;  uncertainty sigma = 0.000008, epsilon = 0.000492
 h29bf                                  1      0.0000       0.00000       A     2.62562e-01     6.73680e-02    ;  uncertainty sigma = 0.000008, epsilon = 0.000365
 h30bf                                  1      0.0000       0.00000       A     2.62521e-01     6.67593e-02    ;  uncertainty sigma = 0.000018, epsilon = 0.000881
 h31bf                                  1      0.0000       0.00000       A     2.53663e-01     6.71784e-02    ;  uncertainty sigma = 0.000041, epsilon = 0.000925
 h32bf                                  1      0.0000       0.00000       A     2.60021e-01     8.67664e-02    ;  uncertainty sigma = 0.000009, epsilon = 0.000445
 h33bf                                  1      0.0000       0.00000       A     2.60021e-01     8.67664e-02    ;  uncertainty sigma = 0.000009, epsilon = 0.000445
 h34bf                                  1      0.0000       0.00000       A     2.42188e-01     8.67182e-02    ;  uncertainty sigma = 0.000018, epsilon = 0.000739
 h35bf                                  1      0.0000       0.00000       A     2.42188e-01     8.67182e-02    ;  uncertainty sigma = 0.000018, epsilon = 0.000739
 h36bf                                  1      0.0000       0.00000       A     2.42188e-01     8.67182e-02    ;  uncertainty sigma = 0.000018, epsilon = 0.000739
 h37bf                                  1      0.0000       0.00000       A     2.42188e-01     8.67182e-02    ;  uncertainty sigma = 0.000018, epsilon = 0.000739
 h38bf                                  1      0.0000       0.00000       A     2.60021e-01     8.67664e-02    ;  uncertainty sigma = 0.000009, epsilon = 0.000445
 h39bf                                  1      0.0000       0.00000       A     2.60021e-01     8.67664e-02    ;  uncertainty sigma = 0.000009, epsilon = 0.000445
 h40bf                                  1      0.0000       0.00000       A     2.42212e-01     8.65674e-02    ;  uncertainty sigma = 0.000016, epsilon = 0.000625
 h41bf                                  1      0.0000       0.00000       A     2.42127e-01     8.64039e-02    ;  uncertainty sigma = 0.000038, epsilon = 0.001185
 h42bf                                  1      0.0000       0.00000       A     1.10703e-01     4.14050e-02    ;  uncertainty sigma = 0.000035, epsilon = 0.000993
 c43bf                                  6      0.0000       0.00000       A     3.39764e-01     4.50266e-01    ;  uncertainty sigma = 0.000005, epsilon = 0.000403
 c44bf                                  6      0.0000       0.00000       A     3.39781e-01     4.50820e-01    ;  uncertainty sigma = 0.000007, epsilon = 0.000479
 c45bf                                  6      0.0000       0.00000       A     3.39740e-01     4.50491e-01    ;  uncertainty sigma = 0.000012, epsilon = 0.002081
 c46bf                                  6      0.0000       0.00000       A     3.39781e-01     4.50820e-01    ;  uncertainty sigma = 0.000007, epsilon = 0.000479
 c47bf                                  6      0.0000       0.00000       A     3.39764e-01     4.50266e-01    ;  uncertainty sigma = 0.000005, epsilon = 0.000403
 n48bf                                  7      0.0000       0.00000       A     3.36559e-01     3.58897e-01    ;  uncertainty sigma = 0.000021, epsilon = 0.001746
 h49bf                                  1      0.0000       0.00000       A     2.42193e-01     8.69222e-02    ;  uncertainty sigma = 0.000025, epsilon = 0.000652
 h50bf                                  1      0.0000       0.00000       A     2.42193e-01     8.69222e-02    ;  uncertainty sigma = 0.000025, epsilon = 0.000652
 h51bf                                  1      0.0000       0.00000       A     2.60039e-01     8.68322e-02    ;  uncertainty sigma = 0.000010, epsilon = 0.000598
 h52bf                                  1      0.0000       0.00000       A     2.60039e-01     8.68322e-02    ;  uncertainty sigma = 0.000010, epsilon = 0.000598
 h53bf                                  1      0.0000       0.00000       A     2.60039e-01     8.68322e-02    ;  uncertainty sigma = 0.000010, epsilon = 0.000598
 h54bf                                  1      0.0000       0.00000       A     2.60039e-01     8.68322e-02    ;  uncertainty sigma = 0.000010, epsilon = 0.000598
 h55bf                                  1      0.0000       0.00000       A     2.42193e-01     8.69222e-02    ;  uncertainty sigma = 0.000025, epsilon = 0.000652
 h56bf                                  1      0.0000       0.00000       A     2.42193e-01     8.69222e-02    ;  uncertainty sigma = 0.000025, epsilon = 0.000652
 s57bf                                 16      0.0000       0.00000       A     4.05838e-01     2.57158e-01    ;  uncertainty sigma = 0.000017, epsilon = 0.001997
 o58bf                                  8      0.0000       0.00000       A     3.04820e-01     6.11990e-01    ;  uncertainty sigma = 0.000009, epsilon = 0.000742
 o59bf                                  8      0.0000       0.00000       A     3.04820e-01     6.11990e-01    ;  uncertainty sigma = 0.000009, epsilon = 0.000742
 c60bf                                  6      0.0000       0.00000       A     3.39767e-01     4.50874e-01    ;  uncertainty sigma = 0.000014, epsilon = 0.000800
 h61bf                                  1      0.0000       0.00000       A     2.42191e-01     8.65669e-02    ;  uncertainty sigma = 0.000021, epsilon = 0.000517
 h62bf                                  1      0.0000       0.00000       A     2.42191e-01     8.65669e-02    ;  uncertainty sigma = 0.000021, epsilon = 0.000517
 h63bf                                  1      0.0000       0.00000       A     2.42191e-01     8.65669e-02    ;  uncertainty sigma = 0.000021, epsilon = 0.000517

[ moleculetype ]
;name             nrexcl
 MOL                   3

[ atoms ]
;       nr            type      resi   res      atom      cgnr      charge          mass ; qtot
         1            c0bf         1   UNL        c0         1    -0.12711       12.0110 ; qtot   -0.127
         2            c1bf         1   UNL        c1         2     0.13209       12.0110 ; qtot    0.005
         3            c2bf         1   UNL        c2         3     0.13209       12.0110 ; qtot    0.137
         4            c3bf         1   UNL        c3         4    -0.12711       12.0110 ; qtot    0.010
         5            c4bf         1   UNL        c4         5    -0.19164       12.0110 ; qtot   -0.182
         6            o5bf         1   UNL        o5         6    -0.41527       15.9990 ; qtot   -0.597
         7            c6bf         1   UNL        c6         7     0.69443       12.0110 ; qtot    0.097
         8            c7bf         1   UNL        c7         8     0.14567       12.0110 ; qtot    0.243
         9            c8bf         1   UNL        c8         9     0.92897       12.0110 ; qtot    1.172
        10            c9bf         1   UNL        c9        10     0.24784       12.0110 ; qtot    1.420
        11           c10bf         1   UNL       c10        11    -0.40708       12.0110 ; qtot    1.013
        12           c11bf         1   UNL       c11        12    -0.04553       12.0110 ; qtot    0.967
        13           c12bf         1   UNL       c12        13     0.14413       12.0110 ; qtot    1.111
        14           c13bf         1   UNL       c13        14    -0.16248       12.0110 ; qtot    0.949
        15           c14bf         1   UNL       c14        15    -0.09069       12.0110 ; qtot    0.858
        16           c15bf         1   UNL       c15        16     0.64568       12.0110 ; qtot    1.504
        17           c16bf         1   UNL       c16        17     0.52039       12.0110 ; qtot    2.024
        18           c17bf         1   UNL       c17        18     0.01123       12.0110 ; qtot    2.036
        19           c18bf         1   UNL       c18        19     0.04795       12.0110 ; qtot    2.084
        20           f19bf         1   UNL       f19        20    -0.12685       18.9980 ; qtot    1.957
        21           f20bf         1   UNL       f20        21    -0.13805       18.9980 ; qtot    1.819
        22           o21bf         1   UNL       o21        22    -0.21006       15.9990 ; qtot    1.609
        23           n22bf         1   UNL       n22        23    -0.77029       14.0070 ; qtot    0.838
        24           o23bf         1   UNL       o23        24    -0.59047       15.9990 ; qtot    0.248
        25           n24bf         1   UNL       n24        25    -0.43948       14.0070 ; qtot   -0.192
        26           n25bf         1   UNL       n25        26    -0.83253       14.0070 ; qtot   -1.024
        27           n26bf         1   UNL       n26        27    -0.86333       14.0070 ; qtot   -1.888
        28           h27bf         1   UNL       h27        28     0.16075        1.0080 ; qtot   -1.727
        29           h28bf         1   UNL       h28        29     0.15721        1.0080 ; qtot   -1.570
        30           h29bf         1   UNL       h29        30     0.17297        1.0080 ; qtot   -1.397
        31           h30bf         1   UNL       h30        31     0.16432        1.0080 ; qtot   -1.232
        32           h31bf         1   UNL       h31        32     0.02974        1.0080 ; qtot   -1.203
        33           h32bf         1   UNL       h32        33     0.05892        1.0080 ; qtot   -1.144
        34           h33bf         1   UNL       h33        34     0.05892        1.0080 ; qtot   -1.085
        35           h34bf         1   UNL       h34        35     0.04655        1.0080 ; qtot   -1.038
        36           h35bf         1   UNL       h35        36     0.04655        1.0080 ; qtot   -0.992
        37           h36bf         1   UNL       h36        37     0.04655        1.0080 ; qtot   -0.945
        38           h37bf         1   UNL       h37        38     0.04655        1.0080 ; qtot   -0.898
        39           h38bf         1   UNL       h38        39     0.05892        1.0080 ; qtot   -0.840
        40           h39bf         1   UNL       h39        40     0.05892        1.0080 ; qtot   -0.781
        41           h40bf         1   UNL       h40        41     0.07162        1.0080 ; qtot   -0.709
        42           h41bf         1   UNL       h41        42     0.08476        1.0080 ; qtot   -0.624
        43           h42bf         1   UNL       h42        43     0.44845        1.0080 ; qtot   -0.176
        44           c43bf         1   UNL       c43        44     0.20174       12.0110 ; qtot    0.026
        45           c44bf         1   UNL       c44        45    -0.09927       12.0110 ; qtot   -0.073
        46           c45bf         1   UNL       c45        46     0.11685       12.0110 ; qtot    0.044
        47           c46bf         1   UNL       c46        47    -0.09927       12.0110 ; qtot   -0.056
        48           c47bf         1   UNL       c47        48     0.20174       12.0110 ; qtot    0.146
        49           n48bf         1   UNL       n48        49    -0.72463       14.0070 ; qtot   -0.579
        50           h49bf         1   UNL       h49        50     0.06326        1.0080 ; qtot   -0.515
        51           h50bf         1   UNL       h50        51     0.06326        1.0080 ; qtot   -0.452
        52           h51bf         1   UNL       h51        52     0.06698        1.0080 ; qtot   -0.385
        53           h52bf         1   UNL       h52        53     0.06698        1.0080 ; qtot   -0.318
        54           h53bf         1   UNL       h53        54     0.06698        1.0080 ; qtot   -0.251
        55           h54bf         1   UNL       h54        55     0.06698        1.0080 ; qtot   -0.184
        56           h55bf         1   UNL       h55        56     0.06326        1.0080 ; qtot   -0.121
        57           h56bf         1   UNL       h56        57     0.06326        1.0080 ; qtot   -0.058
        58           s57bf         1   UNL       s57        58     1.15382       32.0670 ; qtot    1.096
        59           o58bf         1   UNL       o58        59    -0.59684       15.9990 ; qtot    0.499
        60           o59bf         1   UNL       o59        60    -0.59684       15.9990 ; qtot   -0.098
        61           c60bf         1   UNL       c60        61    -0.20940       12.0110 ; qtot   -0.307
        62           h61bf         1   UNL       h61        62     0.10232        1.0080 ; qtot   -0.205
        63           h62bf         1   UNL       h62        63     0.10232        1.0080 ; qtot   -0.102
        64           h63bf         1   UNL       h63        64     0.10230        1.0080 ; qtot    0.000

[ bonds ]
;       ai        aj funct               r               k
         1         2     1        0.153564   209800.351904    ;  uncertainty r = 0.000030, k = 4.398850
         1        10     1        0.153800   204926.313672    ;  uncertainty r = 0.000079, k = 2.875806
         1        33     1        0.109644   310935.400293    ;  uncertainty r = 0.000023, k = 1.135247
         1        34     1        0.109644   310935.400293    ;  uncertainty r = 0.000023, k = 1.135247
         2         6     1        0.142789   254488.480176    ;  uncertainty r = 0.000039, k = 2.801925
         2        35     1        0.109818   309244.843652    ;  uncertainty r = 0.000020, k = 0.854841
         2        36     1        0.109818   309244.843652    ;  uncertainty r = 0.000020, k = 0.854841
         3         4     1        0.153564   209800.351904    ;  uncertainty r = 0.000030, k = 4.398850
         3         6     1        0.142789   254488.480176    ;  uncertainty r = 0.000039, k = 2.801925
         3        37     1        0.109818   309244.843652    ;  uncertainty r = 0.000020, k = 0.854841
         3        38     1        0.109818   309244.843652    ;  uncertainty r = 0.000020, k = 0.854841
         4        10     1        0.153800   204926.313672    ;  uncertainty r = 0.000079, k = 2.875806
         4        39     1        0.109644   310935.400293    ;  uncertainty r = 0.000023, k = 1.135247
         4        40     1        0.109644   310935.400293    ;  uncertainty r = 0.000023, k = 1.135247
         5         8     1        0.138747   361176.981592    ;  uncertainty r = 0.000032, k = 2.643588
         5        13     1        0.139007   367691.396045    ;  uncertainty r = 0.000031, k = 2.749259
         5        30     1        0.108780   338576.282275    ;  uncertainty r = 0.000013, k = 1.210229
         7        18     1        0.146644   253585.104932    ;  uncertainty r = 0.000177, k = 21.614319
         7        24     1        0.123436   650093.903125    ;  uncertainty r = 0.000120, k = 16.629683
         7        25     1        0.140681   266632.627002    ;  uncertainty r = 0.000262, k = 33.958785
         8        19     1        0.139121   358077.006348    ;  uncertainty r = 0.000040, k = 4.650811
         8        20     1        0.134764   340072.935645    ;  uncertainty r = 0.000045, k = 2.589505
         9        23     1        0.136744   529556.703906    ;  uncertainty r = 0.000159, k = 16.391426
         9        26     1        0.135791   614920.110156    ;  uncertainty r = 0.000087, k = 22.284855
         9        27     1        0.138315   586776.887695    ;  uncertainty r = 0.000152, k = 23.403475
        10        27     1        0.145807   240009.066846    ;  uncertainty r = 0.000132, k = 9.981083
        10        41     1        0.109351   304415.163379    ;  uncertainty r = 0.000015, k = 2.578070
        11        12     1        0.142610   280117.318848    ;  uncertainty r = 0.000047, k = 20.544232
        11        16     1        0.142437   411600.872314    ;  uncertainty r = 0.000136, k = 26.543020
        11        17     1        0.140414   404103.968652    ;  uncertainty r = 0.000219, k = 20.892412
        12        18     1        0.135332   409473.707715    ;  uncertainty r = 0.000063, k = 14.821334
        12        31     1        0.108669   334875.418848    ;  uncertainty r = 0.000039, k = 1.851931
        13        14     1        0.138905   362175.303809    ;  uncertainty r = 0.000027, k = 1.862514
        13        21     1        0.135460   342148.081152    ;  uncertainty r = 0.000038, k = 2.796473
        14        15     1        0.139206   376188.256299    ;  uncertainty r = 0.000034, k = 0.837546
        14        28     1        0.108734   335618.242285    ;  uncertainty r = 0.000017, k = 1.062658
        15        19     1        0.139238   351219.092236    ;  uncertainty r = 0.000057, k = 2.910415
        15        29     1        0.108702   335466.041113    ;  uncertainty r = 0.000027, k = 2.133558
        16        25     1        0.138375   260160.067871    ;  uncertainty r = 0.000246, k = 27.231247
        16        26     1        0.134323   437469.785352    ;  uncertainty r = 0.000185, k = 12.341439
        17        23     1        0.133321   406897.549658    ;  uncertainty r = 0.000085, k = 9.619513
        17        32     1        0.108933   328869.499316    ;  uncertainty r = 0.000036, k = 1.471501
        18        22     1        0.136079   317349.964648    ;  uncertainty r = 0.000085, k = 7.476305
        19        22     1        0.138171   312494.772803    ;  uncertainty r = 0.000105, k = 5.954181
        25        46     1        0.146797   232767.942871    ;  uncertainty r = 0.000189, k = 26.168529
        27        43     1        0.102176   435698.173926    ;  uncertainty r = 0.000065, k = 4.933167
        42        46     1        0.109011   306155.645068    ;  uncertainty r = 0.000043, k = 4.081979
        44        45     1        0.153133   209355.303931    ;  uncertainty r = 0.000061, k = 3.382390
        44        49     1        0.147237   222887.839551    ;  uncertainty r = 0.000094, k = 11.641989
        44        50     1        0.109562   306450.139014    ;  uncertainty r = 0.000041, k = 1.421476
        44        51     1        0.109562   306450.139014    ;  uncertainty r = 0.000041, k = 1.421476
        45        46     1        0.153459   199850.008765    ;  uncertainty r = 0.000105, k = 3.015913
        45        52     1        0.109466   311540.961768    ;  uncertainty r = 0.000036, k = 0.858260
        45        53     1        0.109466   311540.961768    ;  uncertainty r = 0.000036, k = 0.858260
        46        47     1        0.153459   199850.008765    ;  uncertainty r = 0.000105, k = 3.015913
        47        48     1        0.153133   209355.303931    ;  uncertainty r = 0.000061, k = 3.382390
        47        54     1        0.109466   311540.961768    ;  uncertainty r = 0.000036, k = 0.858260
        47        55     1        0.109466   311540.961768    ;  uncertainty r = 0.000036, k = 0.858260
        48        49     1        0.147237   222887.839551    ;  uncertainty r = 0.000094, k = 11.641989
        48        56     1        0.109562   306450.139014    ;  uncertainty r = 0.000041, k = 1.421476
        48        57     1        0.109562   306450.139014    ;  uncertainty r = 0.000041, k = 1.421476
        49        58     1        0.168467   118410.341064    ;  uncertainty r = 0.000226, k = 16.230563
        58        59     1        0.147068   528388.330078    ;  uncertainty r = 0.000060, k = 6.533035
        58        60     1        0.147068   528388.330078    ;  uncertainty r = 0.000060, k = 6.533035
        58        61     1        0.180926   182105.126953    ;  uncertainty r = 0.000046, k = 8.545072
        61        62     1        0.109266   320776.789355    ;  uncertainty r = 0.000023, k = 1.693533
        61        63     1        0.109266   320776.789355    ;  uncertainty r = 0.000023, k = 1.693533
        61        64     1        0.109266   320776.789355    ;  uncertainty r = 0.000023, k = 1.693533

[ angles ]
;       ai        aj        ak funct           theta             cth
         1         2         6     1      111.446632      714.965579    ;  uncertainty theta = 0.001347, k = 0.063500
         1         2        35     1      109.920456      408.541080    ;  uncertainty theta = 0.002019, k = 0.035643
         1         2        36     1      109.920456      408.541080    ;  uncertainty theta = 0.002019, k = 0.035643
         1        10         4     1      108.571205      585.454959    ;  uncertainty theta = 0.002684, k = 0.080005
         1        10        27     1      110.695145      629.201113    ;  uncertainty theta = 0.003363, k = 0.060631
         1        10        41     1      108.629013      407.998416    ;  uncertainty theta = 0.002420, k = 0.060827
         2         1        10     1      109.739174      566.930979    ;  uncertainty theta = 0.002556, k = 0.101379
         2         1        33     1      108.721451      397.694416    ;  uncertainty theta = 0.000995, k = 0.058468
         2         1        34     1      108.721451      397.694416    ;  uncertainty theta = 0.000995, k = 0.058468
         2         6         3     1      109.309448      562.168308    ;  uncertainty theta = 0.002274, k = 0.150711
         3         4        10     1      109.739174      566.930979    ;  uncertainty theta = 0.002556, k = 0.101379
         3         4        39     1      108.721451      397.694416    ;  uncertainty theta = 0.000995, k = 0.058468
         3         4        40     1      108.721451      397.694416    ;  uncertainty theta = 0.000995, k = 0.058468
         4         3         6     1      111.446632      714.965579    ;  uncertainty theta = 0.001347, k = 0.063500
         4         3        37     1      109.920456      408.541080    ;  uncertainty theta = 0.002019, k = 0.035643
         4         3        38     1      109.920456      408.541080    ;  uncertainty theta = 0.002019, k = 0.035643
         4        10        27     1      110.695145      629.201113    ;  uncertainty theta = 0.003363, k = 0.060631
         4        10        41     1      108.629013      407.998416    ;  uncertainty theta = 0.002420, k = 0.060827
         5         8        19     1      123.443153      352.584549    ;  uncertainty theta = 0.005265, k = 0.202869
         5         8        20     1      118.916702      524.557093    ;  uncertainty theta = 0.000766, k = 0.063533
         5        13        14     1      122.203163      367.950291    ;  uncertainty theta = 0.004353, k = 0.037976
         5        13        21     1      118.416054      506.109309    ;  uncertainty theta = 0.002115, k = 0.044491
         6         2        35     1      107.077614      463.773059    ;  uncertainty theta = 0.001757, k = 0.022995
         6         2        36     1      107.077614      463.773059    ;  uncertainty theta = 0.001757, k = 0.022995
         6         3        37     1      107.077614      463.773059    ;  uncertainty theta = 0.001757, k = 0.022995
         6         3        38     1      107.077614      463.773059    ;  uncertainty theta = 0.001757, k = 0.022995
         7        18        12     1      124.967850      431.662251    ;  uncertainty theta = 0.005954, k = 0.246382
         7        18        22     1      108.676865      390.811431    ;  uncertainty theta = 0.010844, k = 0.274127
         7        25        16     1      122.722496      492.488836    ;  uncertainty theta = 0.006497, k = 0.133220
         7        25        46     1      112.756004      417.401946    ;  uncertainty theta = 0.005042, k = 0.236823
         8         5        13     1      117.873718      466.681991    ;  uncertainty theta = 0.002635, k = 0.148809
         8         5        30     1      120.885605      275.043414    ;  uncertainty theta = 0.003104, k = 0.026017
         8        19        15     1      120.438950      350.580333    ;  uncertainty theta = 0.005824, k = 0.197361
         8        19        22     1      117.620239      371.383979    ;  uncertainty theta = 0.004332, k = 0.215296
         9        23        17     1      116.393494      408.448508    ;  uncertainty theta = 0.008628, k = 0.279736
         9        26        16     1      117.707764      446.381426    ;  uncertainty theta = 0.007301, k = 0.083676
         9        27        10     1      115.771378      413.925643    ;  uncertainty theta = 0.005298, k = 0.144346
         9        27        43     1      116.879532      443.907071    ;  uncertainty theta = 0.004122, k = 0.154446
        10         1        33     1      108.113968      386.815958    ;  uncertainty theta = 0.001236, k = 0.022845
        10         1        34     1      108.113968      386.815958    ;  uncertainty theta = 0.001236, k = 0.022845
        10         4        39     1      108.113968      386.815958    ;  uncertainty theta = 0.001236, k = 0.022845
        10         4        40     1      108.113968      386.815958    ;  uncertainty theta = 0.001236, k = 0.022845
        10        27        43     1      112.314072      333.078060    ;  uncertainty theta = 0.005154, k = 0.136963
        11        12        18     1      121.064270      508.819658    ;  uncertainty theta = 0.007367, k = 0.208759
        11        12        31     1      118.349953      256.410279    ;  uncertainty theta = 0.002437, k = 0.255702
        11        16        25     1      118.577255      468.689048    ;  uncertainty theta = 0.009296, k = 0.270281
        11        16        26     1      122.631348      544.095887    ;  uncertainty theta = 0.005582, k = 0.167385
        11        17        23     1      122.531471      741.123432    ;  uncertainty theta = 0.001409, k = 0.182135
        11        17        32     1      120.247070      260.223496    ;  uncertainty theta = 0.004091, k = 0.137228
        12        11        16     1      120.298203      440.367724    ;  uncertainty theta = 0.011960, k = 0.247909
        12        11        17     1      123.464394      405.184227    ;  uncertainty theta = 0.005925, k = 0.174986
        12        18        22     1      122.521530      425.929106    ;  uncertainty theta = 0.002993, k = 0.085192
        13         5        30     1      122.167213      276.182816    ;  uncertainty theta = 0.001979, k = 0.047518
        13        14        15     1      117.679276      490.002065    ;  uncertainty theta = 0.001416, k = 0.046653
        13        14        28     1      120.978439      282.379204    ;  uncertainty theta = 0.000982, k = 0.023307
        14        13        21     1      119.340736      515.983168    ;  uncertainty theta = 0.001915, k = 0.014125
        14        15        19     1      121.214966      509.817585    ;  uncertainty theta = 0.002734, k = 0.081000
        14        15        29     1      120.371567      284.922126    ;  uncertainty theta = 0.002332, k = 0.030236
        15        14        28     1      121.389076      278.892591    ;  uncertainty theta = 0.001182, k = 0.028037
        15        19        22     1      121.284691      424.556806    ;  uncertainty theta = 0.004642, k = 0.115345
        16        11        17     1      117.550270      437.081098    ;  uncertainty theta = 0.005329, k = 0.173902
        16        25        46     1      113.963181      412.463037    ;  uncertainty theta = 0.007671, k = 0.177186
        18         7        24     1      123.266212      472.363232    ;  uncertainty theta = 0.003864, k = 0.162737
        18         7        25     1      115.960190      317.445837    ;  uncertainty theta = 0.014032, k = 0.648122
        18        12        31     1      120.663391      276.394104    ;  uncertainty theta = 0.005410, k = 0.196201
        18        22        19     1      112.323990      457.802834    ;  uncertainty theta = 0.005441, k = 0.309270
        19         8        20     1      117.525742      487.064690    ;  uncertainty theta = 0.002079, k = 0.147581
        19        15        29     1      118.610428      275.458648    ;  uncertainty theta = 0.003647, k = 0.058785
        23         9        26     1      128.689178      742.090906    ;  uncertainty theta = 0.002142, k = 0.099512
        23         9        27     1      120.624695      827.177745    ;  uncertainty theta = 0.008938, k = 0.131169
        23        17        32     1      117.400436      318.145043    ;  uncertainty theta = 0.003385, k = 0.164124
        24         7        25     1      121.552322      683.602753    ;  uncertainty theta = 0.001451, k = 0.116348
        25        16        26     1      116.950439      596.810546    ;  uncertainty theta = 0.009969, k = 0.139009
        25        46        42     1      101.554779      443.551850    ;  uncertainty theta = 0.003927, k = 0.099466
        25        46        45     1      109.434059      606.909770    ;  uncertainty theta = 0.005449, k = 0.095684
        25        46        47     1      109.434059      606.909770    ;  uncertainty theta = 0.005449, k = 0.095684
        26         9        27     1      121.293312      912.179801    ;  uncertainty theta = 0.007662, k = 0.092626
        27        10        41     1      103.516525      447.268585    ;  uncertainty theta = 0.003472, k = 0.117225
        33         1        34     1      105.438782      311.403087    ;  uncertainty theta = 0.002031, k = 0.016795
        35         2        36     1      106.555069      320.243013    ;  uncertainty theta = 0.001313, k = 0.032691
        37         3        38     1      106.555069      320.243013    ;  uncertainty theta = 0.001313, k = 0.032691
        39         4        40     1      105.438782      311.403087    ;  uncertainty theta = 0.002031, k = 0.016795
        42        46        45     1      109.090897      415.770348    ;  uncertainty theta = 0.002825, k = 0.119265
        42        46        47     1      109.090897      415.770348    ;  uncertainty theta = 0.002825, k = 0.119265
        44        45        46     1      109.666954      547.573211    ;  uncertainty theta = 0.004880, k = 0.118072
        44        45        52     1      107.973587      398.121492    ;  uncertainty theta = 0.001193, k = 0.054595
        44        45        53     1      107.973587      398.121492    ;  uncertainty theta = 0.001193, k = 0.054595
        44        49        48     1      107.906876      474.209405    ;  uncertainty theta = 0.004531, k = 0.136804
        44        49        58     1      107.487137      430.990401    ;  uncertainty theta = 0.002951, k = 0.073811
        45        44        49     1      109.279068      671.877517    ;  uncertainty theta = 0.002263, k = 0.166736
        45        44        50     1      109.355148      411.697594    ;  uncertainty theta = 0.000716, k = 0.046604
        45        44        51     1      109.355148      411.697594    ;  uncertainty theta = 0.000716, k = 0.046604
        45        46        47     1      108.913414      592.967977    ;  uncertainty theta = 0.002487, k = 0.179215
        46        45        52     1      108.021996      379.171936    ;  uncertainty theta = 0.001856, k = 0.051392
        46        45        53     1      108.021996      379.171936    ;  uncertainty theta = 0.001856, k = 0.051392
        46        47        48     1      109.666954      547.573211    ;  uncertainty theta = 0.004880, k = 0.118072
        46        47        54     1      108.021996      379.171967    ;  uncertainty theta = 0.001856, k = 0.051392
        46        47        55     1      108.021996      379.171967    ;  uncertainty theta = 0.001856, k = 0.051392
        47        48        49     1      109.279068      671.877453    ;  uncertainty theta = 0.002263, k = 0.166736
        47        48        56     1      109.355148      411.697594    ;  uncertainty theta = 0.000716, k = 0.046604
        47        48        57     1      109.355148      411.697594    ;  uncertainty theta = 0.000716, k = 0.046604
        48        47        54     1      107.973587      398.121524    ;  uncertainty theta = 0.001193, k = 0.054595
        48        47        55     1      107.973587      398.121524    ;  uncertainty theta = 0.001193, k = 0.054595
        48        49        58     1      107.487137      430.990401    ;  uncertainty theta = 0.002951, k = 0.073811
        49        44        50     1      107.558701      442.070953    ;  uncertainty theta = 0.001254, k = 0.067808
        49        44        51     1      107.558701      442.070953    ;  uncertainty theta = 0.001254, k = 0.067808
        49        48        56     1      107.558701      442.070953    ;  uncertainty theta = 0.001254, k = 0.067808
        49        48        57     1      107.558701      442.070953    ;  uncertainty theta = 0.001254, k = 0.067808
        49        58        59     1      113.053734      760.640168    ;  uncertainty theta = 0.002094, k = 0.030180
        49        58        60     1      113.053734      760.640168    ;  uncertainty theta = 0.002094, k = 0.030180
        49        58        61     1      104.604210      639.429172    ;  uncertainty theta = 0.001170, k = 0.113123
        50        44        51     1      105.647415      321.493661    ;  uncertainty theta = 0.000943, k = 0.055637
        52        45        53     1      105.817360      317.767094    ;  uncertainty theta = 0.002059, k = 0.062056
        54        47        55     1      105.817360      317.767094    ;  uncertainty theta = 0.002059, k = 0.062056
        56        48        57     1      105.647415      321.493661    ;  uncertainty theta = 0.000943, k = 0.055637
        58        61        62     1      107.188980      366.096744    ;  uncertainty theta = 0.001901, k = 0.057344
        58        61        63     1      107.188980      366.096744    ;  uncertainty theta = 0.001901, k = 0.057344
        58        61        64     1      107.188980      366.096744    ;  uncertainty theta = 0.001901, k = 0.057344
        59        58        60     1      122.935013      818.145014    ;  uncertainty theta = 0.004322, k = 0.077601
        59        58        61     1      111.797806      701.163538    ;  uncertainty theta = 0.001698, k = 0.014126
        60        58        61     1      111.797806      701.163538    ;  uncertainty theta = 0.001698, k = 0.014126
        62        61        63     1      108.782570      296.283937    ;  uncertainty theta = 0.002894, k = 0.028014
        62        61        64     1      108.782570      296.283937    ;  uncertainty theta = 0.002894, k = 0.028014
        63        61        64     1      108.782570      296.283937    ;  uncertainty theta = 0.002894, k = 0.028014

[ dihedrals ] ; propers for gromacs 4.5 or higher, use funct 9
;       ai        aj        ak        al funct           phase               k        pn
         1         2         6         3     9        0.000000       -3.090920         1    ;  uncertainty k = 1.764723
         1         2         6         3     9      180.000000        0.099645         2    ;  uncertainty k = 1.147878
         1         2         6         3     9        0.000000        0.937069         3    ;  uncertainty k = 0.257052
         1         2         6         3     9      180.000000       -0.348700         4    ;  uncertainty k = 0.188482
         1        10         4         3     9        0.000000       -7.182169         1    ;  uncertainty k = 1.160296
         1        10         4         3     9      180.000000        0.651721         2    ;  uncertainty k = 0.689257
         1        10         4         3     9        0.000000        1.337200         3    ;  uncertainty k = 0.165866
         1        10         4         3     9      180.000000       -1.433187         4    ;  uncertainty k = 0.219126
         1        10         4        39     9        0.000000       -1.858871         1    ;  uncertainty k = 0.333669
         1        10         4        39     9      180.000000       -0.004379         2    ;  uncertainty k = 0.147655
         1        10         4        39     9        0.000000        0.298804         3    ;  uncertainty k = 0.155785
         1        10         4        39     9      180.000000       -0.141300         4    ;  uncertainty k = 0.079428
         1        10         4        40     9        0.000000       -1.858871         1    ;  uncertainty k = 0.333669
         1        10         4        40     9      180.000000       -0.004379         2    ;  uncertainty k = 0.147655
         1        10         4        40     9        0.000000        0.298804         3    ;  uncertainty k = 0.155785
         1        10         4        40     9      180.000000       -0.141300         4    ;  uncertainty k = 0.079428
         1        10        27         9     9        0.000000       -2.494622         1    ;  uncertainty k = 0.359465
         1        10        27         9     9      180.000000        0.494401         2    ;  uncertainty k = 0.189999
         1        10        27         9     9        0.000000        0.369121         3    ;  uncertainty k = 0.120848
         1        10        27         9     9      180.000000        0.362253         4    ;  uncertainty k = 0.080871
         1        10        27        43     9        0.000000        2.787690         1    ;  uncertainty k = 0.893880
         1        10        27        43     9      180.000000       -0.663636         2    ;  uncertainty k = 0.236090
         1        10        27        43     9        0.000000        0.218247         3    ;  uncertainty k = 0.119918
         1        10        27        43     9      180.000000        0.123443         4    ;  uncertainty k = 0.073280
         2         1        10         4     9        0.000000       -7.182169         1    ;  uncertainty k = 1.160296
         2         1        10         4     9      180.000000        0.651721         2    ;  uncertainty k = 0.689257
         2         1        10         4     9        0.000000        1.337200         3    ;  uncertainty k = 0.165866
         2         1        10         4     9      180.000000       -1.433187         4    ;  uncertainty k = 0.219126
         2         1        10        27     9        0.000000       -4.805353         1    ;  uncertainty k = 0.699431
         2         1        10        27     9      180.000000       -0.187719         2    ;  uncertainty k = 0.333371
         2         1        10        27     9        0.000000        1.016385         3    ;  uncertainty k = 0.162984
         2         1        10        27     9      180.000000       -0.078100         4    ;  uncertainty k = 0.195994
         2         1        10        41     9        0.000000       -1.687319         1    ;  uncertainty k = 0.555497
         2         1        10        41     9      180.000000       -0.643722         2    ;  uncertainty k = 0.388884
         2         1        10        41     9        0.000000        0.030461         3    ;  uncertainty k = 0.099396
         2         1        10        41     9      180.000000       -0.147535         4    ;  uncertainty k = 0.108263
         2         6         3         4     9        0.000000       -3.090920         1    ;  uncertainty k = 1.764723
         2         6         3         4     9      180.000000        0.099645         2    ;  uncertainty k = 1.147878
         2         6         3         4     9        0.000000        0.937069         3    ;  uncertainty k = 0.257052
         2         6         3         4     9      180.000000       -0.348700         4    ;  uncertainty k = 0.188482
         2         6         3        37     9        0.000000       -5.435409         1    ;  uncertainty k = 1.705293
         2         6         3        37     9      180.000000        0.309318         2    ;  uncertainty k = 0.194051
         2         6         3        37     9        0.000000        0.745836         3    ;  uncertainty k = 0.129776
         2         6         3        37     9      180.000000       -0.529315         4    ;  uncertainty k = 0.148432
         2         6         3        38     9        0.000000       -5.435409         1    ;  uncertainty k = 1.705293
         2         6         3        38     9      180.000000        0.309318         2    ;  uncertainty k = 0.194051
         2         6         3        38     9        0.000000        0.745836         3    ;  uncertainty k = 0.129776
         2         6         3        38     9      180.000000       -0.529315         4    ;  uncertainty k = 0.148432
         3         4        10        27     9        0.000000       -4.805353         1    ;  uncertainty k = 0.699431
         3         4        10        27     9      180.000000       -0.187719         2    ;  uncertainty k = 0.333371
         3         4        10        27     9        0.000000        1.016385         3    ;  uncertainty k = 0.162984
         3         4        10        27     9      180.000000       -0.078100         4    ;  uncertainty k = 0.195994
         3         4        10        41     9        0.000000       -1.687319         1    ;  uncertainty k = 0.555497
         3         4        10        41     9      180.000000       -0.643722         2    ;  uncertainty k = 0.388884
         3         4        10        41     9        0.000000        0.030461         3    ;  uncertainty k = 0.099396
         3         4        10        41     9      180.000000       -0.147535         4    ;  uncertainty k = 0.108263
         3         6         2        35     9        0.000000       -5.435409         1    ;  uncertainty k = 1.705293
         3         6         2        35     9      180.000000        0.309318         2    ;  uncertainty k = 0.194051
         3         6         2        35     9        0.000000        0.745836         3    ;  uncertainty k = 0.129776
         3         6         2        35     9      180.000000       -0.529315         4    ;  uncertainty k = 0.148432
         3         6         2        36     9        0.000000       -5.435409         1    ;  uncertainty k = 1.705293
         3         6         2        36     9      180.000000        0.309318         2    ;  uncertainty k = 0.194051
         3         6         2        36     9        0.000000        0.745836         3    ;  uncertainty k = 0.129776
         3         6         2        36     9      180.000000       -0.529315         4    ;  uncertainty k = 0.148432
         4        10         1        33     9        0.000000       -1.858871         1    ;  uncertainty k = 0.333669
         4        10         1        33     9      180.000000       -0.004379         2    ;  uncertainty k = 0.147655
         4        10         1        33     9        0.000000        0.298804         3    ;  uncertainty k = 0.155785
         4        10         1        33     9      180.000000       -0.141300         4    ;  uncertainty k = 0.079428
         4        10         1        34     9        0.000000       -1.858871         1    ;  uncertainty k = 0.333669
         4        10         1        34     9      180.000000       -0.004379         2    ;  uncertainty k = 0.147655
         4        10         1        34     9        0.000000        0.298804         3    ;  uncertainty k = 0.155785
         4        10         1        34     9      180.000000       -0.141300         4    ;  uncertainty k = 0.079428
         4        10        27         9     9        0.000000       -2.494622         1    ;  uncertainty k = 0.359465
         4        10        27         9     9      180.000000        0.494401         2    ;  uncertainty k = 0.189999
         4        10        27         9     9        0.000000        0.369121         3    ;  uncertainty k = 0.120848
         4        10        27         9     9      180.000000        0.362253         4    ;  uncertainty k = 0.080871
         4        10        27        43     9        0.000000        2.787690         1    ;  uncertainty k = 0.893880
         4        10        27        43     9      180.000000       -0.663636         2    ;  uncertainty k = 0.236090
         4        10        27        43     9        0.000000        0.218247         3    ;  uncertainty k = 0.119918
         4        10        27        43     9      180.000000        0.123443         4    ;  uncertainty k = 0.073280
         5         8        19        15     9        0.000000       -0.306313         1    ;  uncertainty k = 0.505391
         5         8        19        15     9      180.000000        5.699560         2    ;  uncertainty k = 1.071993
         5         8        19        15     9        0.000000        0.341049         3    ;  uncertainty k = 0.427163
         5         8        19        15     9      180.000000        1.286695         4    ;  uncertainty k = 0.336491
         5         8        19        22     9        0.000000        0.217251         1    ;  uncertainty k = 0.183771
         5         8        19        22     9      180.000000        8.076965         2    ;  uncertainty k = 0.440504
         5         8        19        22     9        0.000000        1.333378         3    ;  uncertainty k = 0.196600
         5         8        19        22     9      180.000000        1.703177         4    ;  uncertainty k = 0.102000
         5        13        14        15     9        0.000000        0.006656         1    ;  uncertainty k = 0.178742
         5        13        14        15     9      180.000000        9.851306         2    ;  uncertainty k = 0.487067
         5        13        14        15     9        0.000000       -0.289375         3    ;  uncertainty k = 0.510037
         5        13        14        15     9      180.000000        1.102178         4    ;  uncertainty k = 0.341530
         5        13        14        28     9        0.000000        0.058690         1    ;  uncertainty k = 0.184961
         5        13        14        28     9      180.000000        5.722279         2    ;  uncertainty k = 0.634542
         5        13        14        28     9        0.000000        1.318867         3    ;  uncertainty k = 0.348930
         5        13        14        28     9      180.000000        1.524759         4    ;  uncertainty k = 0.200416
         6         2         1        10     9        0.000000       -0.987582         1    ;  uncertainty k = 1.101439
         6         2         1        10     9      180.000000       -3.903899         2    ;  uncertainty k = 0.673250
         6         2         1        10     9        0.000000        1.869479         3    ;  uncertainty k = 0.389552
         6         2         1        10     9      180.000000       -0.727265         4    ;  uncertainty k = 0.139798
         6         2         1        33     9        0.000000       -1.784485         1    ;  uncertainty k = 0.521414
         6         2         1        33     9      180.000000       -0.100756         2    ;  uncertainty k = 0.269946
         6         2         1        33     9        0.000000        1.457848         3    ;  uncertainty k = 0.236776
         6         2         1        33     9      180.000000       -0.196225         4    ;  uncertainty k = 0.165688
         6         2         1        34     9        0.000000       -1.784485         1    ;  uncertainty k = 0.521414
         6         2         1        34     9      180.000000       -0.100756         2    ;  uncertainty k = 0.269946
         6         2         1        34     9        0.000000        1.457848         3    ;  uncertainty k = 0.236776
         6         2         1        34     9      180.000000       -0.196225         4    ;  uncertainty k = 0.165688
         6         3         4        10     9        0.000000       -0.987582         1    ;  uncertainty k = 1.101439
         6         3         4        10     9      180.000000       -3.903899         2    ;  uncertainty k = 0.673250
         6         3         4        10     9        0.000000        1.869479         3    ;  uncertainty k = 0.389552
         6         3         4        10     9      180.000000       -0.727265         4    ;  uncertainty k = 0.139798
         6         3         4        39     9        0.000000       -1.784485         1    ;  uncertainty k = 0.521414
         6         3         4        39     9      180.000000       -0.100756         2    ;  uncertainty k = 0.269946
         6         3         4        39     9        0.000000        1.457848         3    ;  uncertainty k = 0.236776
         6         3         4        39     9      180.000000       -0.196225         4    ;  uncertainty k = 0.165688
         6         3         4        40     9        0.000000       -1.784485         1    ;  uncertainty k = 0.521414
         6         3         4        40     9      180.000000       -0.100756         2    ;  uncertainty k = 0.269946
         6         3         4        40     9        0.000000        1.457848         3    ;  uncertainty k = 0.236776
         6         3         4        40     9      180.000000       -0.196225         4    ;  uncertainty k = 0.165688
         7        18        12        11     9        0.000000        0.247411         1    ;  uncertainty k = 0.669570
         7        18        12        11     9      180.000000       13.242143         2    ;  uncertainty k = 0.426528
         7        18        12        11     9        0.000000        1.556109         3    ;  uncertainty k = 0.157032
         7        18        12        11     9      180.000000        1.156816         4    ;  uncertainty k = 0.297191
         7        18        12        31     9        0.000000        0.204990         1    ;  uncertainty k = 0.577575
         7        18        12        31     9      180.000000       10.976667         2    ;  uncertainty k = 0.616406
         7        18        12        31     9        0.000000        1.619981         3    ;  uncertainty k = 0.450860
         7        18        12        31     9      180.000000        1.195260         4    ;  uncertainty k = 0.094218
         7        18        22        19     9        0.000000        2.897253         1    ;  uncertainty k = 2.305959
         7        18        22        19     9      180.000000        3.054509         2    ;  uncertainty k = 0.313102
         7        18        22        19     9        0.000000        1.867175         3    ;  uncertainty k = 0.354463
         7        18        22        19     9      180.000000        0.163055         4    ;  uncertainty k = 0.219970
         7        25        16        11     9        0.000000        1.182069         1    ;  uncertainty k = 1.436247
         7        25        16        11     9      180.000000        4.302349         2    ;  uncertainty k = 1.044983
         7        25        16        11     9        0.000000        0.521778         3    ;  uncertainty k = 0.540265
         7        25        16        11     9      180.000000        0.108419         4    ;  uncertainty k = 0.126886
         7        25        16        26     9        0.000000       -0.081797         1    ;  uncertainty k = 1.660380
         7        25        16        26     9      180.000000        7.792558         2    ;  uncertainty k = 0.721147
         7        25        16        26     9        0.000000        1.127385         3    ;  uncertainty k = 0.559183
         7        25        16        26     9      180.000000       -0.200476         4    ;  uncertainty k = 0.264662
         7        25        46        42     9        0.000000        0.290009         1    ;  uncertainty k = 0.418142
         7        25        46        42     9      180.000000        1.319024         2    ;  uncertainty k = 0.875645
         7        25        46        42     9        0.000000        0.056229         3    ;  uncertainty k = 0.213818
         7        25        46        42     9      180.000000        0.627000         4    ;  uncertainty k = 0.132140
         7        25        46        45     9        0.000000        0.584027         1    ;  uncertainty k = 0.490664
         7        25        46        45     9      180.000000        1.126856         2    ;  uncertainty k = 0.285548
         7        25        46        45     9        0.000000        0.295235         3    ;  uncertainty k = 0.326787
         7        25        46        45     9      180.000000        0.120271         4    ;  uncertainty k = 0.121336
         7        25        46        47     9        0.000000        0.584027         1    ;  uncertainty k = 0.490664
         7        25        46        47     9      180.000000        1.126856         2    ;  uncertainty k = 0.285548
         7        25        46        47     9        0.000000        0.295235         3    ;  uncertainty k = 0.326787
         7        25        46        47     9      180.000000        0.120271         4    ;  uncertainty k = 0.121336
         8         5        13        14     9        0.000000       -0.049959         1    ;  uncertainty k = 0.238365
         8         5        13        14     9      180.000000        8.709297         2    ;  uncertainty k = 0.507640
         8         5        13        14     9        0.000000       -0.103094         3    ;  uncertainty k = 0.454333
         8         5        13        14     9      180.000000        1.263124         4    ;  uncertainty k = 0.287252
         8         5        13        21     9        0.000000        0.023050         1    ;  uncertainty k = 0.157478
         8         5        13        21     9      180.000000       12.231401         2    ;  uncertainty k = 0.567990
         8         5        13        21     9        0.000000        1.527926         3    ;  uncertainty k = 0.329456
         8         5        13        21     9      180.000000        1.522411         4    ;  uncertainty k = 0.258192
         8        19        15        14     9        0.000000        0.015776         1    ;  uncertainty k = 0.049644
         8        19        15        14     9      180.000000        9.130352         2    ;  uncertainty k = 0.496855
         8        19        15        14     9        0.000000        0.154802         3    ;  uncertainty k = 0.380221
         8        19        15        14     9      180.000000        1.321067         4    ;  uncertainty k = 0.368043
         8        19        15        29     9        0.000000        0.146476         1    ;  uncertainty k = 0.242432
         8        19        15        29     9      180.000000        6.097361         2    ;  uncertainty k = 0.718867
         8        19        15        29     9        0.000000        1.323120         3    ;  uncertainty k = 0.435541
         8        19        15        29     9      180.000000        1.565701         4    ;  uncertainty k = 0.129358
         8        19        22        18     9        0.000000        3.680796         1    ;  uncertainty k = 0.791766
         8        19        22        18     9      180.000000        2.938276         2    ;  uncertainty k = 0.344508
         8        19        22        18     9        0.000000        0.847725         3    ;  uncertainty k = 0.237970
         8        19        22        18     9      180.000000        0.048982         4    ;  uncertainty k = 0.185488
         9        23        17        11     9        0.000000       -0.115923         1    ;  uncertainty k = 0.762621
         9        23        17        11     9      180.000000       17.288898         2    ;  uncertainty k = 0.583017
         9        23        17        11     9        0.000000       -0.514163         3    ;  uncertainty k = 0.664278
         9        23        17        11     9      180.000000        1.630182         4    ;  uncertainty k = 0.612806
         9        23        17        32     9        0.000000        0.092794         1    ;  uncertainty k = 0.990614
         9        23        17        32     9      180.000000       17.948243         2    ;  uncertainty k = 0.661330
         9        23        17        32     9        0.000000        1.364332         3    ;  uncertainty k = 0.783163
         9        23        17        32     9      180.000000        1.150758         4    ;  uncertainty k = 0.474189
         9        26        16        11     9        0.000000        0.249323         1    ;  uncertainty k = 0.756812
         9        26        16        11     9      180.000000       13.118172         2    ;  uncertainty k = 0.666078
         9        26        16        11     9        0.000000        0.161059         3    ;  uncertainty k = 0.899387
         9        26        16        11     9      180.000000        1.057182         4    ;  uncertainty k = 0.436383
         9        26        16        25     9        0.000000        0.622070         1    ;  uncertainty k = 0.837012
         9        26        16        25     9      180.000000       15.761509         2    ;  uncertainty k = 0.958703
         9        26        16        25     9        0.000000        1.804033         3    ;  uncertainty k = 0.269036
         9        26        16        25     9      180.000000        1.049437         4    ;  uncertainty k = 0.379373
         9        27        10        41     9        0.000000       -0.158890         1    ;  uncertainty k = 0.459285
         9        27        10        41     9      180.000000       -0.295330         2    ;  uncertainty k = 0.112831
         9        27        10        41     9        0.000000        0.048093         3    ;  uncertainty k = 0.158185
         9        27        10        41     9      180.000000        0.285755         4    ;  uncertainty k = 0.069997
        10         1         2        35     9        0.000000        3.577617         1    ;  uncertainty k = 1.073611
        10         1         2        35     9      180.000000       -2.876486         2    ;  uncertainty k = 0.518010
        10         1         2        35     9        0.000000       -0.152945         3    ;  uncertainty k = 0.197941
        10         1         2        35     9      180.000000        0.397574         4    ;  uncertainty k = 0.144225
        10         1         2        36     9        0.000000        3.577617         1    ;  uncertainty k = 1.073611
        10         1         2        36     9      180.000000       -2.876486         2    ;  uncertainty k = 0.518010
        10         1         2        36     9        0.000000       -0.152945         3    ;  uncertainty k = 0.197941
        10         1         2        36     9      180.000000        0.397574         4    ;  uncertainty k = 0.144225
        10         4         3        37     9        0.000000        3.577617         1    ;  uncertainty k = 1.073611
        10         4         3        37     9      180.000000       -2.876486         2    ;  uncertainty k = 0.518010
        10         4         3        37     9        0.000000       -0.152945         3    ;  uncertainty k = 0.197941
        10         4         3        37     9      180.000000        0.397574         4    ;  uncertainty k = 0.144225
        10         4         3        38     9        0.000000        3.577617         1    ;  uncertainty k = 1.073611
        10         4         3        38     9      180.000000       -2.876486         2    ;  uncertainty k = 0.518010
        10         4         3        38     9        0.000000       -0.152945         3    ;  uncertainty k = 0.197941
        10         4         3        38     9      180.000000        0.397574         4    ;  uncertainty k = 0.144225
        10        27         9        23     9        0.000000        9.134423         1    ;  uncertainty k = 0.696250
        10        27         9        23     9      180.000000       11.355840         2    ;  uncertainty k = 0.243240
        10        27         9        23     9        0.000000        1.389211         3    ;  uncertainty k = 0.178924
        10        27         9        23     9      180.000000       -0.347848         4    ;  uncertainty k = 0.040148
        10        27         9        26     9        0.000000       10.027399         1    ;  uncertainty k = 0.756143
        10        27         9        26     9      180.000000       11.516877         2    ;  uncertainty k = 0.181277
        10        27         9        26     9        0.000000        1.275886         3    ;  uncertainty k = 0.216125
        10        27         9        26     9      180.000000       -0.386522         4    ;  uncertainty k = 0.071930
        11        12        18        22     9        0.000000        0.167066         1    ;  uncertainty k = 0.332214
        11        12        18        22     9      180.000000       21.138729         2    ;  uncertainty k = 0.651370
        11        12        18        22     9        0.000000        2.037764         3    ;  uncertainty k = 0.300403
        11        12        18        22     9      180.000000        0.659653         4    ;  uncertainty k = 0.565664
        11        16        25        46     9        0.000000        2.400598         1    ;  uncertainty k = 1.228489
        11        16        25        46     9      180.000000        9.083892         2    ;  uncertainty k = 0.379354
        11        16        25        46     9        0.000000        1.023025         3    ;  uncertainty k = 0.821690
        11        16        25        46     9      180.000000       -0.161859         4    ;  uncertainty k = 0.469761
        12        11        16        25     9        0.000000       -0.078510         1    ;  uncertainty k = 0.349002
        12        11        16        25     9      180.000000        7.448068         2    ;  uncertainty k = 0.411272
        12        11        16        25     9        0.000000        0.290749         3    ;  uncertainty k = 0.443012
        12        11        16        25     9      180.000000        1.088267         4    ;  uncertainty k = 0.174277
        12        11        16        26     9        0.000000        0.304292         1    ;  uncertainty k = 1.059067
        12        11        16        26     9      180.000000        8.118359         2    ;  uncertainty k = 1.277512
        12        11        16        26     9        0.000000        0.095662         3    ;  uncertainty k = 0.304088
        12        11        16        26     9      180.000000        1.318587         4    ;  uncertainty k = 0.502251
        12        11        17        23     9        0.000000        0.228880         1    ;  uncertainty k = 0.390993
        12        11        17        23     9      180.000000       10.819239         2    ;  uncertainty k = 0.534393
        12        11        17        23     9        0.000000        0.247579         3    ;  uncertainty k = 0.250221
        12        11        17        23     9      180.000000        1.240462         4    ;  uncertainty k = 0.337256
        12        11        17        32     9        0.000000       -0.464177         1    ;  uncertainty k = 0.616923
        12        11        17        32     9      180.000000        5.990824         2    ;  uncertainty k = 0.651878
        12        11        17        32     9        0.000000        0.810229         3    ;  uncertainty k = 0.265204
        12        11        17        32     9      180.000000        0.683135         4    ;  uncertainty k = 0.181168
        12        18         7        24     9        0.000000       -2.785973         1    ;  uncertainty k = 0.983678
        12        18         7        24     9      180.000000        2.771788         2    ;  uncertainty k = 0.976920
        12        18         7        24     9        0.000000       -0.188142         3    ;  uncertainty k = 0.391664
        12        18         7        24     9      180.000000       -0.024150         4    ;  uncertainty k = 0.207850
        12        18         7        25     9        0.000000        2.269470         1    ;  uncertainty k = 2.259941
        12        18         7        25     9      180.000000        0.251221         2    ;  uncertainty k = 0.998996
        12        18         7        25     9        0.000000        0.395109         3    ;  uncertainty k = 0.337580
        12        18         7        25     9      180.000000        0.383923         4    ;  uncertainty k = 0.164899
        12        18        22        19     9        0.000000        6.099125         1    ;  uncertainty k = 1.058861
        12        18        22        19     9      180.000000        6.395431         2    ;  uncertainty k = 0.115897
        12        18        22        19     9        0.000000       -0.846049         3    ;  uncertainty k = 0.375974
        12        18        22        19     9      180.000000        0.121655         4    ;  uncertainty k = 0.106577
        13         5         8        19     9        0.000000       -0.028157         1    ;  uncertainty k = 0.164194
        13         5         8        19     9      180.000000        8.671004         2    ;  uncertainty k = 0.512359
        13         5         8        19     9        0.000000        0.207433         3    ;  uncertainty k = 0.509188
        13         5         8        19     9      180.000000        1.302601         4    ;  uncertainty k = 0.281851
        13         5         8        20     9        0.000000       -0.002392         1    ;  uncertainty k = 0.247129
        13         5         8        20     9      180.000000       13.084887         2    ;  uncertainty k = 0.509633
        13         5         8        20     9        0.000000        1.474366         3    ;  uncertainty k = 0.306558
        13         5         8        20     9      180.000000        1.520558         4    ;  uncertainty k = 0.243651
        13        14        15        19     9        0.000000       -0.113542         1    ;  uncertainty k = 0.211768
        13        14        15        19     9      180.000000       13.972594         2    ;  uncertainty k = 0.306737
        13        14        15        19     9        0.000000       -0.786444         3    ;  uncertainty k = 0.554355
        13        14        15        19     9      180.000000        0.930464         4    ;  uncertainty k = 0.288428
        13        14        15        29     9        0.000000       -0.003440         1    ;  uncertainty k = 0.095641
        13        14        15        29     9      180.000000        7.538138         2    ;  uncertainty k = 0.273713
        13        14        15        29     9        0.000000        1.412643         3    ;  uncertainty k = 0.270752
        13        14        15        29     9      180.000000        1.740927         4    ;  uncertainty k = 0.123790
        14        13         5        30     9        0.000000        0.138635         1    ;  uncertainty k = 0.151239
        14        13         5        30     9      180.000000        5.451074         2    ;  uncertainty k = 0.660632
        14        13         5        30     9        0.000000        1.286115         3    ;  uncertainty k = 0.294094
        14        13         5        30     9      180.000000        1.480963         4    ;  uncertainty k = 0.179055
        14        15        19        22     9        0.000000       -0.063428         1    ;  uncertainty k = 0.390958
        14        15        19        22     9      180.000000       11.002314         2    ;  uncertainty k = 0.443946
        14        15        19        22     9        0.000000        1.356464         3    ;  uncertainty k = 0.240369
        14        15        19        22     9      180.000000        1.736595         4    ;  uncertainty k = 0.121238
        15        14        13        21     9        0.000000       -0.032001         1    ;  uncertainty k = 0.254449
        15        14        13        21     9      180.000000       12.251927         2    ;  uncertainty k = 0.522356
        15        14        13        21     9        0.000000        1.414423         3    ;  uncertainty k = 0.230243
        15        14        13        21     9      180.000000        1.530094         4    ;  uncertainty k = 0.209632
        15        19         8        20     9        0.000000        0.257162         1    ;  uncertainty k = 0.251999
        15        19         8        20     9      180.000000        8.387430         2    ;  uncertainty k = 0.311300
        15        19         8        20     9        0.000000        1.426919         3    ;  uncertainty k = 0.223314
        15        19         8        20     9      180.000000        1.675064         4    ;  uncertainty k = 0.138706
        15        19        22        18     9        0.000000        4.696425         1    ;  uncertainty k = 1.055900
        15        19        22        18     9      180.000000        3.962376         2    ;  uncertainty k = 0.177602
        15        19        22        18     9        0.000000        0.372057         3    ;  uncertainty k = 0.324582
        15        19        22        18     9      180.000000        0.124920         4    ;  uncertainty k = 0.078963
        16        11        12        18     9        0.000000       -0.027993         1    ;  uncertainty k = 1.098878
        16        11        12        18     9      180.000000        6.548855         2    ;  uncertainty k = 0.861096
        16        11        12        18     9        0.000000        0.261120         3    ;  uncertainty k = 0.389105
        16        11        12        18     9      180.000000        0.525394         4    ;  uncertainty k = 0.182366
        16        11        12        31     9        0.000000        0.508380         1    ;  uncertainty k = 1.304821
        16        11        12        31     9      180.000000        6.386433         2    ;  uncertainty k = 0.572706
        16        11        12        31     9        0.000000        1.085382         3    ;  uncertainty k = 0.244133
        16        11        12        31     9      180.000000        0.157412         4    ;  uncertainty k = 0.186971
        16        11        17        23     9        0.000000       -0.050114         1    ;  uncertainty k = 0.633285
        16        11        17        23     9      180.000000       11.857421         2    ;  uncertainty k = 0.312113
        16        11        17        23     9        0.000000       -0.964544         3    ;  uncertainty k = 0.823060
        16        11        17        23     9      180.000000        0.817940         4    ;  uncertainty k = 0.169160
        16        11        17        32     9        0.000000       -0.173900         1    ;  uncertainty k = 0.896790
        16        11        17        32     9      180.000000        6.461610         2    ;  uncertainty k = 0.786303
        16        11        17        32     9        0.000000        0.645671         3    ;  uncertainty k = 0.058243
        16        11        17        32     9      180.000000        0.776372         4    ;  uncertainty k = 0.251607
        16        25         7        18     9        0.000000        1.366955         1    ;  uncertainty k = 1.715188
        16        25         7        18     9      180.000000        1.776275         2    ;  uncertainty k = 1.239569
        16        25         7        18     9        0.000000        0.998353         3    ;  uncertainty k = 0.173477
        16        25         7        18     9      180.000000        0.488961         4    ;  uncertainty k = 0.240346
        16        25         7        24     9        0.000000        2.601872         1    ;  uncertainty k = 2.675327
        16        25         7        24     9      180.000000       13.240766         2    ;  uncertainty k = 0.564462
        16        25         7        24     9        0.000000        1.123617         3    ;  uncertainty k = 0.201594
        16        25         7        24     9      180.000000       -0.346322         4    ;  uncertainty k = 0.509240
        16        25        46        42     9        0.000000       -0.502206         1    ;  uncertainty k = 1.098966
        16        25        46        42     9      180.000000        1.386357         2    ;  uncertainty k = 0.469820
        16        25        46        42     9        0.000000       -0.091063         3    ;  uncertainty k = 0.343617
        16        25        46        42     9      180.000000        0.560812         4    ;  uncertainty k = 0.182520
        16        25        46        45     9        0.000000       -0.117582         1    ;  uncertainty k = 0.622294
        16        25        46        45     9      180.000000        1.756504         2    ;  uncertainty k = 0.584428
        16        25        46        45     9        0.000000        0.153740         3    ;  uncertainty k = 0.253657
        16        25        46        45     9      180.000000        0.179698         4    ;  uncertainty k = 0.164678
        16        25        46        47     9        0.000000       -0.117582         1    ;  uncertainty k = 0.622294
        16        25        46        47     9      180.000000        1.756504         2    ;  uncertainty k = 0.584428
        16        25        46        47     9        0.000000        0.153740         3    ;  uncertainty k = 0.253657
        16        25        46        47     9      180.000000        0.179698         4    ;  uncertainty k = 0.164678
        16        26         9        23     9        0.000000       -0.217909         1    ;  uncertainty k = 1.870111
        16        26         9        23     9      180.000000        6.530834         2    ;  uncertainty k = 0.903873
        16        26         9        23     9        0.000000        1.205300         3    ;  uncertainty k = 0.719590
        16        26         9        23     9      180.000000        0.769257         4    ;  uncertainty k = 0.333564
        16        26         9        27     9        0.000000        0.435058         1    ;  uncertainty k = 1.889390
        16        26         9        27     9      180.000000        8.785063         2    ;  uncertainty k = 0.614097
        16        26         9        27     9        0.000000        2.000461         3    ;  uncertainty k = 0.406448
        16        26         9        27     9      180.000000        0.885856         4    ;  uncertainty k = 0.336933
        17        11        12        18     9        0.000000        0.192558         1    ;  uncertainty k = 0.590209
        17        11        12        18     9      180.000000        5.384961         2    ;  uncertainty k = 1.095735
        17        11        12        18     9        0.000000        0.950221         3    ;  uncertainty k = 0.333064
        17        11        12        18     9      180.000000        0.386757         4    ;  uncertainty k = 0.246718
        17        11        12        31     9        0.000000        0.391258         1    ;  uncertainty k = 0.937315
        17        11        12        31     9      180.000000        5.438048         2    ;  uncertainty k = 0.318051
        17        11        12        31     9        0.000000        0.941734         3    ;  uncertainty k = 0.357381
        17        11        12        31     9      180.000000        0.075878         4    ;  uncertainty k = 0.153278
        17        11        16        25     9        0.000000       -0.922879         1    ;  uncertainty k = 0.803980
        17        11        16        25     9      180.000000        5.907319         2    ;  uncertainty k = 0.862399
        17        11        16        25     9        0.000000        0.108954         3    ;  uncertainty k = 0.341219
        17        11        16        25     9      180.000000        1.041002         4    ;  uncertainty k = 0.308038
        17        11        16        26     9        0.000000       -0.032130         1    ;  uncertainty k = 0.656544
        17        11        16        26     9      180.000000        7.529407         2    ;  uncertainty k = 1.072125
        17        11        16        26     9        0.000000       -0.299787         3    ;  uncertainty k = 0.282389
        17        11        16        26     9      180.000000        1.215467         4    ;  uncertainty k = 0.604945
        17        23         9        26     9        0.000000        0.032315         1    ;  uncertainty k = 0.831374
        17        23         9        26     9      180.000000        6.486731         2    ;  uncertainty k = 1.305876
        17        23         9        26     9        0.000000        0.841926         3    ;  uncertainty k = 0.525144
        17        23         9        26     9      180.000000        0.518573         4    ;  uncertainty k = 0.211406
        17        23         9        27     9        0.000000        0.323980         1    ;  uncertainty k = 0.795261
        17        23         9        27     9      180.000000        7.727452         2    ;  uncertainty k = 0.526396
        17        23         9        27     9        0.000000        1.842417         3    ;  uncertainty k = 0.688549
        17        23         9        27     9      180.000000        0.636474         4    ;  uncertainty k = 0.279982
        18         7        25        46     9        0.000000        1.387446         1    ;  uncertainty k = 1.061813
        18         7        25        46     9      180.000000        7.084296         2    ;  uncertainty k = 0.855010
        18         7        25        46     9        0.000000        1.543214         3    ;  uncertainty k = 0.142452
        18         7        25        46     9      180.000000       -0.195129         4    ;  uncertainty k = 0.334951
        19         8         5        30     9        0.000000        0.057379         1    ;  uncertainty k = 0.165911
        19         8         5        30     9      180.000000        5.716951         2    ;  uncertainty k = 0.832327
        19         8         5        30     9        0.000000        1.299980         3    ;  uncertainty k = 0.327602
        19         8         5        30     9      180.000000        1.492424         4    ;  uncertainty k = 0.176810
        19        15        14        28     9        0.000000        0.076709         1    ;  uncertainty k = 0.186984
        19        15        14        28     9      180.000000        7.523892         2    ;  uncertainty k = 0.356925
        19        15        14        28     9        0.000000        1.389232         3    ;  uncertainty k = 0.254789
        19        15        14        28     9      180.000000        1.744370         4    ;  uncertainty k = 0.166848
        20         8         5        30     9        0.000000       -0.230980         1    ;  uncertainty k = 0.291748
        20         8         5        30     9      180.000000        9.239380         2    ;  uncertainty k = 0.341179
        20         8         5        30     9        0.000000        0.839928         3    ;  uncertainty k = 0.293710
        20         8         5        30     9      180.000000        1.043063         4    ;  uncertainty k = 0.201990
        20         8        19        22     9        0.000000       -0.105953         1    ;  uncertainty k = 0.351941
        20         8        19        22     9      180.000000       12.158803         2    ;  uncertainty k = 0.215696
        20         8        19        22     9        0.000000        1.161050         3    ;  uncertainty k = 0.365573
        20         8        19        22     9      180.000000        1.264683         4    ;  uncertainty k = 0.193588
        21        13         5        30     9        0.000000       -0.271891         1    ;  uncertainty k = 0.249928
        21        13         5        30     9      180.000000        8.500019         2    ;  uncertainty k = 0.281498
        21        13         5        30     9        0.000000        0.815708         3    ;  uncertainty k = 0.327842
        21        13         5        30     9      180.000000        0.992978         4    ;  uncertainty k = 0.194491
        21        13        14        28     9        0.000000       -0.357248         1    ;  uncertainty k = 0.222188
        21        13        14        28     9      180.000000        8.920407         2    ;  uncertainty k = 0.265967
        21        13        14        28     9        0.000000        0.818892         3    ;  uncertainty k = 0.249596
        21        13        14        28     9      180.000000        0.905586         4    ;  uncertainty k = 0.175017
        22        18         7        24     9        0.000000       -2.096863         1    ;  uncertainty k = 1.557111
        22        18         7        24     9      180.000000        9.466724         2    ;  uncertainty k = 0.627364
        22        18         7        24     9        0.000000        0.209051         3    ;  uncertainty k = 0.517622
        22        18         7        24     9      180.000000       -0.327042         4    ;  uncertainty k = 0.468473
        22        18         7        25     9        0.000000        1.585190         1    ;  uncertainty k = 1.040736
        22        18         7        25     9      180.000000        3.008223         2    ;  uncertainty k = 0.715160
        22        18         7        25     9        0.000000        0.640847         3    ;  uncertainty k = 0.361806
        22        18         7        25     9      180.000000        0.586152         4    ;  uncertainty k = 0.139865
        22        18        12        31     9        0.000000        0.193133         1    ;  uncertainty k = 0.786135
        22        18        12        31     9      180.000000       16.290122         2    ;  uncertainty k = 0.455058
        22        18        12        31     9        0.000000        1.918007         3    ;  uncertainty k = 0.081132
        22        18        12        31     9      180.000000        0.958995         4    ;  uncertainty k = 0.579198
        22        19        15        29     9        0.000000       -0.021117         1    ;  uncertainty k = 0.161289
        22        19        15        29     9      180.000000        8.756894         2    ;  uncertainty k = 0.244370
        22        19        15        29     9        0.000000        0.882174         3    ;  uncertainty k = 0.266128
        22        19        15        29     9      180.000000        1.205856         4    ;  uncertainty k = 0.153798
        23         9        27        43     9        0.000000       10.293445         1    ;  uncertainty k = 0.672357
        23         9        27        43     9      180.000000        9.748348         2    ;  uncertainty k = 0.257343
        23         9        27        43     9        0.000000        1.252652         3    ;  uncertainty k = 0.575484
        23         9        27        43     9      180.000000       -0.444344         4    ;  uncertainty k = 0.254977
        24         7        25        46     9        0.000000        2.052906         1    ;  uncertainty k = 1.044591
        24         7        25        46     9      180.000000       13.747342         2    ;  uncertainty k = 0.361547
        24         7        25        46     9        0.000000        0.666169         3    ;  uncertainty k = 0.310982
        24         7        25        46     9      180.000000       -0.277846         4    ;  uncertainty k = 0.367736
        25        46        45        44     9        0.000000       -3.994294         1    ;  uncertainty k = 1.943999
        25        46        45        44     9      180.000000       -1.906263         2    ;  uncertainty k = 0.709298
        25        46        45        44     9        0.000000        0.687915         3    ;  uncertainty k = 0.180075
        25        46        45        44     9      180.000000        0.034163         4    ;  uncertainty k = 0.081397
        25        46        45        52     9        0.000000        1.434860         1    ;  uncertainty k = 0.637340
        25        46        45        52     9      180.000000       -2.674202         2    ;  uncertainty k = 0.364213
        25        46        45        52     9        0.000000        0.839044         3    ;  uncertainty k = 0.194402
        25        46        45        52     9      180.000000       -0.196011         4    ;  uncertainty k = 0.159798
        25        46        45        53     9        0.000000        1.434860         1    ;  uncertainty k = 0.637340
        25        46        45        53     9      180.000000       -2.674202         2    ;  uncertainty k = 0.364213
        25        46        45        53     9        0.000000        0.839044         3    ;  uncertainty k = 0.194402
        25        46        45        53     9      180.000000       -0.196011         4    ;  uncertainty k = 0.159798
        25        46        47        48     9        0.000000       -3.994294         1    ;  uncertainty k = 1.943999
        25        46        47        48     9      180.000000       -1.906263         2    ;  uncertainty k = 0.709298
        25        46        47        48     9        0.000000        0.687915         3    ;  uncertainty k = 0.180075
        25        46        47        48     9      180.000000        0.034163         4    ;  uncertainty k = 0.081397
        25        46        47        54     9        0.000000        1.434860         1    ;  uncertainty k = 0.637340
        25        46        47        54     9      180.000000       -2.674202         2    ;  uncertainty k = 0.364213
        25        46        47        54     9        0.000000        0.839044         3    ;  uncertainty k = 0.194402
        25        46        47        54     9      180.000000       -0.196011         4    ;  uncertainty k = 0.159798
        25        46        47        55     9        0.000000        1.434860         1    ;  uncertainty k = 0.637340
        25        46        47        55     9      180.000000       -2.674202         2    ;  uncertainty k = 0.364213
        25        46        47        55     9        0.000000        0.839044         3    ;  uncertainty k = 0.194402
        25        46        47        55     9      180.000000       -0.196011         4    ;  uncertainty k = 0.159798
        26         9        27        43     9        0.000000       12.476324         1    ;  uncertainty k = 0.688339
        26         9        27        43     9      180.000000       10.289759         2    ;  uncertainty k = 0.393329
        26         9        27        43     9        0.000000        1.210252         3    ;  uncertainty k = 0.562810
        26         9        27        43     9      180.000000       -0.543949         4    ;  uncertainty k = 0.169444
        26        16        25        46     9        0.000000        1.755014         1    ;  uncertainty k = 1.761644
        26        16        25        46     9      180.000000       11.650942         2    ;  uncertainty k = 0.332230
        26        16        25        46     9        0.000000        0.962653         3    ;  uncertainty k = 0.160835
        26        16        25        46     9      180.000000       -0.073906         4    ;  uncertainty k = 0.248371
        27        10         1        33     9        0.000000       -0.664477         1    ;  uncertainty k = 0.439753
        27        10         1        33     9      180.000000       -0.719545         2    ;  uncertainty k = 0.206247
        27        10         1        33     9        0.000000        1.110830         3    ;  uncertainty k = 0.090613
        27        10         1        33     9      180.000000       -0.312617         4    ;  uncertainty k = 0.084156
        27        10         1        34     9        0.000000       -0.664477         1    ;  uncertainty k = 0.439753
        27        10         1        34     9      180.000000       -0.719545         2    ;  uncertainty k = 0.206247
        27        10         1        34     9        0.000000        1.110830         3    ;  uncertainty k = 0.090613
        27        10         1        34     9      180.000000       -0.312617         4    ;  uncertainty k = 0.084156
        27        10         4        39     9        0.000000       -0.664477         1    ;  uncertainty k = 0.439753
        27        10         4        39     9      180.000000       -0.719545         2    ;  uncertainty k = 0.206247
        27        10         4        39     9        0.000000        1.110830         3    ;  uncertainty k = 0.090613
        27        10         4        39     9      180.000000       -0.312617         4    ;  uncertainty k = 0.084156
        27        10         4        40     9        0.000000       -0.664477         1    ;  uncertainty k = 0.439753
        27        10         4        40     9      180.000000       -0.719545         2    ;  uncertainty k = 0.206247
        27        10         4        40     9        0.000000        1.110830         3    ;  uncertainty k = 0.090613
        27        10         4        40     9      180.000000       -0.312617         4    ;  uncertainty k = 0.084156
        28        14        15        29     9        0.000000        0.032265         1    ;  uncertainty k = 0.250069
        28        14        15        29     9      180.000000        7.287468         2    ;  uncertainty k = 0.427630
        28        14        15        29     9        0.000000       -0.295849         3    ;  uncertainty k = 0.226115
        28        14        15        29     9      180.000000        0.117549         4    ;  uncertainty k = 0.137082
        33         1         2        35     9        0.000000       -0.225271         1    ;  uncertainty k = 0.371621
        33         1         2        35     9      180.000000        0.719911         2    ;  uncertainty k = 0.314572
        33         1         2        35     9        0.000000        0.112053         3    ;  uncertainty k = 0.052184
        33         1         2        35     9      180.000000       -0.321413         4    ;  uncertainty k = 0.066104
        33         1         2        36     9        0.000000       -0.225271         1    ;  uncertainty k = 0.371621
        33         1         2        36     9      180.000000        0.719911         2    ;  uncertainty k = 0.314572
        33         1         2        36     9        0.000000        0.112053         3    ;  uncertainty k = 0.052184
        33         1         2        36     9      180.000000       -0.321413         4    ;  uncertainty k = 0.066104
        33         1        10        41     9        0.000000        1.333899         1    ;  uncertainty k = 0.470364
        33         1        10        41     9      180.000000       -0.346033         2    ;  uncertainty k = 0.220492
        33         1        10        41     9        0.000000        0.040957         3    ;  uncertainty k = 0.124052
        33         1        10        41     9      180.000000        0.039296         4    ;  uncertainty k = 0.035575
        34         1         2        35     9        0.000000       -0.225271         1    ;  uncertainty k = 0.371621
        34         1         2        35     9      180.000000        0.719911         2    ;  uncertainty k = 0.314572
        34         1         2        35     9        0.000000        0.112053         3    ;  uncertainty k = 0.052184
        34         1         2        35     9      180.000000       -0.321413         4    ;  uncertainty k = 0.066104
        34         1         2        36     9        0.000000       -0.225271         1    ;  uncertainty k = 0.371621
        34         1         2        36     9      180.000000        0.719911         2    ;  uncertainty k = 0.314572
        34         1         2        36     9        0.000000        0.112053         3    ;  uncertainty k = 0.052184
        34         1         2        36     9      180.000000       -0.321413         4    ;  uncertainty k = 0.066104
        34         1        10        41     9        0.000000        1.333899         1    ;  uncertainty k = 0.470364
        34         1        10        41     9      180.000000       -0.346033         2    ;  uncertainty k = 0.220492
        34         1        10        41     9        0.000000        0.040957         3    ;  uncertainty k = 0.124052
        34         1        10        41     9      180.000000        0.039296         4    ;  uncertainty k = 0.035575
        37         3         4        39     9        0.000000       -0.225271         1    ;  uncertainty k = 0.371621
        37         3         4        39     9      180.000000        0.719911         2    ;  uncertainty k = 0.314572
        37         3         4        39     9        0.000000        0.112053         3    ;  uncertainty k = 0.052184
        37         3         4        39     9      180.000000       -0.321413         4    ;  uncertainty k = 0.066104
        37         3         4        40     9        0.000000       -0.225271         1    ;  uncertainty k = 0.371621
        37         3         4        40     9      180.000000        0.719911         2    ;  uncertainty k = 0.314572
        37         3         4        40     9        0.000000        0.112053         3    ;  uncertainty k = 0.052184
        37         3         4        40     9      180.000000       -0.321413         4    ;  uncertainty k = 0.066104
        38         3         4        39     9        0.000000       -0.225271         1    ;  uncertainty k = 0.371621
        38         3         4        39     9      180.000000        0.719911         2    ;  uncertainty k = 0.314572
        38         3         4        39     9        0.000000        0.112053         3    ;  uncertainty k = 0.052184
        38         3         4        39     9      180.000000       -0.321413         4    ;  uncertainty k = 0.066104
        38         3         4        40     9        0.000000       -0.225271         1    ;  uncertainty k = 0.371621
        38         3         4        40     9      180.000000        0.719911         2    ;  uncertainty k = 0.314572
        38         3         4        40     9        0.000000        0.112053         3    ;  uncertainty k = 0.052184
        38         3         4        40     9      180.000000       -0.321413         4    ;  uncertainty k = 0.066104
        39         4        10        41     9        0.000000        1.333899         1    ;  uncertainty k = 0.470364
        39         4        10        41     9      180.000000       -0.346033         2    ;  uncertainty k = 0.220492
        39         4        10        41     9        0.000000        0.040957         3    ;  uncertainty k = 0.124052
        39         4        10        41     9      180.000000        0.039296         4    ;  uncertainty k = 0.035575
        40         4        10        41     9        0.000000        1.333899         1    ;  uncertainty k = 0.470364
        40         4        10        41     9      180.000000       -0.346033         2    ;  uncertainty k = 0.220492
        40         4        10        41     9        0.000000        0.040957         3    ;  uncertainty k = 0.124052
        40         4        10        41     9      180.000000        0.039296         4    ;  uncertainty k = 0.035575
        41        10        27        43     9        0.000000        0.976343         1    ;  uncertainty k = 0.742026
        41        10        27        43     9      180.000000       -1.754256         2    ;  uncertainty k = 0.294903
        41        10        27        43     9        0.000000       -0.016582         3    ;  uncertainty k = 0.098589
        41        10        27        43     9      180.000000        0.124158         4    ;  uncertainty k = 0.074181
        42        46        45        44     9        0.000000       -2.316014         1    ;  uncertainty k = 0.482382
        42        46        45        44     9      180.000000       -0.172211         2    ;  uncertainty k = 0.412672
        42        46        45        44     9        0.000000        0.010152         3    ;  uncertainty k = 0.151995
        42        46        45        44     9      180.000000       -0.282882         4    ;  uncertainty k = 0.103205
        42        46        45        52     9        0.000000        0.742782         1    ;  uncertainty k = 0.165002
        42        46        45        52     9      180.000000       -0.116328         2    ;  uncertainty k = 0.213062
        42        46        45        52     9        0.000000        0.048044         3    ;  uncertainty k = 0.131664
        42        46        45        52     9      180.000000       -0.003725         4    ;  uncertainty k = 0.036297
        42        46        45        53     9        0.000000        0.742782         1    ;  uncertainty k = 0.165002
        42        46        45        53     9      180.000000       -0.116328         2    ;  uncertainty k = 0.213062
        42        46        45        53     9        0.000000        0.048044         3    ;  uncertainty k = 0.131664
        42        46        45        53     9      180.000000       -0.003725         4    ;  uncertainty k = 0.036297
        42        46        47        48     9        0.000000       -2.316014         1    ;  uncertainty k = 0.482382
        42        46        47        48     9      180.000000       -0.172211         2    ;  uncertainty k = 0.412672
        42        46        47        48     9        0.000000        0.010152         3    ;  uncertainty k = 0.151995
        42        46        47        48     9      180.000000       -0.282882         4    ;  uncertainty k = 0.103205
        42        46        47        54     9        0.000000        0.742782         1    ;  uncertainty k = 0.165002
        42        46        47        54     9      180.000000       -0.116328         2    ;  uncertainty k = 0.213062
        42        46        47        54     9        0.000000        0.048044         3    ;  uncertainty k = 0.131664
        42        46        47        54     9      180.000000       -0.003725         4    ;  uncertainty k = 0.036297
        42        46        47        55     9        0.000000        0.742782         1    ;  uncertainty k = 0.165002
        42        46        47        55     9      180.000000       -0.116328         2    ;  uncertainty k = 0.213062
        42        46        47        55     9        0.000000        0.048044         3    ;  uncertainty k = 0.131664
        42        46        47        55     9      180.000000       -0.003725         4    ;  uncertainty k = 0.036297
        44        45        46        47     9        0.000000       -5.095514         1    ;  uncertainty k = 1.045744
        44        45        46        47     9      180.000000        0.186162         2    ;  uncertainty k = 0.863412
        44        45        46        47     9        0.000000        1.055284         3    ;  uncertainty k = 0.175918
        44        45        46        47     9      180.000000       -1.298764         4    ;  uncertainty k = 0.195553
        44        49        48        47     9        0.000000       -4.589654         1    ;  uncertainty k = 1.832478
        44        49        48        47     9      180.000000        0.761932         2    ;  uncertainty k = 0.779774
        44        49        48        47     9        0.000000        0.534680         3    ;  uncertainty k = 0.308508
        44        49        48        47     9      180.000000       -0.668924         4    ;  uncertainty k = 0.219888
        44        49        48        56     9        0.000000       -6.050137         1    ;  uncertainty k = 0.490861
        44        49        48        56     9      180.000000        0.111381         2    ;  uncertainty k = 0.364549
        44        49        48        56     9        0.000000        0.706051         3    ;  uncertainty k = 0.200032
        44        49        48        56     9      180.000000        0.026942         4    ;  uncertainty k = 0.008970
        44        49        48        57     9        0.000000       -6.050137         1    ;  uncertainty k = 0.490861
        44        49        48        57     9      180.000000        0.111381         2    ;  uncertainty k = 0.364549
        44        49        48        57     9        0.000000        0.706051         3    ;  uncertainty k = 0.200032
        44        49        48        57     9      180.000000        0.026942         4    ;  uncertainty k = 0.008970
        44        49        58        59     9        0.000000        1.343010         1    ;  uncertainty k = 0.332870
        44        49        58        59     9      180.000000        2.376794         2    ;  uncertainty k = 0.475849
        44        49        58        59     9        0.000000        0.780901         3    ;  uncertainty k = 0.190340
        44        49        58        59     9      180.000000       -0.334723         4    ;  uncertainty k = 0.135409
        44        49        58        60     9        0.000000        1.343010         1    ;  uncertainty k = 0.332870
        44        49        58        60     9      180.000000        2.376794         2    ;  uncertainty k = 0.475849
        44        49        58        60     9        0.000000        0.780901         3    ;  uncertainty k = 0.190340
        44        49        58        60     9      180.000000       -0.334723         4    ;  uncertainty k = 0.135409
        44        49        58        61     9        0.000000       -6.701387         1    ;  uncertainty k = 0.456876
        44        49        58        61     9      180.000000       -2.779513         2    ;  uncertainty k = 0.635356
        44        49        58        61     9        0.000000       -0.078586         3    ;  uncertainty k = 0.424471
        44        49        58        61     9      180.000000       -0.244179         4    ;  uncertainty k = 0.156742
        45        44        49        48     9        0.000000       -4.589654         1    ;  uncertainty k = 1.832478
        45        44        49        48     9      180.000000        0.761932         2    ;  uncertainty k = 0.779774
        45        44        49        48     9        0.000000        0.534680         3    ;  uncertainty k = 0.308508
        45        44        49        48     9      180.000000       -0.668924         4    ;  uncertainty k = 0.219888
        45        44        49        58     9        0.000000       -7.410649         1    ;  uncertainty k = 1.068966
        45        44        49        58     9      180.000000       -1.826675         2    ;  uncertainty k = 0.596182
        45        44        49        58     9        0.000000       -0.183096         3    ;  uncertainty k = 0.355377
        45        44        49        58     9      180.000000       -0.787013         4    ;  uncertainty k = 0.176954
        45        46        47        48     9        0.000000       -5.095514         1    ;  uncertainty k = 1.045744
        45        46        47        48     9      180.000000        0.186162         2    ;  uncertainty k = 0.863412
        45        46        47        48     9        0.000000        1.055284         3    ;  uncertainty k = 0.175918
        45        46        47        48     9      180.000000       -1.298764         4    ;  uncertainty k = 0.195553
        45        46        47        54     9        0.000000       -1.513195         1    ;  uncertainty k = 0.313271
        45        46        47        54     9      180.000000       -0.201397         2    ;  uncertainty k = 0.082434
        45        46        47        54     9        0.000000        0.241546         3    ;  uncertainty k = 0.193472
        45        46        47        54     9      180.000000       -0.061902         4    ;  uncertainty k = 0.029730
        45        46        47        55     9        0.000000       -1.513195         1    ;  uncertainty k = 0.313271
        45        46        47        55     9      180.000000       -0.201397         2    ;  uncertainty k = 0.082434
        45        46        47        55     9        0.000000        0.241546         3    ;  uncertainty k = 0.193472
        45        46        47        55     9      180.000000       -0.061902         4    ;  uncertainty k = 0.029730
        46        45        44        49     9        0.000000        1.520643         1    ;  uncertainty k = 0.713750
        46        45        44        49     9      180.000000       -5.124406         2    ;  uncertainty k = 0.792981
        46        45        44        49     9        0.000000        2.106071         3    ;  uncertainty k = 0.403504
        46        45        44        49     9      180.000000       -0.416391         4    ;  uncertainty k = 0.215117
        46        45        44        50     9        0.000000        3.239531         1    ;  uncertainty k = 0.783540
        46        45        44        50     9      180.000000       -2.580936         2    ;  uncertainty k = 0.274508
        46        45        44        50     9        0.000000       -0.248070         3    ;  uncertainty k = 0.214353
        46        45        44        50     9      180.000000        0.347385         4    ;  uncertainty k = 0.115608
        46        45        44        51     9        0.000000        3.239531         1    ;  uncertainty k = 0.783540
        46        45        44        51     9      180.000000       -2.580936         2    ;  uncertainty k = 0.274508
        46        45        44        51     9        0.000000       -0.248070         3    ;  uncertainty k = 0.214353
        46        45        44        51     9      180.000000        0.347385         4    ;  uncertainty k = 0.115608
        46        47        48        49     9        0.000000        1.520643         1    ;  uncertainty k = 0.713750
        46        47        48        49     9      180.000000       -5.124406         2    ;  uncertainty k = 0.792981
        46        47        48        49     9        0.000000        2.106071         3    ;  uncertainty k = 0.403504
        46        47        48        49     9      180.000000       -0.416391         4    ;  uncertainty k = 0.215117
        46        47        48        56     9        0.000000        3.239531         1    ;  uncertainty k = 0.783540
        46        47        48        56     9      180.000000       -2.580936         2    ;  uncertainty k = 0.274508
        46        47        48        56     9        0.000000       -0.248070         3    ;  uncertainty k = 0.214353
        46        47        48        56     9      180.000000        0.347385         4    ;  uncertainty k = 0.115608
        46        47        48        57     9        0.000000        3.239531         1    ;  uncertainty k = 0.783540
        46        47        48        57     9      180.000000       -2.580936         2    ;  uncertainty k = 0.274508
        46        47        48        57     9        0.000000       -0.248070         3    ;  uncertainty k = 0.214353
        46        47        48        57     9      180.000000        0.347385         4    ;  uncertainty k = 0.115608
        47        46        45        52     9        0.000000       -1.513195         1    ;  uncertainty k = 0.313271
        47        46        45        52     9      180.000000       -0.201397         2    ;  uncertainty k = 0.082434
        47        46        45        52     9        0.000000        0.241546         3    ;  uncertainty k = 0.193472
        47        46        45        52     9      180.000000       -0.061902         4    ;  uncertainty k = 0.029730
        47        46        45        53     9        0.000000       -1.513195         1    ;  uncertainty k = 0.313271
        47        46        45        53     9      180.000000       -0.201397         2    ;  uncertainty k = 0.082434
        47        46        45        53     9        0.000000        0.241546         3    ;  uncertainty k = 0.193472
        47        46        45        53     9      180.000000       -0.061902         4    ;  uncertainty k = 0.029730
        47        48        49        58     9        0.000000       -7.410649         1    ;  uncertainty k = 1.068966
        47        48        49        58     9      180.000000       -1.826675         2    ;  uncertainty k = 0.596182
        47        48        49        58     9        0.000000       -0.183096         3    ;  uncertainty k = 0.355377
        47        48        49        58     9      180.000000       -0.787013         4    ;  uncertainty k = 0.176954
        48        49        44        50     9        0.000000       -6.050137         1    ;  uncertainty k = 0.490861
        48        49        44        50     9      180.000000        0.111381         2    ;  uncertainty k = 0.364549
        48        49        44        50     9        0.000000        0.706051         3    ;  uncertainty k = 0.200032
        48        49        44        50     9      180.000000        0.026942         4    ;  uncertainty k = 0.008970
        48        49        44        51     9        0.000000       -6.050137         1    ;  uncertainty k = 0.490861
        48        49        44        51     9      180.000000        0.111381         2    ;  uncertainty k = 0.364549
        48        49        44        51     9        0.000000        0.706051         3    ;  uncertainty k = 0.200032
        48        49        44        51     9      180.000000        0.026942         4    ;  uncertainty k = 0.008970
        48        49        58        59     9        0.000000        1.343010         1    ;  uncertainty k = 0.332870
        48        49        58        59     9      180.000000        2.376794         2    ;  uncertainty k = 0.475849
        48        49        58        59     9        0.000000        0.780901         3    ;  uncertainty k = 0.190340
        48        49        58        59     9      180.000000       -0.334723         4    ;  uncertainty k = 0.135409
        48        49        58        60     9        0.000000        1.343010         1    ;  uncertainty k = 0.332870
        48        49        58        60     9      180.000000        2.376794         2    ;  uncertainty k = 0.475849
        48        49        58        60     9        0.000000        0.780901         3    ;  uncertainty k = 0.190340
        48        49        58        60     9      180.000000       -0.334723         4    ;  uncertainty k = 0.135409
        48        49        58        61     9        0.000000       -6.701387         1    ;  uncertainty k = 0.456876
        48        49        58        61     9      180.000000       -2.779513         2    ;  uncertainty k = 0.635356
        48        49        58        61     9        0.000000       -0.078586         3    ;  uncertainty k = 0.424471
        48        49        58        61     9      180.000000       -0.244179         4    ;  uncertainty k = 0.156742
        49        44        45        52     9        0.000000       -0.818294         1    ;  uncertainty k = 0.327721
        49        44        45        52     9      180.000000       -0.117945         2    ;  uncertainty k = 0.463485
        49        44        45        52     9        0.000000        0.853663         3    ;  uncertainty k = 0.150596
        49        44        45        52     9      180.000000       -0.278428         4    ;  uncertainty k = 0.206714
        49        44        45        53     9        0.000000       -0.818294         1    ;  uncertainty k = 0.327721
        49        44        45        53     9      180.000000       -0.117945         2    ;  uncertainty k = 0.463485
        49        44        45        53     9        0.000000        0.853663         3    ;  uncertainty k = 0.150596
        49        44        45        53     9      180.000000       -0.278428         4    ;  uncertainty k = 0.206714
        49        48        47        54     9        0.000000       -0.818294         1    ;  uncertainty k = 0.327721
        49        48        47        54     9      180.000000       -0.117945         2    ;  uncertainty k = 0.463485
        49        48        47        54     9        0.000000        0.853663         3    ;  uncertainty k = 0.150596
        49        48        47        54     9      180.000000       -0.278428         4    ;  uncertainty k = 0.206714
        49        48        47        55     9        0.000000       -0.818294         1    ;  uncertainty k = 0.327721
        49        48        47        55     9      180.000000       -0.117945         2    ;  uncertainty k = 0.463485
        49        48        47        55     9        0.000000        0.853663         3    ;  uncertainty k = 0.150596
        49        48        47        55     9      180.000000       -0.278428         4    ;  uncertainty k = 0.206714
        49        58        61        62     9        0.000000        1.296950         1    ;  uncertainty k = 1.279702
        49        58        61        62     9      180.000000       -1.680453         2    ;  uncertainty k = 0.325343
        49        58        61        62     9        0.000000        0.248291         3    ;  uncertainty k = 0.149727
        49        58        61        62     9      180.000000        0.016425         4    ;  uncertainty k = 0.119290
        49        58        61        63     9        0.000000        1.296950         1    ;  uncertainty k = 1.279702
        49        58        61        63     9      180.000000       -1.680453         2    ;  uncertainty k = 0.325343
        49        58        61        63     9        0.000000        0.248291         3    ;  uncertainty k = 0.149727
        49        58        61        63     9      180.000000        0.016425         4    ;  uncertainty k = 0.119290
        49        58        61        64     9        0.000000        1.296950         1    ;  uncertainty k = 1.279702
        49        58        61        64     9      180.000000       -1.680453         2    ;  uncertainty k = 0.325343
        49        58        61        64     9        0.000000        0.248291         3    ;  uncertainty k = 0.149727
        49        58        61        64     9      180.000000        0.016425         4    ;  uncertainty k = 0.119290
        50        44        45        52     9        0.000000       -0.161864         1    ;  uncertainty k = 0.328931
        50        44        45        52     9      180.000000        0.534209         2    ;  uncertainty k = 0.310638
        50        44        45        52     9        0.000000        0.087481         3    ;  uncertainty k = 0.094297
        50        44        45        52     9      180.000000       -0.263471         4    ;  uncertainty k = 0.090751
        50        44        45        53     9        0.000000       -0.161864         1    ;  uncertainty k = 0.328931
        50        44        45        53     9      180.000000        0.534209         2    ;  uncertainty k = 0.310638
        50        44        45        53     9        0.000000        0.087481         3    ;  uncertainty k = 0.094297
        50        44        45        53     9      180.000000       -0.263471         4    ;  uncertainty k = 0.090751
        50        44        49        58     9        0.000000        0.197914         1    ;  uncertainty k = 0.550701
        50        44        49        58     9      180.000000       -3.123045         2    ;  uncertainty k = 0.322729
        50        44        49        58     9        0.000000       -0.416988         3    ;  uncertainty k = 0.130140
        50        44        49        58     9      180.000000        0.222500         4    ;  uncertainty k = 0.073101
        51        44        45        52     9        0.000000       -0.161864         1    ;  uncertainty k = 0.328931
        51        44        45        52     9      180.000000        0.534209         2    ;  uncertainty k = 0.310638
        51        44        45        52     9        0.000000        0.087481         3    ;  uncertainty k = 0.094297
        51        44        45        52     9      180.000000       -0.263471         4    ;  uncertainty k = 0.090751
        51        44        45        53     9        0.000000       -0.161864         1    ;  uncertainty k = 0.328931
        51        44        45        53     9      180.000000        0.534209         2    ;  uncertainty k = 0.310638
        51        44        45        53     9        0.000000        0.087481         3    ;  uncertainty k = 0.094297
        51        44        45        53     9      180.000000       -0.263471         4    ;  uncertainty k = 0.090751
        51        44        49        58     9        0.000000        0.197914         1    ;  uncertainty k = 0.550701
        51        44        49        58     9      180.000000       -3.123045         2    ;  uncertainty k = 0.322729
        51        44        49        58     9        0.000000       -0.416988         3    ;  uncertainty k = 0.130140
        51        44        49        58     9      180.000000        0.222500         4    ;  uncertainty k = 0.073101
        54        47        48        56     9        0.000000       -0.161864         1    ;  uncertainty k = 0.328931
        54        47        48        56     9      180.000000        0.534209         2    ;  uncertainty k = 0.310638
        54        47        48        56     9        0.000000        0.087481         3    ;  uncertainty k = 0.094297
        54        47        48        56     9      180.000000       -0.263471         4    ;  uncertainty k = 0.090751
        54        47        48        57     9        0.000000       -0.161864         1    ;  uncertainty k = 0.328931
        54        47        48        57     9      180.000000        0.534209         2    ;  uncertainty k = 0.310638
        54        47        48        57     9        0.000000        0.087481         3    ;  uncertainty k = 0.094297
        54        47        48        57     9      180.000000       -0.263471         4    ;  uncertainty k = 0.090751
        55        47        48        56     9        0.000000       -0.161864         1    ;  uncertainty k = 0.328931
        55        47        48        56     9      180.000000        0.534209         2    ;  uncertainty k = 0.310638
        55        47        48        56     9        0.000000        0.087481         3    ;  uncertainty k = 0.094297
        55        47        48        56     9      180.000000       -0.263471         4    ;  uncertainty k = 0.090751
        55        47        48        57     9        0.000000       -0.161864         1    ;  uncertainty k = 0.328931
        55        47        48        57     9      180.000000        0.534209         2    ;  uncertainty k = 0.310638
        55        47        48        57     9        0.000000        0.087481         3    ;  uncertainty k = 0.094297
        55        47        48        57     9      180.000000       -0.263471         4    ;  uncertainty k = 0.090751
        56        48        49        58     9        0.000000        0.197914         1    ;  uncertainty k = 0.550701
        56        48        49        58     9      180.000000       -3.123045         2    ;  uncertainty k = 0.322729
        56        48        49        58     9        0.000000       -0.416988         3    ;  uncertainty k = 0.130140
        56        48        49        58     9      180.000000        0.222500         4    ;  uncertainty k = 0.073101
        57        48        49        58     9        0.000000        0.197914         1    ;  uncertainty k = 0.550701
        57        48        49        58     9      180.000000       -3.123045         2    ;  uncertainty k = 0.322729
        57        48        49        58     9        0.000000       -0.416988         3    ;  uncertainty k = 0.130140
        57        48        49        58     9      180.000000        0.222500         4    ;  uncertainty k = 0.073101
        59        58        61        62     9        0.000000        0.154912         1    ;  uncertainty k = 0.731258
        59        58        61        62     9      180.000000       -0.339597         2    ;  uncertainty k = 0.391768
        59        58        61        62     9        0.000000        0.664765         3    ;  uncertainty k = 0.078046
        59        58        61        62     9      180.000000        0.046399         4    ;  uncertainty k = 0.112363
        59        58        61        63     9        0.000000        0.154912         1    ;  uncertainty k = 0.731258
        59        58        61        63     9      180.000000       -0.339597         2    ;  uncertainty k = 0.391768
        59        58        61        63     9        0.000000        0.664765         3    ;  uncertainty k = 0.078046
        59        58        61        63     9      180.000000        0.046399         4    ;  uncertainty k = 0.112363
        59        58        61        64     9        0.000000        0.154912         1    ;  uncertainty k = 0.731258
        59        58        61        64     9      180.000000       -0.339597         2    ;  uncertainty k = 0.391768
        59        58        61        64     9        0.000000        0.664765         3    ;  uncertainty k = 0.078046
        59        58        61        64     9      180.000000        0.046399         4    ;  uncertainty k = 0.112363
        60        58        61        62     9        0.000000        0.154912         1    ;  uncertainty k = 0.731258
        60        58        61        62     9      180.000000       -0.339597         2    ;  uncertainty k = 0.391768
        60        58        61        62     9        0.000000        0.664765         3    ;  uncertainty k = 0.078046
        60        58        61        62     9      180.000000        0.046399         4    ;  uncertainty k = 0.112363
        60        58        61        63     9        0.000000        0.154912         1    ;  uncertainty k = 0.731258
        60        58        61        63     9      180.000000       -0.339597         2    ;  uncertainty k = 0.391768
        60        58        61        63     9        0.000000        0.664765         3    ;  uncertainty k = 0.078046
        60        58        61        63     9      180.000000        0.046399         4    ;  uncertainty k = 0.112363
        60        58        61        64     9        0.000000        0.154912         1    ;  uncertainty k = 0.731258
        60        58        61        64     9      180.000000       -0.339597         2    ;  uncertainty k = 0.391768
        60        58        61        64     9        0.000000        0.664765         3    ;  uncertainty k = 0.078046
        60        58        61        64     9      180.000000        0.046399         4    ;  uncertainty k = 0.112363

[ dihedrals ] ; impropers
;       ai        aj        ak        al funct           phase               k        pn
         5         8        13        30     4      180.000000        1.109680         2    ;  uncertainty k = 0.271256
         5        13        30         8     4      180.000000        1.109680         2    ;  uncertainty k = 0.271256
         5        30         8        13     4      180.000000        1.109680         2    ;  uncertainty k = 0.271256
         7        18        24        25     4      180.000000       49.441727         2    ;  uncertainty k = 0.028471
         7        24        25        18     4      180.000000       49.441727         2    ;  uncertainty k = 0.028471
         7        25        18        24     4      180.000000       49.441727         2    ;  uncertainty k = 0.028471
         8         5        19        20     4      180.000000       14.318672         2    ;  uncertainty k = 0.052158
         8        19        20         5     4      180.000000       14.318672         2    ;  uncertainty k = 0.052158
         8        20         5        19     4      180.000000       14.318672         2    ;  uncertainty k = 0.052158
         9        23        26        27     4      180.000000       45.985130         2    ;  uncertainty k = 0.103585
         9        26        27        23     4      180.000000       45.985130         2    ;  uncertainty k = 0.103585
         9        27        23        26     4      180.000000       45.985130         2    ;  uncertainty k = 0.103585
        11        12        16        17     4      180.000000        4.102417         2    ;  uncertainty k = 0.565368
        11        16        17        12     4      180.000000        4.102417         2    ;  uncertainty k = 0.565368
        11        17        12        16     4      180.000000        4.102417         2    ;  uncertainty k = 0.565368
        12        11        18        31     4      180.000000        7.394622         2    ;  uncertainty k = 0.362135
        12        18        31        11     4      180.000000        7.394622         2    ;  uncertainty k = 0.362135
        12        31        11        18     4      180.000000        7.394622         2    ;  uncertainty k = 0.362135
        13         5        14        21     4      180.000000       17.110314         2    ;  uncertainty k = 0.053382
        13        14        21         5     4      180.000000       17.110314         2    ;  uncertainty k = 0.053382
        13        21         5        14     4      180.000000       17.110314         2    ;  uncertainty k = 0.053382
        14        13        15        28     4      180.000000        2.090574         2    ;  uncertainty k = 0.191083
        14        15        28        13     4      180.000000        2.090574         2    ;  uncertainty k = 0.191083
        14        28        13        15     4      180.000000        2.090574         2    ;  uncertainty k = 0.191083
        15        14        19        29     4      180.000000        3.395592         2    ;  uncertainty k = 0.158338
        15        19        29        14     4      180.000000        3.395592         2    ;  uncertainty k = 0.158338
        15        29        14        19     4      180.000000        3.395592         2    ;  uncertainty k = 0.158338
        16        11        25        26     4      180.000000       30.642925         2    ;  uncertainty k = 0.067159
        16        25        26        11     4      180.000000       30.642925         2    ;  uncertainty k = 0.067159
        16        26        11        25     4      180.000000       30.642925         2    ;  uncertainty k = 0.067159
        17        11        23        32     4      180.000000       16.796632         2    ;  uncertainty k = 0.067162
        17        23        32        11     4      180.000000       16.796632         2    ;  uncertainty k = 0.067162
        17        32        11        23     4      180.000000       16.796632         2    ;  uncertainty k = 0.067162
        18         7        12        22     4      180.000000       13.401868         2    ;  uncertainty k = 0.269563
        18        12        22         7     4      180.000000       13.401868         2    ;  uncertainty k = 0.269563
        18        22         7        12     4      180.000000       13.401868         2    ;  uncertainty k = 0.269563
        19         8        15        22     4      180.000000       11.909482         2    ;  uncertainty k = 0.190313
        19        15        22         8     4      180.000000       11.909482         2    ;  uncertainty k = 0.190313
        19        22         8        15     4      180.000000       11.909482         2    ;  uncertainty k = 0.190313
        25         7        16        46     4      180.000000        5.801288         2    ;  uncertainty k = 0.456824
        25        16        46         7     4      180.000000        5.801288         2    ;  uncertainty k = 0.456824
        25        46         7        16     4      180.000000        5.801288         2    ;  uncertainty k = 0.456824
        27         9        10        43     4      180.000000        0.699860         2    ;  uncertainty k = 0.796069
        27        10        43         9     4      180.000000        0.699860         2    ;  uncertainty k = 0.796069
        27        43         9        10     4      180.000000        0.699860         2    ;  uncertainty k = 0.796069

[ pairs ]
;       ai        aj funct
         1         3     1
         1         9     1
         1        39     1
         1        40     1
         1        43     1
         2         4     1
         2        27     1
         2        37     1
         2        38     1
         2        41     1
         3        27     1
         3        35     1
         3        36     1
         3        41     1
         4         9     1
         4        33     1
         4        34     1
         4        43     1
         5        15     1
         5        22     1
         5        28     1
         6        10     1
         6        33     1
         6        34     1
         6        39     1
         6        40     1
         7        11     1
         7        19     1
         7        26     1
         7        31     1
         7        42     1
         7        45     1
         7        47     1
         8        14     1
         8        18     1
         8        21     1
         8        29     1
         9        11     1
         9        25     1
         9        32     1
         9        41     1
        10        23     1
        10        26     1
        10        35     1
        10        36     1
        10        37     1
        10        38     1
        11        22     1
        11        46     1
        12        19     1
        12        23     1
        12        24     1
        12        25     1
        12        26     1
        12        32     1
        13        19     1
        13        20     1
        13        29     1
        14        22     1
        14        30     1
        15        18     1
        15        20     1
        15        21     1
        16        18     1
        16        23     1
        16        24     1
        16        27     1
        16        31     1
        16        32     1
        16        42     1
        16        45     1
        16        47     1
        17        18     1
        17        25     1
        17        26     1
        17        27     1
        17        31     1
        18        46     1
        19        28     1
        19        30     1
        20        22     1
        20        30     1
        21        28     1
        21        30     1
        22        24     1
        22        25     1
        22        29     1
        22        31     1
        23        43     1
        24        46     1
        25        44     1
        25        48     1
        25        52     1
        25        53     1
        25        54     1
        25        55     1
        26        43     1
        26        46     1
        27        33     1
        27        34     1
        27        39     1
        27        40     1
        28        29     1
        33        35     1
        33        36     1
        33        41     1
        34        35     1
        34        36     1
        34        41     1
        37        39     1
        37        40     1
        38        39     1
        38        40     1
        39        41     1
        40        41     1
        41        43     1
        42        44     1
        42        48     1
        42        52     1
        42        53     1
        42        54     1
        42        55     1
        44        47     1
        44        56     1
        44        57     1
        44        59     1
        44        60     1
        44        61     1
        45        48     1
        45        54     1
        45        55     1
        45        58     1
        46        49     1
        46        50     1
        46        51     1
        46        56     1
        46        57     1
        47        52     1
        47        53     1
        47        58     1
        48        50     1
        48        51     1
        48        59     1
        48        60     1
        48        61     1
        49        52     1
        49        53     1
        49        54     1
        49        55     1
        49        62     1
        49        63     1
        49        64     1
        50        52     1
        50        53     1
        50        58     1
        51        52     1
        51        53     1
        51        58     1
        54        56     1
        54        57     1
        55        56     1
        55        57     1
        56        58     1
        57        58     1
        59        62     1
        59        63     1
        59        64     1
        60        62     1
        60        63     1
        60        64     1
