; ITP file created by ByteFF-joint-25, 2026-02-17 09:23:24.298177

[ atomtypes ]
;name           bonded.type        at.num        mass        charge   ptype           sigma         epsilon
 c0bf                                   6      0.0000       0.00000       A     3.31526e-01     4.13477e-01    ;  uncertainty sigma = 0.000006, epsilon = 0.000754
 c1bf                                   6      0.0000       0.00000       A     3.31559e-01     4.13635e-01    ;  uncertainty sigma = 0.000021, epsilon = 0.001225
 c2bf                                   6      0.0000       0.00000       A     3.31525e-01     4.12996e-01    ;  uncertainty sigma = 0.000006, epsilon = 0.000558
 c3bf                                   6      0.0000       0.00000       A     3.31532e-01     4.13835e-01    ;  uncertainty sigma = 0.000019, epsilon = 0.001068
 c4bf                                   6      0.0000       0.00000       A     3.39757e-01     4.51232e-01    ;  uncertainty sigma = 0.000013, epsilon = 0.000897
 c5bf                                   6      0.0000       0.00000       A     3.31556e-01     4.13425e-01    ;  uncertainty sigma = 0.000018, epsilon = 0.000830
 c6bf                                   6      0.0000       0.00000       A     3.31522e-01     4.12958e-01    ;  uncertainty sigma = 0.000012, epsilon = 0.001253
 c7bf                                   6      0.0000       0.00000       A     3.31521e-01     4.13309e-01    ;  uncertainty sigma = 0.000005, epsilon = 0.000623
 c8bf                                   6      0.0000       0.00000       A     3.31522e-01     4.13402e-01    ;  uncertainty sigma = 0.000004, epsilon = 0.000568
 c9bf                                   6      0.0000       0.00000       A     3.31532e-01     4.13487e-01    ;  uncertainty sigma = 0.000005, epsilon = 0.000789
 c10bf                                  6      0.0000       0.00000       A     3.31528e-01     4.12870e-01    ;  uncertainty sigma = 0.000017, epsilon = 0.001780
 c11bf                                  6      0.0000       0.00000       A     3.31542e-01     4.13625e-01    ;  uncertainty sigma = 0.000007, epsilon = 0.001343
 c12bf                                  6      0.0000       0.00000       A     3.31529e-01     4.13581e-01    ;  uncertainty sigma = 0.000019, epsilon = 0.001027
 c13bf                                  6      0.0000       0.00000       A     3.31544e-01     4.13185e-01    ;  uncertainty sigma = 0.000012, epsilon = 0.000998
 c14bf                                  6      0.0000       0.00000       A     3.39766e-01     4.51313e-01    ;  uncertainty sigma = 0.000006, epsilon = 0.000602
 f15bf                                  9      0.0000       0.00000       A     3.03401e-01     3.48403e-01    ;  uncertainty sigma = 0.000015, epsilon = 0.000906
 f16bf                                  9      0.0000       0.00000       A     3.03426e-01     3.47978e-01    ;  uncertainty sigma = 0.000008, epsilon = 0.000768
 o17bf                                  8      0.0000       0.00000       A     3.15661e-01     3.03543e-01    ;  uncertainty sigma = 0.000052, epsilon = 0.003674
 n18bf                                  7      0.0000       0.00000       A     3.38408e-01     3.93343e-01    ;  uncertainty sigma = 0.000023, epsilon = 0.001068
 o19bf                                  8      0.0000       0.00000       A     3.04803e-01     6.11515e-01    ;  uncertainty sigma = 0.000019, epsilon = 0.000440
 n20bf                                  7      0.0000       0.00000       A     3.18128e-01     6.83563e-01    ;  uncertainty sigma = 0.000031, epsilon = 0.001981
 n21bf                                  7      0.0000       0.00000       A     3.38430e-01     3.92889e-01    ;  uncertainty sigma = 0.000051, epsilon = 0.001139
 n22bf                                  7      0.0000       0.00000       A     3.27892e-01     6.46452e-01    ;  uncertainty sigma = 0.000038, epsilon = 0.002817
 h23bf                                  1      0.0000       0.00000       A     2.62564e-01     6.70554e-02    ;  uncertainty sigma = 0.000012, epsilon = 0.000465
 h24bf                                  1      0.0000       0.00000       A     2.62548e-01     6.71486e-02    ;  uncertainty sigma = 0.000008, epsilon = 0.000492
 h25bf                                  1      0.0000       0.00000       A     2.62562e-01     6.73680e-02    ;  uncertainty sigma = 0.000008, epsilon = 0.000365
 h26bf                                  1      0.0000       0.00000       A     2.62521e-01     6.67593e-02    ;  uncertainty sigma = 0.000018, epsilon = 0.000881
 h27bf                                  1      0.0000       0.00000       A     2.53663e-01     6.71784e-02    ;  uncertainty sigma = 0.000041, epsilon = 0.000925
 h28bf                                  1      0.0000       0.00000       A     2.42211e-01     8.68527e-02    ;  uncertainty sigma = 0.000006, epsilon = 0.000473
 h29bf                                  1      0.0000       0.00000       A     2.42206e-01     8.67704e-02    ;  uncertainty sigma = 0.000014, epsilon = 0.000617
 h30bf                                  1      0.0000       0.00000       A     2.42206e-01     8.67704e-02    ;  uncertainty sigma = 0.000014, epsilon = 0.000617
 h31bf                                  1      0.0000       0.00000       A     2.42206e-01     8.67704e-02    ;  uncertainty sigma = 0.000014, epsilon = 0.000617
 h32bf                                  1      0.0000       0.00000       A     1.10673e-01     4.15780e-02    ;  uncertainty sigma = 0.000092, epsilon = 0.001078
 h33bf                                  1      0.0000       0.00000       A     2.42211e-01     8.68528e-02    ;  uncertainty sigma = 0.000006, epsilon = 0.000473
 h34bf                                  1      0.0000       0.00000       A     2.42211e-01     8.68528e-02    ;  uncertainty sigma = 0.000006, epsilon = 0.000473

[ moleculetype ]
;name             nrexcl
 MOL                   3

[ atoms ]
;       nr            type      resi   res      atom      cgnr      charge          mass ; qtot
         1            c0bf         1   UNL        c0         1    -0.19164       12.0110 ; qtot   -0.192
         2            c1bf         1   UNL        c1         2     0.70215       12.0110 ; qtot    0.511
         3            c2bf         1   UNL        c2         3     0.14567       12.0110 ; qtot    0.656
         4            c3bf         1   UNL        c3         4     0.91294       12.0110 ; qtot    1.569
         5            c4bf         1   UNL        c4         5     0.21807       12.0110 ; qtot    1.787
         6            c5bf         1   UNL        c5         6    -0.40938       12.0110 ; qtot    1.378
         7            c6bf         1   UNL        c6         7    -0.04643       12.0110 ; qtot    1.331
         8            c7bf         1   UNL        c7         8     0.14413       12.0110 ; qtot    1.476
         9            c8bf         1   UNL        c8         9    -0.16248       12.0110 ; qtot    1.313
        10            c9bf         1   UNL        c9        10    -0.09069       12.0110 ; qtot    1.222
        11           c10bf         1   UNL       c10        11     0.63423       12.0110 ; qtot    1.857
        12           c11bf         1   UNL       c11        12     0.51874       12.0110 ; qtot    2.375
        13           c12bf         1   UNL       c12        13     0.00526       12.0110 ; qtot    2.381
        14           c13bf         1   UNL       c13        14     0.04787       12.0110 ; qtot    2.428
        15           c14bf         1   UNL       c14        15     0.08273       12.0110 ; qtot    2.511
        16           f15bf         1   UNL       f15        16    -0.12685       18.9980 ; qtot    2.384
        17           f16bf         1   UNL       f16        17    -0.13805       18.9980 ; qtot    2.246
        18           o17bf         1   UNL       o17        18    -0.21020       15.9990 ; qtot    2.036
        19           n18bf         1   UNL       n18        19    -0.76578       14.0070 ; qtot    1.270
        20           o19bf         1   UNL       o19        20    -0.58915       15.9990 ; qtot    0.681
        21           n20bf         1   UNL       n20        21    -0.43964       14.0070 ; qtot    0.242
        22           n21bf         1   UNL       n21        22    -0.82691       14.0070 ; qtot   -0.585
        23           n22bf         1   UNL       n22        23    -0.86071       14.0070 ; qtot   -1.446
        24           h23bf         1   UNL       h23        24     0.16075        1.0080 ; qtot   -1.285
        25           h24bf         1   UNL       h24        25     0.15721        1.0080 ; qtot   -1.128
        26           h25bf         1   UNL       h25        26     0.17297        1.0080 ; qtot   -0.955
        27           h26bf         1   UNL       h26        27     0.16397        1.0080 ; qtot   -0.791
        28           h27bf         1   UNL       h27        28     0.02899        1.0080 ; qtot   -0.762
        29           h28bf         1   UNL       h28        29     0.04284        1.0080 ; qtot   -0.719
        30           h29bf         1   UNL       h29        30     0.06256        1.0080 ; qtot   -0.657
        31           h30bf         1   UNL       h30        31     0.06256        1.0080 ; qtot   -0.594
        32           h31bf         1   UNL       h31        32     0.06256        1.0080 ; qtot   -0.532
        33           h32bf         1   UNL       h32        33     0.44605        1.0080 ; qtot   -0.086
        34           h33bf         1   UNL       h33        34     0.04284        1.0080 ; qtot   -0.043
        35           h34bf         1   UNL       h34        35     0.04282        1.0080 ; qtot    0.000

[ bonds ]
;       ai        aj funct               r               k
         1         3     1        0.138747   361176.981592    ;  uncertainty r = 0.000032, k = 2.643588
         1         8     1        0.139007   367691.396045    ;  uncertainty r = 0.000031, k = 2.749259
         1        26     1        0.108780   338576.282275    ;  uncertainty r = 0.000013, k = 1.210229
         2        13     1        0.146503   257020.024902    ;  uncertainty r = 0.000082, k = 22.735486
         2        20     1        0.123258   653165.506641    ;  uncertainty r = 0.000088, k = 12.275836
         2        21     1        0.140996   234604.673926    ;  uncertainty r = 0.000190, k = 47.108476
         3        14     1        0.139121   358077.006348    ;  uncertainty r = 0.000040, k = 4.650811
         3        16     1        0.134764   340072.935645    ;  uncertainty r = 0.000045, k = 2.589505
         4        19     1        0.136650   539029.847852    ;  uncertainty r = 0.000209, k = 25.897573
         4        22     1        0.135528   628394.306250    ;  uncertainty r = 0.000242, k = 26.367156
         4        23     1        0.137930   629493.729883    ;  uncertainty r = 0.000159, k = 20.868474
         5        23     1        0.145255   284667.010254    ;  uncertainty r = 0.000129, k = 14.025333
         5        29     1        0.109454   310547.951270    ;  uncertainty r = 0.000031, k = 1.428333
         5        34     1        0.109454   310547.951270    ;  uncertainty r = 0.000031, k = 1.428339
         5        35     1        0.109454   310547.951270    ;  uncertainty r = 0.000031, k = 1.428339
         6         7     1        0.142625   274730.520996    ;  uncertainty r = 0.000027, k = 25.477082
         6        11     1        0.142280   412579.914014    ;  uncertainty r = 0.000160, k = 19.583959
         6        12     1        0.140432   398244.734277    ;  uncertainty r = 0.000184, k = 14.574911
         7        13     1        0.135447   409330.597754    ;  uncertainty r = 0.000069, k = 14.135389
         7        27     1        0.108670   334774.368506    ;  uncertainty r = 0.000042, k = 1.864898
         8         9     1        0.138905   362175.303809    ;  uncertainty r = 0.000027, k = 1.862514
         8        17     1        0.135460   342148.081152    ;  uncertainty r = 0.000038, k = 2.796473
         9        10     1        0.139206   376188.256299    ;  uncertainty r = 0.000034, k = 0.837546
         9        24     1        0.108734   335618.242285    ;  uncertainty r = 0.000017, k = 1.062658
        10        14     1        0.139238   351219.092236    ;  uncertainty r = 0.000057, k = 2.910415
        10        25     1        0.108702   335466.041113    ;  uncertainty r = 0.000027, k = 2.133558
        11        21     1        0.137847   263258.536426    ;  uncertainty r = 0.000203, k = 9.254079
        11        22     1        0.133942   451590.172461    ;  uncertainty r = 0.000181, k = 13.610533
        12        19     1        0.133352   405454.447607    ;  uncertainty r = 0.000059, k = 11.108173
        12        28     1        0.108932   329309.656934    ;  uncertainty r = 0.000040, k = 1.993682
        13        18     1        0.136126   317771.250342    ;  uncertainty r = 0.000057, k = 7.847730
        14        18     1        0.138160   312130.434863    ;  uncertainty r = 0.000116, k = 5.846346
        15        21     1        0.146434   260871.327441    ;  uncertainty r = 0.000086, k = 13.117193
        15        30     1        0.109141   308405.898535    ;  uncertainty r = 0.000010, k = 1.505453
        15        31     1        0.109141   308405.898535    ;  uncertainty r = 0.000010, k = 1.505453
        15        32     1        0.109141   308405.898535    ;  uncertainty r = 0.000010, k = 1.505453
        23        33     1        0.101775   434644.563867    ;  uncertainty r = 0.000092, k = 10.897553

[ angles ]
;       ai        aj        ak funct           theta             cth
         1         3        14     1      123.443153      352.584549    ;  uncertainty theta = 0.005265, k = 0.202869
         1         3        16     1      118.916702      524.557093    ;  uncertainty theta = 0.000766, k = 0.063533
         1         8         9     1      122.203163      367.950291    ;  uncertainty theta = 0.004353, k = 0.037976
         1         8        17     1      118.416054      506.109309    ;  uncertainty theta = 0.002115, k = 0.044491
         2        13         7     1      124.683006      439.719752    ;  uncertainty theta = 0.007537, k = 0.191394
         2        13        18     1      108.742836      385.835270    ;  uncertainty theta = 0.008747, k = 0.134414
         2        21        11     1      122.207535      482.934989    ;  uncertainty theta = 0.009442, k = 0.113245
         2        21        15     1      115.396751      421.229959    ;  uncertainty theta = 0.004034, k = 0.268490
         3         1         8     1      117.873718      466.681991    ;  uncertainty theta = 0.002635, k = 0.148809
         3         1        26     1      120.885605      275.043414    ;  uncertainty theta = 0.003104, k = 0.026017
         3        14        10     1      120.438950      350.580333    ;  uncertainty theta = 0.005824, k = 0.197361
         3        14        18     1      117.649757      371.496917    ;  uncertainty theta = 0.004336, k = 0.212601
         4        19        12     1      116.247879      415.484524    ;  uncertainty theta = 0.008323, k = 0.293282
         4        22        11     1      116.958313      446.833209    ;  uncertainty theta = 0.009610, k = 0.230013
         4        23         5     1      116.513077      409.736727    ;  uncertainty theta = 0.004984, k = 0.124102
         4        23        33     1      116.711525      449.467330    ;  uncertainty theta = 0.003974, k = 0.114616
         5        23        33     1      112.802368      309.539612    ;  uncertainty theta = 0.002449, k = 0.059169
         6         7        13     1      121.327866      511.776632    ;  uncertainty theta = 0.006720, k = 0.220926
         6         7        27     1      118.339821      255.619267    ;  uncertainty theta = 0.003231, k = 0.249698
         6        11        21     1      117.673546      482.361968    ;  uncertainty theta = 0.006515, k = 0.137844
         6        11        22     1      122.764671      547.036038    ;  uncertainty theta = 0.006436, k = 0.188230
         6        12        19     1      122.617943      733.203736    ;  uncertainty theta = 0.001452, k = 0.204123
         6        12        28     1      120.196472      259.335475    ;  uncertainty theta = 0.003688, k = 0.144831
         7         6        11     1      119.979813      442.754167    ;  uncertainty theta = 0.011773, k = 0.221309
         7         6        12     1      123.584717      408.523778    ;  uncertainty theta = 0.006835, k = 0.167617
         7        13        18     1      122.452477      425.672266    ;  uncertainty theta = 0.003057, k = 0.087983
         8         1        26     1      122.167213      276.182816    ;  uncertainty theta = 0.001979, k = 0.047518
         8         9        10     1      117.679276      490.002065    ;  uncertainty theta = 0.001416, k = 0.046653
         8         9        24     1      120.978439      282.379204    ;  uncertainty theta = 0.000982, k = 0.023307
         9         8        17     1      119.340736      515.983168    ;  uncertainty theta = 0.001915, k = 0.014125
         9        10        14     1      121.214966      509.817585    ;  uncertainty theta = 0.002734, k = 0.081000
         9        10        25     1      120.371567      284.922126    ;  uncertainty theta = 0.002332, k = 0.030236
        10         9        24     1      121.389076      278.892591    ;  uncertainty theta = 0.001182, k = 0.028037
        10        14        18     1      121.313034      424.254318    ;  uncertainty theta = 0.004582, k = 0.111195
        11         6        12     1      117.403259      430.396919    ;  uncertainty theta = 0.005353, k = 0.232641
        11        21        15     1      116.133522      434.404936    ;  uncertainty theta = 0.006002, k = 0.133710
        13         2        20     1      123.418724      471.104859    ;  uncertainty theta = 0.003206, k = 0.070384
        13         2        21     1      114.431885      323.457752    ;  uncertainty theta = 0.012880, k = 0.672027
        13         7        27     1      120.568748      277.351746    ;  uncertainty theta = 0.005819, k = 0.202769
        13        18        14     1      112.425293      459.717702    ;  uncertainty theta = 0.005379, k = 0.299014
        14         3        16     1      117.525742      487.064754    ;  uncertainty theta = 0.002079, k = 0.147581
        14        10        25     1      118.610435      275.458648    ;  uncertainty theta = 0.003647, k = 0.058785
        19         4        22     1      128.672775      734.630558    ;  uncertainty theta = 0.004119, k = 0.141136
        19         4        23     1      120.722702      815.634716    ;  uncertainty theta = 0.008601, k = 0.121278
        19        12        28     1      117.386742      318.998174    ;  uncertainty theta = 0.003812, k = 0.155205
        20         2        21     1      122.241714      693.873779    ;  uncertainty theta = 0.002201, k = 0.062599
        21        11        22     1      117.273666      579.469955    ;  uncertainty theta = 0.011971, k = 0.197605
        21        15        30     1      107.941574      486.865820    ;  uncertainty theta = 0.001912, k = 0.065460
        21        15        31     1      107.941574      486.865820    ;  uncertainty theta = 0.001912, k = 0.065460
        21        15        32     1      107.941574      486.865820    ;  uncertainty theta = 0.001912, k = 0.065460
        22         4        23     1      121.451416      872.999236    ;  uncertainty theta = 0.009243, k = 0.144926
        23         5        29     1      108.386208      470.070319    ;  uncertainty theta = 0.001567, k = 0.060600
        23         5        34     1      108.386208      470.070351    ;  uncertainty theta = 0.001567, k = 0.060600
        23         5        35     1      108.386208      470.070351    ;  uncertainty theta = 0.001567, k = 0.060600
        29         5        34     1      107.206871      324.370927    ;  uncertainty theta = 0.002139, k = 0.041316
        29         5        35     1      107.206871      324.370927    ;  uncertainty theta = 0.002139, k = 0.041316
        30        15        31     1      107.444313      326.050726    ;  uncertainty theta = 0.002153, k = 0.056618
        30        15        32     1      107.444313      326.050726    ;  uncertainty theta = 0.002153, k = 0.056618
        31        15        32     1      107.444313      326.050726    ;  uncertainty theta = 0.002153, k = 0.056618
        34         5        35     1      107.206871      324.370927    ;  uncertainty theta = 0.002139, k = 0.041316

[ dihedrals ] ; propers for gromacs 4.5 or higher, use funct 9
;       ai        aj        ak        al funct           phase               k        pn
         1         3        14        10     9        0.000000       -0.306313         1    ;  uncertainty k = 0.505391
         1         3        14        10     9      180.000000        5.699560         2    ;  uncertainty k = 1.071993
         1         3        14        10     9        0.000000        0.341049         3    ;  uncertainty k = 0.427163
         1         3        14        10     9      180.000000        1.286695         4    ;  uncertainty k = 0.336491
         1         3        14        18     9        0.000000        0.209707         1    ;  uncertainty k = 0.181119
         1         3        14        18     9      180.000000        8.078772         2    ;  uncertainty k = 0.443297
         1         3        14        18     9        0.000000        1.333895         3    ;  uncertainty k = 0.197684
         1         3        14        18     9      180.000000        1.703363         4    ;  uncertainty k = 0.101848
         1         8         9        10     9        0.000000        0.006656         1    ;  uncertainty k = 0.178742
         1         8         9        10     9      180.000000        9.851306         2    ;  uncertainty k = 0.487067
         1         8         9        10     9        0.000000       -0.289375         3    ;  uncertainty k = 0.510037
         1         8         9        10     9      180.000000        1.102178         4    ;  uncertainty k = 0.341530
         1         8         9        24     9        0.000000        0.058690         1    ;  uncertainty k = 0.184961
         1         8         9        24     9      180.000000        5.722279         2    ;  uncertainty k = 0.634542
         1         8         9        24     9        0.000000        1.318867         3    ;  uncertainty k = 0.348930
         1         8         9        24     9      180.000000        1.524759         4    ;  uncertainty k = 0.200416
         2        13         7         6     9        0.000000        0.274724         1    ;  uncertainty k = 0.612444
         2        13         7         6     9      180.000000       13.265961         2    ;  uncertainty k = 0.390905
         2        13         7         6     9        0.000000        1.583088         3    ;  uncertainty k = 0.153381
         2        13         7         6     9      180.000000        1.156601         4    ;  uncertainty k = 0.264712
         2        13         7        27     9        0.000000        0.232027         1    ;  uncertainty k = 0.722469
         2        13         7        27     9      180.000000       10.868764         2    ;  uncertainty k = 0.621677
         2        13         7        27     9        0.000000        1.612121         3    ;  uncertainty k = 0.474367
         2        13         7        27     9      180.000000        1.226062         4    ;  uncertainty k = 0.063655
         2        13        18        14     9        0.000000        2.823565         1    ;  uncertainty k = 2.168048
         2        13        18        14     9      180.000000        2.975857         2    ;  uncertainty k = 0.372946
         2        13        18        14     9        0.000000        1.779033         3    ;  uncertainty k = 0.305822
         2        13        18        14     9      180.000000        0.174991         4    ;  uncertainty k = 0.197831
         2        21        11         6     9        0.000000        0.292832         1    ;  uncertainty k = 2.050984
         2        21        11         6     9      180.000000        4.771235         2    ;  uncertainty k = 0.763748
         2        21        11         6     9        0.000000        0.315619         3    ;  uncertainty k = 0.485892
         2        21        11         6     9      180.000000        0.062498         4    ;  uncertainty k = 0.080087
         2        21        11        22     9        0.000000       -0.360466         1    ;  uncertainty k = 1.551667
         2        21        11        22     9      180.000000        7.480116         2    ;  uncertainty k = 0.207547
         2        21        11        22     9        0.000000        0.883504         3    ;  uncertainty k = 0.565634
         2        21        11        22     9      180.000000       -0.228637         4    ;  uncertainty k = 0.151462
         2        21        15        30     9        0.000000       -0.140291         1    ;  uncertainty k = 0.225853
         2        21        15        30     9      180.000000        0.717668         2    ;  uncertainty k = 0.271079
         2        21        15        30     9        0.000000        0.702955         3    ;  uncertainty k = 0.095742
         2        21        15        30     9      180.000000        0.500419         4    ;  uncertainty k = 0.086324
         2        21        15        31     9        0.000000       -0.140291         1    ;  uncertainty k = 0.225853
         2        21        15        31     9      180.000000        0.717668         2    ;  uncertainty k = 0.271079
         2        21        15        31     9        0.000000        0.702955         3    ;  uncertainty k = 0.095742
         2        21        15        31     9      180.000000        0.500419         4    ;  uncertainty k = 0.086324
         2        21        15        32     9        0.000000       -0.140291         1    ;  uncertainty k = 0.225853
         2        21        15        32     9      180.000000        0.717668         2    ;  uncertainty k = 0.271079
         2        21        15        32     9        0.000000        0.702955         3    ;  uncertainty k = 0.095742
         2        21        15        32     9      180.000000        0.500419         4    ;  uncertainty k = 0.086324
         3         1         8         9     9        0.000000       -0.049959         1    ;  uncertainty k = 0.238365
         3         1         8         9     9      180.000000        8.709297         2    ;  uncertainty k = 0.507640
         3         1         8         9     9        0.000000       -0.103094         3    ;  uncertainty k = 0.454333
         3         1         8         9     9      180.000000        1.263124         4    ;  uncertainty k = 0.287252
         3         1         8        17     9        0.000000        0.023050         1    ;  uncertainty k = 0.157478
         3         1         8        17     9      180.000000       12.231401         2    ;  uncertainty k = 0.567990
         3         1         8        17     9        0.000000        1.527926         3    ;  uncertainty k = 0.329456
         3         1         8        17     9      180.000000        1.522411         4    ;  uncertainty k = 0.258192
         3        14        10         9     9        0.000000        0.015776         1    ;  uncertainty k = 0.049644
         3        14        10         9     9      180.000000        9.130352         2    ;  uncertainty k = 0.496855
         3        14        10         9     9        0.000000        0.154802         3    ;  uncertainty k = 0.380221
         3        14        10         9     9      180.000000        1.321067         4    ;  uncertainty k = 0.368043
         3        14        10        25     9        0.000000        0.146476         1    ;  uncertainty k = 0.242432
         3        14        10        25     9      180.000000        6.097361         2    ;  uncertainty k = 0.718867
         3        14        10        25     9        0.000000        1.323120         3    ;  uncertainty k = 0.435541
         3        14        10        25     9      180.000000        1.565701         4    ;  uncertainty k = 0.129358
         3        14        18        13     9        0.000000        3.630850         1    ;  uncertainty k = 0.784137
         3        14        18        13     9      180.000000        2.972219         2    ;  uncertainty k = 0.332619
         3        14        18        13     9        0.000000        0.841399         3    ;  uncertainty k = 0.226488
         3        14        18        13     9      180.000000        0.049554         4    ;  uncertainty k = 0.189241
         4        19        12         6     9        0.000000       -0.110725         1    ;  uncertainty k = 0.609697
         4        19        12         6     9      180.000000       17.107086         2    ;  uncertainty k = 0.625804
         4        19        12         6     9        0.000000       -0.455964         3    ;  uncertainty k = 0.643644
         4        19        12         6     9      180.000000        1.612686         4    ;  uncertainty k = 0.670721
         4        19        12        28     9        0.000000        0.210981         1    ;  uncertainty k = 0.881849
         4        19        12        28     9      180.000000       17.753394         2    ;  uncertainty k = 0.630859
         4        19        12        28     9        0.000000        1.469559         3    ;  uncertainty k = 0.688971
         4        19        12        28     9      180.000000        1.111867         4    ;  uncertainty k = 0.456187
         4        22        11         6     9        0.000000        0.196714         1    ;  uncertainty k = 0.908458
         4        22        11         6     9      180.000000       12.475160         2    ;  uncertainty k = 0.645603
         4        22        11         6     9        0.000000        0.157322         3    ;  uncertainty k = 0.863075
         4        22        11         6     9      180.000000        0.937429         4    ;  uncertainty k = 0.466590
         4        22        11        21     9        0.000000        0.429361         1    ;  uncertainty k = 0.876610
         4        22        11        21     9      180.000000       15.614200         2    ;  uncertainty k = 1.103863
         4        22        11        21     9        0.000000        1.728028         3    ;  uncertainty k = 0.395525
         4        22        11        21     9      180.000000        1.172464         4    ;  uncertainty k = 0.397711
         4        23         5        29     9        0.000000       -1.804067         1    ;  uncertainty k = 0.819472
         4        23         5        29     9      180.000000       -0.547386         2    ;  uncertainty k = 0.354437
         4        23         5        29     9        0.000000        0.162137         3    ;  uncertainty k = 0.037776
         4        23         5        29     9      180.000000        0.328190         4    ;  uncertainty k = 0.046903
         4        23         5        34     9        0.000000       -1.804066         1    ;  uncertainty k = 0.819473
         4        23         5        34     9      180.000000       -0.547385         2    ;  uncertainty k = 0.354437
         4        23         5        34     9        0.000000        0.162137         3    ;  uncertainty k = 0.037776
         4        23         5        34     9      180.000000        0.328190         4    ;  uncertainty k = 0.046903
         4        23         5        35     9        0.000000       -1.804066         1    ;  uncertainty k = 0.819473
         4        23         5        35     9      180.000000       -0.547385         2    ;  uncertainty k = 0.354437
         4        23         5        35     9        0.000000        0.162137         3    ;  uncertainty k = 0.037776
         4        23         5        35     9      180.000000        0.328190         4    ;  uncertainty k = 0.046903
         5        23         4        19     9        0.000000        8.601431         1    ;  uncertainty k = 0.209356
         5        23         4        19     9      180.000000       11.245166         2    ;  uncertainty k = 0.242882
         5        23         4        19     9        0.000000        1.343613         3    ;  uncertainty k = 0.245692
         5        23         4        19     9      180.000000       -0.181544         4    ;  uncertainty k = 0.126037
         5        23         4        22     9        0.000000        9.123110         1    ;  uncertainty k = 0.202415
         5        23         4        22     9      180.000000       11.617615         2    ;  uncertainty k = 0.212545
         5        23         4        22     9        0.000000        1.073093         3    ;  uncertainty k = 0.371449
         5        23         4        22     9      180.000000       -0.294924         4    ;  uncertainty k = 0.132053
         6         7        13        18     9        0.000000        0.193042         1    ;  uncertainty k = 0.324392
         6         7        13        18     9      180.000000       21.054666         2    ;  uncertainty k = 0.625248
         6         7        13        18     9        0.000000        2.056947         3    ;  uncertainty k = 0.278840
         6         7        13        18     9      180.000000        0.671228         4    ;  uncertainty k = 0.565746
         6        11        21        15     9        0.000000        2.979202         1    ;  uncertainty k = 1.960719
         6        11        21        15     9      180.000000        9.028699         2    ;  uncertainty k = 0.522444
         6        11        21        15     9        0.000000        1.052222         3    ;  uncertainty k = 0.690508
         6        11        21        15     9      180.000000        0.103007         4    ;  uncertainty k = 0.317626
         7         6        11        21     9        0.000000       -0.055108         1    ;  uncertainty k = 0.358969
         7         6        11        21     9      180.000000        8.043977         2    ;  uncertainty k = 0.672671
         7         6        11        21     9        0.000000        0.286966         3    ;  uncertainty k = 0.532218
         7         6        11        21     9      180.000000        1.058112         4    ;  uncertainty k = 0.266965
         7         6        11        22     9        0.000000        0.237928         1    ;  uncertainty k = 0.900018
         7         6        11        22     9      180.000000        8.047942         2    ;  uncertainty k = 1.553952
         7         6        11        22     9        0.000000       -0.000955         3    ;  uncertainty k = 0.288548
         7         6        11        22     9      180.000000        1.295185         4    ;  uncertainty k = 0.531551
         7         6        12        19     9        0.000000        0.189970         1    ;  uncertainty k = 0.423838
         7         6        12        19     9      180.000000       10.685709         2    ;  uncertainty k = 0.625647
         7         6        12        19     9        0.000000        0.295527         3    ;  uncertainty k = 0.257399
         7         6        12        19     9      180.000000        1.211980         4    ;  uncertainty k = 0.376069
         7         6        12        28     9        0.000000       -0.429823         1    ;  uncertainty k = 0.536938
         7         6        12        28     9      180.000000        5.931027         2    ;  uncertainty k = 0.523977
         7         6        12        28     9        0.000000        0.831991         3    ;  uncertainty k = 0.274468
         7         6        12        28     9      180.000000        0.681961         4    ;  uncertainty k = 0.180947
         7        13         2        20     9        0.000000       -2.736884         1    ;  uncertainty k = 0.984088
         7        13         2        20     9      180.000000        2.829386         2    ;  uncertainty k = 0.722306
         7        13         2        20     9        0.000000       -0.148850         3    ;  uncertainty k = 0.456669
         7        13         2        20     9      180.000000       -0.018089         4    ;  uncertainty k = 0.178562
         7        13         2        21     9        0.000000        1.847981         1    ;  uncertainty k = 1.695058
         7        13         2        21     9      180.000000        0.676018         2    ;  uncertainty k = 0.840436
         7        13         2        21     9        0.000000        0.412450         3    ;  uncertainty k = 0.335419
         7        13         2        21     9      180.000000        0.361110         4    ;  uncertainty k = 0.179552
         7        13        18        14     9        0.000000        6.054698         1    ;  uncertainty k = 1.057145
         7        13        18        14     9      180.000000        6.289936         2    ;  uncertainty k = 0.136203
         7        13        18        14     9        0.000000       -0.847804         3    ;  uncertainty k = 0.376270
         7        13        18        14     9      180.000000        0.116643         4    ;  uncertainty k = 0.099457
         8         1         3        14     9        0.000000       -0.028157         1    ;  uncertainty k = 0.164194
         8         1         3        14     9      180.000000        8.671004         2    ;  uncertainty k = 0.512359
         8         1         3        14     9        0.000000        0.207433         3    ;  uncertainty k = 0.509188
         8         1         3        14     9      180.000000        1.302601         4    ;  uncertainty k = 0.281851
         8         1         3        16     9        0.000000       -0.002392         1    ;  uncertainty k = 0.247129
         8         1         3        16     9      180.000000       13.084887         2    ;  uncertainty k = 0.509633
         8         1         3        16     9        0.000000        1.474366         3    ;  uncertainty k = 0.306558
         8         1         3        16     9      180.000000        1.520558         4    ;  uncertainty k = 0.243651
         8         9        10        14     9        0.000000       -0.113542         1    ;  uncertainty k = 0.211768
         8         9        10        14     9      180.000000       13.972594         2    ;  uncertainty k = 0.306737
         8         9        10        14     9        0.000000       -0.786444         3    ;  uncertainty k = 0.554355
         8         9        10        14     9      180.000000        0.930464         4    ;  uncertainty k = 0.288428
         8         9        10        25     9        0.000000       -0.003440         1    ;  uncertainty k = 0.095641
         8         9        10        25     9      180.000000        7.538138         2    ;  uncertainty k = 0.273713
         8         9        10        25     9        0.000000        1.412643         3    ;  uncertainty k = 0.270752
         8         9        10        25     9      180.000000        1.740927         4    ;  uncertainty k = 0.123790
         9         8         1        26     9        0.000000        0.138635         1    ;  uncertainty k = 0.151239
         9         8         1        26     9      180.000000        5.451074         2    ;  uncertainty k = 0.660632
         9         8         1        26     9        0.000000        1.286115         3    ;  uncertainty k = 0.294094
         9         8         1        26     9      180.000000        1.480963         4    ;  uncertainty k = 0.179055
         9        10        14        18     9        0.000000       -0.064057         1    ;  uncertainty k = 0.392115
         9        10        14        18     9      180.000000       11.007024         2    ;  uncertainty k = 0.446783
         9        10        14        18     9        0.000000        1.358780         3    ;  uncertainty k = 0.241783
         9        10        14        18     9      180.000000        1.735948         4    ;  uncertainty k = 0.120659
        10         9         8        17     9        0.000000       -0.032001         1    ;  uncertainty k = 0.254449
        10         9         8        17     9      180.000000       12.251927         2    ;  uncertainty k = 0.522356
        10         9         8        17     9        0.000000        1.414423         3    ;  uncertainty k = 0.230243
        10         9         8        17     9      180.000000        1.530094         4    ;  uncertainty k = 0.209632
        10        14         3        16     9        0.000000        0.257162         1    ;  uncertainty k = 0.251999
        10        14         3        16     9      180.000000        8.387430         2    ;  uncertainty k = 0.311300
        10        14         3        16     9        0.000000        1.426919         3    ;  uncertainty k = 0.223314
        10        14         3        16     9      180.000000        1.675064         4    ;  uncertainty k = 0.138706
        10        14        18        13     9        0.000000        4.660946         1    ;  uncertainty k = 1.076529
        10        14        18        13     9      180.000000        3.955354         2    ;  uncertainty k = 0.191195
        10        14        18        13     9        0.000000        0.367207         3    ;  uncertainty k = 0.312420
        10        14        18        13     9      180.000000        0.123949         4    ;  uncertainty k = 0.068755
        11         6         7        13     9        0.000000       -0.025372         1    ;  uncertainty k = 1.114568
        11         6         7        13     9      180.000000        6.557545         2    ;  uncertainty k = 0.948324
        11         6         7        13     9        0.000000        0.243665         3    ;  uncertainty k = 0.389255
        11         6         7        13     9      180.000000        0.542885         4    ;  uncertainty k = 0.194544
        11         6         7        27     9        0.000000        0.722137         1    ;  uncertainty k = 1.061704
        11         6         7        27     9      180.000000        6.218837         2    ;  uncertainty k = 0.684882
        11         6         7        27     9        0.000000        1.076833         3    ;  uncertainty k = 0.330266
        11         6         7        27     9      180.000000        0.199863         4    ;  uncertainty k = 0.161389
        11         6        12        19     9        0.000000        0.046749         1    ;  uncertainty k = 0.622517
        11         6        12        19     9      180.000000       12.010238         2    ;  uncertainty k = 0.403814
        11         6        12        19     9        0.000000       -0.990728         3    ;  uncertainty k = 0.836553
        11         6        12        19     9      180.000000        0.785816         4    ;  uncertainty k = 0.236947
        11         6        12        28     9        0.000000       -0.145544         1    ;  uncertainty k = 0.854535
        11         6        12        28     9      180.000000        6.545970         2    ;  uncertainty k = 0.845282
        11         6        12        28     9        0.000000        0.675849         3    ;  uncertainty k = 0.068223
        11         6        12        28     9      180.000000        0.761488         4    ;  uncertainty k = 0.210437
        11        21         2        13     9        0.000000        1.586106         1    ;  uncertainty k = 2.322552
        11        21         2        13     9      180.000000        2.518871         2    ;  uncertainty k = 0.835155
        11        21         2        13     9        0.000000        0.940114         3    ;  uncertainty k = 0.272741
        11        21         2        13     9      180.000000        0.439431         4    ;  uncertainty k = 0.211173
        11        21         2        20     9        0.000000        2.605736         1    ;  uncertainty k = 2.586638
        11        21         2        20     9      180.000000       13.826008         2    ;  uncertainty k = 0.646503
        11        21         2        20     9        0.000000        0.934382         3    ;  uncertainty k = 0.099180
        11        21         2        20     9      180.000000       -0.443053         4    ;  uncertainty k = 0.498630
        11        21        15        30     9        0.000000       -0.509600         1    ;  uncertainty k = 0.442513
        11        21        15        30     9      180.000000        1.091347         2    ;  uncertainty k = 0.166769
        11        21        15        30     9        0.000000        0.337054         3    ;  uncertainty k = 0.207896
        11        21        15        30     9      180.000000        0.466358         4    ;  uncertainty k = 0.154153
        11        21        15        31     9        0.000000       -0.509600         1    ;  uncertainty k = 0.442513
        11        21        15        31     9      180.000000        1.091347         2    ;  uncertainty k = 0.166769
        11        21        15        31     9        0.000000        0.337054         3    ;  uncertainty k = 0.207896
        11        21        15        31     9      180.000000        0.466358         4    ;  uncertainty k = 0.154153
        11        21        15        32     9        0.000000       -0.509600         1    ;  uncertainty k = 0.442513
        11        21        15        32     9      180.000000        1.091347         2    ;  uncertainty k = 0.166769
        11        21        15        32     9        0.000000        0.337054         3    ;  uncertainty k = 0.207896
        11        21        15        32     9      180.000000        0.466358         4    ;  uncertainty k = 0.154153
        11        22         4        19     9        0.000000        0.428844         1    ;  uncertainty k = 1.765808
        11        22         4        19     9      180.000000        6.584187         2    ;  uncertainty k = 0.995926
        11        22         4        19     9        0.000000        1.283465         3    ;  uncertainty k = 0.663552
        11        22         4        19     9      180.000000        0.746088         4    ;  uncertainty k = 0.264917
        11        22         4        23     9        0.000000        0.915148         1    ;  uncertainty k = 1.588168
        11        22         4        23     9      180.000000        8.609511         2    ;  uncertainty k = 0.535788
        11        22         4        23     9        0.000000        1.974631         3    ;  uncertainty k = 0.491037
        11        22         4        23     9      180.000000        0.834087         4    ;  uncertainty k = 0.274232
        12         6         7        13     9        0.000000        0.253815         1    ;  uncertainty k = 0.506819
        12         6         7        13     9      180.000000        5.236456         2    ;  uncertainty k = 1.028731
        12         6         7        13     9        0.000000        0.968779         3    ;  uncertainty k = 0.317638
        12         6         7        13     9      180.000000        0.380699         4    ;  uncertainty k = 0.231771
        12         6         7        27     9        0.000000        0.380100         1    ;  uncertainty k = 0.916982
        12         6         7        27     9      180.000000        5.440890         2    ;  uncertainty k = 0.354686
        12         6         7        27     9        0.000000        0.946698         3    ;  uncertainty k = 0.312998
        12         6         7        27     9      180.000000        0.085535         4    ;  uncertainty k = 0.135911
        12         6        11        21     9        0.000000       -0.703530         1    ;  uncertainty k = 0.833591
        12         6        11        21     9      180.000000        6.209921         2    ;  uncertainty k = 0.795832
        12         6        11        21     9        0.000000        0.121000         3    ;  uncertainty k = 0.240480
        12         6        11        21     9      180.000000        1.034220         4    ;  uncertainty k = 0.301592
        12         6        11        22     9        0.000000       -0.072707         1    ;  uncertainty k = 0.545640
        12         6        11        22     9      180.000000        7.362267         2    ;  uncertainty k = 1.036751
        12         6        11        22     9        0.000000       -0.353257         3    ;  uncertainty k = 0.321567
        12         6        11        22     9      180.000000        1.217390         4    ;  uncertainty k = 0.565092
        12        19         4        22     9        0.000000        0.115900         1    ;  uncertainty k = 1.264874
        12        19         4        22     9      180.000000        6.069943         2    ;  uncertainty k = 1.598633
        12        19         4        22     9        0.000000        0.776336         3    ;  uncertainty k = 0.520385
        12        19         4        22     9      180.000000        0.481738         4    ;  uncertainty k = 0.277483
        12        19         4        23     9        0.000000        0.595460         1    ;  uncertainty k = 0.583513
        12        19         4        23     9      180.000000        7.253904         2    ;  uncertainty k = 0.452354
        12        19         4        23     9        0.000000        1.793288         3    ;  uncertainty k = 0.416307
        12        19         4        23     9      180.000000        0.604146         4    ;  uncertainty k = 0.235327
        13         2        21        15     9        0.000000        1.056405         1    ;  uncertainty k = 2.053216
        13         2        21        15     9      180.000000        7.294410         2    ;  uncertainty k = 0.749750
        13         2        21        15     9        0.000000        1.508815         3    ;  uncertainty k = 0.227703
        13         2        21        15     9      180.000000       -0.038609         4    ;  uncertainty k = 0.195181
        14         3         1        26     9        0.000000        0.057379         1    ;  uncertainty k = 0.165911
        14         3         1        26     9      180.000000        5.716951         2    ;  uncertainty k = 0.832327
        14         3         1        26     9        0.000000        1.299980         3    ;  uncertainty k = 0.327602
        14         3         1        26     9      180.000000        1.492424         4    ;  uncertainty k = 0.176810
        14        10         9        24     9        0.000000        0.076709         1    ;  uncertainty k = 0.186984
        14        10         9        24     9      180.000000        7.523892         2    ;  uncertainty k = 0.356925
        14        10         9        24     9        0.000000        1.389232         3    ;  uncertainty k = 0.254789
        14        10         9        24     9      180.000000        1.744370         4    ;  uncertainty k = 0.166848
        15        21         2        20     9        0.000000        0.943198         1    ;  uncertainty k = 0.953020
        15        21         2        20     9      180.000000       13.405514         2    ;  uncertainty k = 0.210551
        15        21         2        20     9        0.000000        0.437924         3    ;  uncertainty k = 0.356109
        15        21         2        20     9      180.000000       -0.037170         4    ;  uncertainty k = 0.148302
        15        21        11        22     9        0.000000        1.822669         1    ;  uncertainty k = 1.569640
        15        21        11        22     9      180.000000       10.589032         2    ;  uncertainty k = 0.611160
        15        21        11        22     9        0.000000        0.879894         3    ;  uncertainty k = 0.348981
        15        21        11        22     9      180.000000        0.239014         4    ;  uncertainty k = 0.403889
        16         3         1        26     9        0.000000       -0.230980         1    ;  uncertainty k = 0.291748
        16         3         1        26     9      180.000000        9.239380         2    ;  uncertainty k = 0.341179
        16         3         1        26     9        0.000000        0.839928         3    ;  uncertainty k = 0.293710
        16         3         1        26     9      180.000000        1.043063         4    ;  uncertainty k = 0.201990
        16         3        14        18     9        0.000000       -0.105793         1    ;  uncertainty k = 0.354022
        16         3        14        18     9      180.000000       12.165824         2    ;  uncertainty k = 0.214592
        16         3        14        18     9        0.000000        1.160865         3    ;  uncertainty k = 0.370829
        16         3        14        18     9      180.000000        1.261897         4    ;  uncertainty k = 0.194088
        17         8         1        26     9        0.000000       -0.271891         1    ;  uncertainty k = 0.249928
        17         8         1        26     9      180.000000        8.500019         2    ;  uncertainty k = 0.281498
        17         8         1        26     9        0.000000        0.815708         3    ;  uncertainty k = 0.327842
        17         8         1        26     9      180.000000        0.992978         4    ;  uncertainty k = 0.194491
        17         8         9        24     9        0.000000       -0.357248         1    ;  uncertainty k = 0.222188
        17         8         9        24     9      180.000000        8.920407         2    ;  uncertainty k = 0.265967
        17         8         9        24     9        0.000000        0.818892         3    ;  uncertainty k = 0.249596
        17         8         9        24     9      180.000000        0.905586         4    ;  uncertainty k = 0.175017
        18        13         2        20     9        0.000000       -2.044631         1    ;  uncertainty k = 1.471510
        18        13         2        20     9      180.000000        9.630819         2    ;  uncertainty k = 0.607857
        18        13         2        20     9        0.000000        0.236984         3    ;  uncertainty k = 0.528742
        18        13         2        20     9      180.000000       -0.331931         4    ;  uncertainty k = 0.518325
        18        13         2        21     9        0.000000        1.503141         1    ;  uncertainty k = 1.118683
        18        13         2        21     9      180.000000        3.516108         2    ;  uncertainty k = 0.667937
        18        13         2        21     9        0.000000        0.738546         3    ;  uncertainty k = 0.316488
        18        13         2        21     9      180.000000        0.529978         4    ;  uncertainty k = 0.123665
        18        13         7        27     9        0.000000        0.176467         1    ;  uncertainty k = 0.770344
        18        13         7        27     9      180.000000       16.282668         2    ;  uncertainty k = 0.417244
        18        13         7        27     9        0.000000        1.907448         3    ;  uncertainty k = 0.070637
        18        13         7        27     9      180.000000        0.957052         4    ;  uncertainty k = 0.581336
        18        14        10        25     9        0.000000       -0.025816         1    ;  uncertainty k = 0.162969
        18        14        10        25     9      180.000000        8.757822         2    ;  uncertainty k = 0.242306
        18        14        10        25     9        0.000000        0.878698         3    ;  uncertainty k = 0.265252
        18        14        10        25     9      180.000000        1.203360         4    ;  uncertainty k = 0.152721
        19         4        23        33     9        0.000000       11.007494         1    ;  uncertainty k = 0.771516
        19         4        23        33     9      180.000000        9.869790         2    ;  uncertainty k = 0.441733
        19         4        23        33     9        0.000000        1.197990         3    ;  uncertainty k = 0.453316
        19         4        23        33     9      180.000000       -0.370132         4    ;  uncertainty k = 0.268438
        22         4        23        33     9        0.000000       12.810095         1    ;  uncertainty k = 0.711827
        22         4        23        33     9      180.000000       10.073103         2    ;  uncertainty k = 0.595389
        22         4        23        33     9        0.000000        1.118291         3    ;  uncertainty k = 0.408169
        22         4        23        33     9      180.000000       -0.442536         4    ;  uncertainty k = 0.179509
        24         9        10        25     9        0.000000        0.032265         1    ;  uncertainty k = 0.250069
        24         9        10        25     9      180.000000        7.287468         2    ;  uncertainty k = 0.427630
        24         9        10        25     9        0.000000       -0.295849         3    ;  uncertainty k = 0.226115
        24         9        10        25     9      180.000000        0.117549         4    ;  uncertainty k = 0.137082
        29         5        23        33     9        0.000000        0.658517         1    ;  uncertainty k = 0.459566
        29         5        23        33     9      180.000000       -1.411103         2    ;  uncertainty k = 0.118903
        29         5        23        33     9        0.000000        0.399187         3    ;  uncertainty k = 0.097475
        29         5        23        33     9      180.000000        0.129766         4    ;  uncertainty k = 0.030251
        33        23         5        34     9        0.000000        0.658516         1    ;  uncertainty k = 0.459566
        33        23         5        34     9      180.000000       -1.411103         2    ;  uncertainty k = 0.118903
        33        23         5        34     9        0.000000        0.399187         3    ;  uncertainty k = 0.097475
        33        23         5        34     9      180.000000        0.129766         4    ;  uncertainty k = 0.030251
        33        23         5        35     9        0.000000        0.658516         1    ;  uncertainty k = 0.459566
        33        23         5        35     9      180.000000       -1.411103         2    ;  uncertainty k = 0.118903
        33        23         5        35     9        0.000000        0.399187         3    ;  uncertainty k = 0.097475
        33        23         5        35     9      180.000000        0.129766         4    ;  uncertainty k = 0.030251

[ dihedrals ] ; impropers
;       ai        aj        ak        al funct           phase               k        pn
         1         3         8        26     4      180.000000        1.109680         2    ;  uncertainty k = 0.271256
         1         8        26         3     4      180.000000        1.109680         2    ;  uncertainty k = 0.271256
         1        26         3         8     4      180.000000        1.109680         2    ;  uncertainty k = 0.271256
         2        13        20        21     4      180.000000       48.355208         2    ;  uncertainty k = 0.046756
         2        20        21        13     4      180.000000       48.355208         2    ;  uncertainty k = 0.046756
         2        21        13        20     4      180.000000       48.355208         2    ;  uncertainty k = 0.046756
         3         1        14        16     4      180.000000       14.318672         2    ;  uncertainty k = 0.052158
         3        14        16         1     4      180.000000       14.318672         2    ;  uncertainty k = 0.052158
         3        16         1        14     4      180.000000       14.318672         2    ;  uncertainty k = 0.052158
         4        19        22        23     4      180.000000       46.096626         2    ;  uncertainty k = 0.091208
         4        22        23        19     4      180.000000       46.096626         2    ;  uncertainty k = 0.091208
         4        23        19        22     4      180.000000       46.096626         2    ;  uncertainty k = 0.091208
         6         7        11        12     4      180.000000        3.512173         2    ;  uncertainty k = 0.581977
         6        11        12         7     4      180.000000        3.512173         2    ;  uncertainty k = 0.581977
         6        12         7        11     4      180.000000        3.512173         2    ;  uncertainty k = 0.581977
         7         6        13        27     4      180.000000        7.429066         2    ;  uncertainty k = 0.367060
         7        13        27         6     4      180.000000        7.429066         2    ;  uncertainty k = 0.367060
         7        27         6        13     4      180.000000        7.429066         2    ;  uncertainty k = 0.367060
         8         1         9        17     4      180.000000       17.110314         2    ;  uncertainty k = 0.053382
         8         9        17         1     4      180.000000       17.110314         2    ;  uncertainty k = 0.053382
         8        17         1         9     4      180.000000       17.110314         2    ;  uncertainty k = 0.053382
         9         8        10        24     4      180.000000        2.090574         2    ;  uncertainty k = 0.191083
         9        10        24         8     4      180.000000        2.090574         2    ;  uncertainty k = 0.191083
         9        24         8        10     4      180.000000        2.090574         2    ;  uncertainty k = 0.191083
        10         9        14        25     4      180.000000        3.395592         2    ;  uncertainty k = 0.158338
        10        14        25         9     4      180.000000        3.395592         2    ;  uncertainty k = 0.158338
        10        25         9        14     4      180.000000        3.395592         2    ;  uncertainty k = 0.158338
        11         6        21        22     4      180.000000       30.881574         2    ;  uncertainty k = 0.080573
        11        21        22         6     4      180.000000       30.881574         2    ;  uncertainty k = 0.080573
        11        22         6        21     4      180.000000       30.881574         2    ;  uncertainty k = 0.080573
        12         6        19        28     4      180.000000       16.681985         2    ;  uncertainty k = 0.053329
        12        19        28         6     4      180.000000       16.681985         2    ;  uncertainty k = 0.053329
        12        28         6        19     4      180.000000       16.681985         2    ;  uncertainty k = 0.053329
        13         2         7        18     4      180.000000       13.109837         2    ;  uncertainty k = 0.278814
        13         7        18         2     4      180.000000       13.109837         2    ;  uncertainty k = 0.278814
        13        18         2         7     4      180.000000       13.109837         2    ;  uncertainty k = 0.278814
        14         3        10        18     4      180.000000       11.882712         2    ;  uncertainty k = 0.189067
        14        10        18         3     4      180.000000       11.882712         2    ;  uncertainty k = 0.189067
        14        18         3        10     4      180.000000       11.882712         2    ;  uncertainty k = 0.189067
        21         2        11        15     4      180.000000        3.406361         2    ;  uncertainty k = 0.884105
        21        11        15         2     4      180.000000        3.406361         2    ;  uncertainty k = 0.884105
        21        15         2        11     4      180.000000        3.406361         2    ;  uncertainty k = 0.884105

[ pairs ]
;       ai        aj funct
         1        10     1
         1        18     1
         1        24     1
         2         6     1
         2        14     1
         2        22     1
         2        27     1
         2        30     1
         2        31     1
         2        32     1
         3         9     1
         3        13     1
         3        17     1
         3        25     1
         4         6     1
         4        21     1
         4        28     1
         4        29     1
         4        34     1
         4        35     1
         5        19     1
         5        22     1
         6        15     1
         6        18     1
         7        14     1
         7        19     1
         7        20     1
         7        21     1
         7        22     1
         7        28     1
         8        14     1
         8        16     1
         8        25     1
         9        18     1
         9        26     1
        10        13     1
        10        16     1
        10        17     1
        11        13     1
        11        19     1
        11        20     1
        11        23     1
        11        27     1
        11        28     1
        11        30     1
        11        31     1
        11        32     1
        12        13     1
        12        21     1
        12        22     1
        12        23     1
        12        27     1
        13        15     1
        14        24     1
        14        26     1
        15        20     1
        15        22     1
        16        18     1
        16        26     1
        17        24     1
        17        26     1
        18        20     1
        18        21     1
        18        25     1
        18        27     1
        19        33     1
        22        33     1
        24        25     1
        29        33     1
        33        34     1
        33        35     1
