; ITP file created by ByteFF-joint-25, 2026-02-17 09:25:16.698066

[ atomtypes ]
;name           bonded.type        at.num        mass        charge   ptype           sigma         epsilon
 c0bf                                   6      0.0000       0.00000       A     3.31526e-01     4.13477e-01    ;  uncertainty sigma = 0.000006, epsilon = 0.000754
 c1bf                                   6      0.0000       0.00000       A     3.31559e-01     4.13635e-01    ;  uncertainty sigma = 0.000021, epsilon = 0.001225
 c2bf                                   6      0.0000       0.00000       A     3.31525e-01     4.12996e-01    ;  uncertainty sigma = 0.000006, epsilon = 0.000558
 c3bf                                   6      0.0000       0.00000       A     3.31535e-01     4.13959e-01    ;  uncertainty sigma = 0.000011, epsilon = 0.000762
 c4bf                                   6      0.0000       0.00000       A     3.31556e-01     4.13424e-01    ;  uncertainty sigma = 0.000018, epsilon = 0.000830
 c5bf                                   6      0.0000       0.00000       A     3.31522e-01     4.12958e-01    ;  uncertainty sigma = 0.000012, epsilon = 0.001253
 c6bf                                   6      0.0000       0.00000       A     3.31521e-01     4.13309e-01    ;  uncertainty sigma = 0.000005, epsilon = 0.000623
 c7bf                                   6      0.0000       0.00000       A     3.31522e-01     4.13402e-01    ;  uncertainty sigma = 0.000004, epsilon = 0.000568
 c8bf                                   6      0.0000       0.00000       A     3.31532e-01     4.13487e-01    ;  uncertainty sigma = 0.000005, epsilon = 0.000789
 c9bf                                   6      0.0000       0.00000       A     3.31528e-01     4.12889e-01    ;  uncertainty sigma = 0.000017, epsilon = 0.001801
 c10bf                                  6      0.0000       0.00000       A     3.31541e-01     4.13634e-01    ;  uncertainty sigma = 0.000007, epsilon = 0.001372
 c11bf                                  6      0.0000       0.00000       A     3.31529e-01     4.13581e-01    ;  uncertainty sigma = 0.000019, epsilon = 0.001027
 c12bf                                  6      0.0000       0.00000       A     3.31544e-01     4.13185e-01    ;  uncertainty sigma = 0.000012, epsilon = 0.000998
 c13bf                                  6      0.0000       0.00000       A     3.39766e-01     4.51313e-01    ;  uncertainty sigma = 0.000006, epsilon = 0.000601
 f14bf                                  9      0.0000       0.00000       A     3.03401e-01     3.48403e-01    ;  uncertainty sigma = 0.000015, epsilon = 0.000906
 f15bf                                  9      0.0000       0.00000       A     3.03426e-01     3.47978e-01    ;  uncertainty sigma = 0.000008, epsilon = 0.000768
 o16bf                                  8      0.0000       0.00000       A     3.15661e-01     3.03543e-01    ;  uncertainty sigma = 0.000052, epsilon = 0.003674
 n17bf                                  7      0.0000       0.00000       A     3.38439e-01     3.93578e-01    ;  uncertainty sigma = 0.000018, epsilon = 0.000969
 o18bf                                  8      0.0000       0.00000       A     3.04803e-01     6.11515e-01    ;  uncertainty sigma = 0.000019, epsilon = 0.000440
 n19bf                                  7      0.0000       0.00000       A     3.18128e-01     6.83563e-01    ;  uncertainty sigma = 0.000031, epsilon = 0.001981
 n20bf                                  7      0.0000       0.00000       A     3.38446e-01     3.93023e-01    ;  uncertainty sigma = 0.000049, epsilon = 0.001686
 n21bf                                  7      0.0000       0.00000       A     3.27889e-01     6.45380e-01    ;  uncertainty sigma = 0.000035, epsilon = 0.004685
 h22bf                                  1      0.0000       0.00000       A     2.62564e-01     6.70554e-02    ;  uncertainty sigma = 0.000012, epsilon = 0.000465
 h23bf                                  1      0.0000       0.00000       A     2.62548e-01     6.71486e-02    ;  uncertainty sigma = 0.000008, epsilon = 0.000492
 h24bf                                  1      0.0000       0.00000       A     2.62562e-01     6.73680e-02    ;  uncertainty sigma = 0.000008, epsilon = 0.000365
 h25bf                                  1      0.0000       0.00000       A     2.62521e-01     6.67593e-02    ;  uncertainty sigma = 0.000018, epsilon = 0.000881
 h26bf                                  1      0.0000       0.00000       A     2.53663e-01     6.71784e-02    ;  uncertainty sigma = 0.000041, epsilon = 0.000925
 h27bf                                  1      0.0000       0.00000       A     2.42230e-01     8.62499e-02    ;  uncertainty sigma = 0.000036, epsilon = 0.000838
 h28bf                                  1      0.0000       0.00000       A     2.42206e-01     8.67702e-02    ;  uncertainty sigma = 0.000014, epsilon = 0.000617
 h29bf                                  1      0.0000       0.00000       A     2.42206e-01     8.67702e-02    ;  uncertainty sigma = 0.000014, epsilon = 0.000617
 h30bf                                  1      0.0000       0.00000       A     2.42206e-01     8.67702e-02    ;  uncertainty sigma = 0.000014, epsilon = 0.000617
 h31bf                                  1      0.0000       0.00000       A     1.10749e-01     4.18037e-02    ;  uncertainty sigma = 0.000067, epsilon = 0.001232
 c32bf                                  6      0.0000       0.00000       A     3.39761e-01     4.50712e-01    ;  uncertainty sigma = 0.000008, epsilon = 0.000994
 c33bf                                  6      0.0000       0.00000       A     3.39771e-01     4.50757e-01    ;  uncertainty sigma = 0.000005, epsilon = 0.000818
 c34bf                                  6      0.0000       0.00000       A     3.39772e-01     4.50855e-01    ;  uncertainty sigma = 0.000011, epsilon = 0.000368
 o35bf                                  8      0.0000       0.00000       A     3.15616e-01     3.03869e-01    ;  uncertainty sigma = 0.000033, epsilon = 0.000450
 c36bf                                  6      0.0000       0.00000       A     3.39778e-01     4.50898e-01    ;  uncertainty sigma = 0.000006, epsilon = 0.000743
 h37bf                                  1      0.0000       0.00000       A     2.60048e-01     8.66406e-02    ;  uncertainty sigma = 0.000006, epsilon = 0.000665
 h38bf                                  1      0.0000       0.00000       A     2.60048e-01     8.66406e-02    ;  uncertainty sigma = 0.000006, epsilon = 0.000665
 h39bf                                  1      0.0000       0.00000       A     2.42205e-01     8.68683e-02    ;  uncertainty sigma = 0.000016, epsilon = 0.000860
 h40bf                                  1      0.0000       0.00000       A     2.42205e-01     8.68684e-02    ;  uncertainty sigma = 0.000016, epsilon = 0.000860
 h41bf                                  1      0.0000       0.00000       A     2.42201e-01     8.67564e-02    ;  uncertainty sigma = 0.000025, epsilon = 0.000680
 h42bf                                  1      0.0000       0.00000       A     2.42201e-01     8.67564e-02    ;  uncertainty sigma = 0.000025, epsilon = 0.000680

[ moleculetype ]
;name             nrexcl
 MOL                   3

[ atoms ]
;       nr            type      resi   res      atom      cgnr      charge          mass ; qtot
         1            c0bf         1   UNL        c0         1    -0.19164       12.0110 ; qtot   -0.192
         2            c1bf         1   UNL        c1         2     0.70215       12.0110 ; qtot    0.511
         3            c2bf         1   UNL        c2         3     0.14567       12.0110 ; qtot    0.656
         4            c3bf         1   UNL        c3         4     0.92568       12.0110 ; qtot    1.582
         5            c4bf         1   UNL        c4         5    -0.40580       12.0110 ; qtot    1.176
         6            c5bf         1   UNL        c5         6    -0.04643       12.0110 ; qtot    1.130
         7            c6bf         1   UNL        c6         7     0.14413       12.0110 ; qtot    1.274
         8            c7bf         1   UNL        c7         8    -0.16248       12.0110 ; qtot    1.111
         9            c8bf         1   UNL        c8         9    -0.09069       12.0110 ; qtot    1.021
        10            c9bf         1   UNL        c9        10     0.63926       12.0110 ; qtot    1.660
        11           c10bf         1   UNL       c10        11     0.52131       12.0110 ; qtot    2.181
        12           c11bf         1   UNL       c11        12     0.00526       12.0110 ; qtot    2.186
        13           c12bf         1   UNL       c12        13     0.04787       12.0110 ; qtot    2.234
        14           c13bf         1   UNL       c13        14     0.08273       12.0110 ; qtot    2.317
        15           f14bf         1   UNL       f14        15    -0.12685       18.9980 ; qtot    2.190
        16           f15bf         1   UNL       f15        16    -0.13805       18.9980 ; qtot    2.052
        17           o16bf         1   UNL       o16        17    -0.21020       15.9990 ; qtot    1.842
        18           n17bf         1   UNL       n17        18    -0.77218       14.0070 ; qtot    1.070
        19           o18bf         1   UNL       o18        19    -0.58915       15.9990 ; qtot    0.481
        20           n19bf         1   UNL       n19        20    -0.44091       14.0070 ; qtot    0.040
        21           n20bf         1   UNL       n20        21    -0.82887       14.0070 ; qtot   -0.789
        22           n21bf         1   UNL       n21        22    -0.85820       14.0070 ; qtot   -1.647
        23           h22bf         1   UNL       h22        23     0.16075        1.0080 ; qtot   -1.487
        24           h23bf         1   UNL       h23        24     0.15721        1.0080 ; qtot   -1.329
        25           h24bf         1   UNL       h24        25     0.17297        1.0080 ; qtot   -1.156
        26           h25bf         1   UNL       h25        26     0.16397        1.0080 ; qtot   -0.992
        27           h26bf         1   UNL       h26        27     0.03016        1.0080 ; qtot   -0.962
        28           h27bf         1   UNL       h27        28     0.08222        1.0080 ; qtot   -0.880
        29           h28bf         1   UNL       h28        29     0.06256        1.0080 ; qtot   -0.818
        30           h29bf         1   UNL       h29        30     0.06256        1.0080 ; qtot   -0.755
        31           h30bf         1   UNL       h30        31     0.06256        1.0080 ; qtot   -0.692
        32           h31bf         1   UNL       h31        32     0.44799        1.0080 ; qtot   -0.244
        33           c32bf         1   UNL       c32        33     0.21113       12.0110 ; qtot   -0.033
        34           c33bf         1   UNL       c33        34    -0.12930       12.0110 ; qtot   -0.163
        35           c34bf         1   UNL       c34        35     0.12443       12.0110 ; qtot   -0.038
        36           o35bf         1   UNL       o35        36    -0.41659       15.9990 ; qtot   -0.455
        37           c36bf         1   UNL       c36        37     0.10952       12.0110 ; qtot   -0.345
        38           h37bf         1   UNL       h37        38     0.06474        1.0080 ; qtot   -0.281
        39           h38bf         1   UNL       h38        39     0.06474        1.0080 ; qtot   -0.216
        40           h39bf         1   UNL       h39        40     0.05090        1.0080 ; qtot   -0.165
        41           h40bf         1   UNL       h40        41     0.05090        1.0080 ; qtot   -0.114
        42           h41bf         1   UNL       h41        42     0.05698        1.0080 ; qtot   -0.057
        43           h42bf         1   UNL       h42        43     0.05699        1.0080 ; qtot    0.000

[ bonds ]
;       ai        aj funct               r               k
         1         3     1        0.138747   361176.981592    ;  uncertainty r = 0.000032, k = 2.643588
         1         7     1        0.139007   367691.396045    ;  uncertainty r = 0.000031, k = 2.749259
         1        25     1        0.108780   338576.282275    ;  uncertainty r = 0.000013, k = 1.210229
         2        12     1        0.146503   257020.024902    ;  uncertainty r = 0.000082, k = 22.735462
         2        19     1        0.123258   653165.404492    ;  uncertainty r = 0.000088, k = 12.275804
         2        20     1        0.140996   234604.673926    ;  uncertainty r = 0.000190, k = 47.108488
         3        13     1        0.139121   358077.006348    ;  uncertainty r = 0.000040, k = 4.650811
         3        15     1        0.134764   340072.935645    ;  uncertainty r = 0.000045, k = 2.589505
         4        18     1        0.136635   527566.188379    ;  uncertainty r = 0.000107, k = 17.183830
         4        21     1        0.135666   611180.864453    ;  uncertainty r = 0.000154, k = 23.410056
         4        22     1        0.138369   580215.689258    ;  uncertainty r = 0.000148, k = 16.507717
         5         6     1        0.142625   274730.546533    ;  uncertainty r = 0.000027, k = 25.477092
         5        10     1        0.142296   411288.144873    ;  uncertainty r = 0.000148, k = 17.652228
         5        11     1        0.140381   402907.427393    ;  uncertainty r = 0.000183, k = 16.397686
         6        12     1        0.135447   409330.648828    ;  uncertainty r = 0.000069, k = 14.135384
         6        26     1        0.108670   334774.368506    ;  uncertainty r = 0.000042, k = 1.864898
         7         8     1        0.138905   362175.303809    ;  uncertainty r = 0.000027, k = 1.862514
         7        16     1        0.135460   342148.081152    ;  uncertainty r = 0.000038, k = 2.796473
         8         9     1        0.139206   376188.256299    ;  uncertainty r = 0.000034, k = 0.837546
         8        23     1        0.108734   335618.242285    ;  uncertainty r = 0.000017, k = 1.062658
         9        13     1        0.139238   351219.092236    ;  uncertainty r = 0.000057, k = 2.910415
         9        24     1        0.108702   335466.041113    ;  uncertainty r = 0.000027, k = 2.133558
        10        20     1        0.137818   261111.759326    ;  uncertainty r = 0.000164, k = 7.780935
        10        21     1        0.134047   454948.046973    ;  uncertainty r = 0.000154, k = 16.303211
        11        18     1        0.133422   407222.969043    ;  uncertainty r = 0.000070, k = 9.618889
        11        27     1        0.108923   329102.576514    ;  uncertainty r = 0.000029, k = 1.975159
        12        17     1        0.136126   317771.224805    ;  uncertainty r = 0.000057, k = 7.847699
        13        17     1        0.138160   312130.434863    ;  uncertainty r = 0.000116, k = 5.846346
        14        20     1        0.146434   260871.378516    ;  uncertainty r = 0.000086, k = 13.117202
        14        29     1        0.109141   308405.924072    ;  uncertainty r = 0.000010, k = 1.505458
        14        30     1        0.109141   308405.924072    ;  uncertainty r = 0.000010, k = 1.505458
        14        31     1        0.109141   308405.924072    ;  uncertainty r = 0.000010, k = 1.505458
        22        32     1        0.102171   437030.444922    ;  uncertainty r = 0.000104, k = 11.271821
        22        33     1        0.145255   267741.269531    ;  uncertainty r = 0.000105, k = 17.047939
        28        33     1        0.109137   306967.750684    ;  uncertainty r = 0.000030, k = 4.427520
        33        34     1        0.154312   218868.834814    ;  uncertainty r = 0.000081, k = 8.039853
        33        37     1        0.153785   216626.753223    ;  uncertainty r = 0.000081, k = 11.985908
        34        35     1        0.153894   236968.618604    ;  uncertainty r = 0.000067, k = 5.642561
        34        38     1        0.109380   309757.501123    ;  uncertainty r = 0.000012, k = 2.504658
        34        39     1        0.109380   309757.501123    ;  uncertainty r = 0.000012, k = 2.504658
        35        36     1        0.143893   238313.760303    ;  uncertainty r = 0.000035, k = 6.276556
        35        40     1        0.109638   306942.162500    ;  uncertainty r = 0.000017, k = 3.255787
        35        41     1        0.109638   306942.162500    ;  uncertainty r = 0.000017, k = 3.255786
        36        37     1        0.142952   241285.232813    ;  uncertainty r = 0.000082, k = 9.824684
        37        42     1        0.109695   306800.227246    ;  uncertainty r = 0.000045, k = 3.241082
        37        43     1        0.109695   306800.227246    ;  uncertainty r = 0.000045, k = 3.241078

[ angles ]
;       ai        aj        ak funct           theta             cth
         1         3        13     1      123.443153      352.584549    ;  uncertainty theta = 0.005265, k = 0.202869
         1         3        15     1      118.916702      524.557093    ;  uncertainty theta = 0.000766, k = 0.063533
         1         7         8     1      122.203163      367.950291    ;  uncertainty theta = 0.004353, k = 0.037976
         1         7        16     1      118.416054      506.109309    ;  uncertainty theta = 0.002115, k = 0.044491
         2        12         6     1      124.683006      439.719752    ;  uncertainty theta = 0.007537, k = 0.191394
         2        12        17     1      108.742836      385.835270    ;  uncertainty theta = 0.008747, k = 0.134414
         2        20        10     1      122.125038      482.913538    ;  uncertainty theta = 0.009747, k = 0.114078
         2        20        14     1      115.396751      421.229959    ;  uncertainty theta = 0.004034, k = 0.268490
         3         1         7     1      117.873718      466.681991    ;  uncertainty theta = 0.002635, k = 0.148809
         3         1        25     1      120.885605      275.043414    ;  uncertainty theta = 0.003104, k = 0.026017
         3        13         9     1      120.438950      350.580333    ;  uncertainty theta = 0.005824, k = 0.197361
         3        13        17     1      117.649757      371.496917    ;  uncertainty theta = 0.004336, k = 0.212601
         4        18        11     1      116.490341      407.050606    ;  uncertainty theta = 0.007825, k = 0.313860
         4        21        10     1      117.446396      450.417406    ;  uncertainty theta = 0.007891, k = 0.222471
         4        22        32     1      116.964767      449.375396    ;  uncertainty theta = 0.003296, k = 0.120412
         4        22        33     1      115.354149      419.535699    ;  uncertainty theta = 0.006789, k = 0.148283
         5         6        12     1      121.327866      511.776632    ;  uncertainty theta = 0.006720, k = 0.220926
         5         6        26     1      118.339821      255.619267    ;  uncertainty theta = 0.003231, k = 0.249698
         5        10        20     1      117.694908      482.070558    ;  uncertainty theta = 0.006342, k = 0.134107
         5        10        21     1      122.735031      546.954958    ;  uncertainty theta = 0.006422, k = 0.172735
         5        11        18     1      122.600487      739.688310    ;  uncertainty theta = 0.001380, k = 0.194219
         5        11        27     1      120.229164      259.860135    ;  uncertainty theta = 0.003789, k = 0.131774
         6         5        10     1      119.937027      442.923605    ;  uncertainty theta = 0.011520, k = 0.223962
         6         5        11     1      123.568321      408.354116    ;  uncertainty theta = 0.006829, k = 0.159263
         6        12        17     1      122.452477      425.672203    ;  uncertainty theta = 0.003057, k = 0.087983
         7         1        25     1      122.167213      276.182816    ;  uncertainty theta = 0.001979, k = 0.047518
         7         8         9     1      117.679276      490.002065    ;  uncertainty theta = 0.001416, k = 0.046653
         7         8        23     1      120.978439      282.379204    ;  uncertainty theta = 0.000982, k = 0.023307
         8         7        16     1      119.340736      515.983168    ;  uncertainty theta = 0.001915, k = 0.014125
         8         9        13     1      121.214966      509.817585    ;  uncertainty theta = 0.002734, k = 0.081000
         8         9        24     1      120.371567      284.922126    ;  uncertainty theta = 0.002332, k = 0.030236
         9         8        23     1      121.389076      278.892591    ;  uncertainty theta = 0.001182, k = 0.028037
         9        13        17     1      121.313034      424.254318    ;  uncertainty theta = 0.004582, k = 0.111195
        10         5        11     1      117.327225      430.920526    ;  uncertainty theta = 0.004924, k = 0.200153
        10        20        14     1      116.100052      433.890619    ;  uncertainty theta = 0.006228, k = 0.136417
        12         2        19     1      123.418716      471.104859    ;  uncertainty theta = 0.003206, k = 0.070384
        12         2        20     1      114.431885      323.457720    ;  uncertainty theta = 0.012880, k = 0.672027
        12         6        26     1      120.568748      277.351746    ;  uncertainty theta = 0.005819, k = 0.202769
        12        17        13     1      112.425293      459.717702    ;  uncertainty theta = 0.005379, k = 0.299014
        13         3        15     1      117.525742      487.064690    ;  uncertainty theta = 0.002079, k = 0.147581
        13         9        24     1      118.610428      275.458648    ;  uncertainty theta = 0.003647, k = 0.058785
        18         4        21     1      128.864319      743.678995    ;  uncertainty theta = 0.002524, k = 0.110299
        18         4        22     1      120.618187      824.954229    ;  uncertainty theta = 0.009453, k = 0.110512
        18        11        27     1      117.368973      318.453404    ;  uncertainty theta = 0.003663, k = 0.158545
        19         2        20     1      122.241714      693.873779    ;  uncertainty theta = 0.002201, k = 0.062599
        20        10        21     1      117.254601      578.770493    ;  uncertainty theta = 0.012195, k = 0.173308
        20        14        29     1      107.941574      486.865820    ;  uncertainty theta = 0.001912, k = 0.065460
        20        14        30     1      107.941574      486.865820    ;  uncertainty theta = 0.001912, k = 0.065460
        20        14        31     1      107.941574      486.865820    ;  uncertainty theta = 0.001912, k = 0.065460
        21         4        22     1      121.261276      899.939481    ;  uncertainty theta = 0.009543, k = 0.101461
        22        33        28     1      104.838173      443.753338    ;  uncertainty theta = 0.003142, k = 0.178492
        22        33        34     1      112.467041      625.465736    ;  uncertainty theta = 0.004259, k = 0.159901
        22        33        37     1      110.572586      608.087733    ;  uncertainty theta = 0.004274, k = 0.183540
        28        33        34     1      109.540306      390.263021    ;  uncertainty theta = 0.003790, k = 0.046322
        28        33        37     1      109.538437      390.856153    ;  uncertainty theta = 0.002922, k = 0.085628
        29        14        30     1      107.444313      326.050726    ;  uncertainty theta = 0.002153, k = 0.056617
        29        14        31     1      107.444313      326.050726    ;  uncertainty theta = 0.002153, k = 0.056617
        30        14        31     1      107.444313      326.050726    ;  uncertainty theta = 0.002153, k = 0.056617
        32        22        33     1      112.589561      330.609100    ;  uncertainty theta = 0.004009, k = 0.125273
        33        34        35     1      104.598938      685.685304    ;  uncertainty theta = 0.001944, k = 0.111565
        33        34        38     1      108.850632      392.313747    ;  uncertainty theta = 0.001765, k = 0.032138
        33        34        39     1      108.850632      392.313747    ;  uncertainty theta = 0.001765, k = 0.032138
        33        37        36     1      108.073204      782.166930    ;  uncertainty theta = 0.003969, k = 0.203874
        33        37        42     1      110.222656      388.030280    ;  uncertainty theta = 0.000475, k = 0.016694
        33        37        43     1      110.222656      388.030248    ;  uncertainty theta = 0.000475, k = 0.016694
        34        33        37     1      104.360085      735.260750    ;  uncertainty theta = 0.003176, k = 0.146187
        34        35        36     1      108.114059      871.289781    ;  uncertainty theta = 0.002554, k = 0.063665
        34        35        40     1      110.886574      404.157763    ;  uncertainty theta = 0.001224, k = 0.052355
        34        35        41     1      110.886574      404.157763    ;  uncertainty theta = 0.001224, k = 0.052355
        35        34        38     1      110.119225      404.599682    ;  uncertainty theta = 0.001308, k = 0.014244
        35        34        39     1      110.119225      404.599682    ;  uncertainty theta = 0.001308, k = 0.014244
        35        36        37     1      110.856468      610.499841    ;  uncertainty theta = 0.002726, k = 0.153931
        36        35        40     1      108.146385      472.860854    ;  uncertainty theta = 0.000412, k = 0.037696
        36        35        41     1      108.146385      472.860854    ;  uncertainty theta = 0.000412, k = 0.037696
        36        37        42     1      108.501587      480.245676    ;  uncertainty theta = 0.000978, k = 0.093704
        36        37        43     1      108.501587      480.245676    ;  uncertainty theta = 0.000978, k = 0.093704
        38        34        39     1      105.882286      300.001374    ;  uncertainty theta = 0.002021, k = 0.028540
        40        35        41     1      106.811813      314.509357    ;  uncertainty theta = 0.002811, k = 0.046772
        42        37        43     1      107.141602      314.847021    ;  uncertainty theta = 0.002455, k = 0.084677

[ dihedrals ] ; propers for gromacs 4.5 or higher, use funct 9
;       ai        aj        ak        al funct           phase               k        pn
         1         3        13         9     9        0.000000       -0.306313         1    ;  uncertainty k = 0.505391
         1         3        13         9     9      180.000000        5.699560         2    ;  uncertainty k = 1.071993
         1         3        13         9     9        0.000000        0.341049         3    ;  uncertainty k = 0.427163
         1         3        13         9     9      180.000000        1.286695         4    ;  uncertainty k = 0.336491
         1         3        13        17     9        0.000000        0.209707         1    ;  uncertainty k = 0.181119
         1         3        13        17     9      180.000000        8.078772         2    ;  uncertainty k = 0.443297
         1         3        13        17     9        0.000000        1.333895         3    ;  uncertainty k = 0.197684
         1         3        13        17     9      180.000000        1.703363         4    ;  uncertainty k = 0.101848
         1         7         8         9     9        0.000000        0.006656         1    ;  uncertainty k = 0.178742
         1         7         8         9     9      180.000000        9.851306         2    ;  uncertainty k = 0.487067
         1         7         8         9     9        0.000000       -0.289375         3    ;  uncertainty k = 0.510037
         1         7         8         9     9      180.000000        1.102178         4    ;  uncertainty k = 0.341530
         1         7         8        23     9        0.000000        0.058690         1    ;  uncertainty k = 0.184961
         1         7         8        23     9      180.000000        5.722279         2    ;  uncertainty k = 0.634542
         1         7         8        23     9        0.000000        1.318867         3    ;  uncertainty k = 0.348930
         1         7         8        23     9      180.000000        1.524759         4    ;  uncertainty k = 0.200416
         2        12         6         5     9        0.000000        0.274723         1    ;  uncertainty k = 0.612445
         2        12         6         5     9      180.000000       13.265960         2    ;  uncertainty k = 0.390905
         2        12         6         5     9        0.000000        1.583089         3    ;  uncertainty k = 0.153381
         2        12         6         5     9      180.000000        1.156602         4    ;  uncertainty k = 0.264713
         2        12         6        26     9        0.000000        0.232027         1    ;  uncertainty k = 0.722469
         2        12         6        26     9      180.000000       10.868764         2    ;  uncertainty k = 0.621677
         2        12         6        26     9        0.000000        1.612121         3    ;  uncertainty k = 0.474367
         2        12         6        26     9      180.000000        1.226062         4    ;  uncertainty k = 0.063655
         2        12        17        13     9        0.000000        2.823567         1    ;  uncertainty k = 2.168048
         2        12        17        13     9      180.000000        2.975857         2    ;  uncertainty k = 0.372945
         2        12        17        13     9        0.000000        1.779033         3    ;  uncertainty k = 0.305822
         2        12        17        13     9      180.000000        0.174992         4    ;  uncertainty k = 0.197831
         2        20        10         5     9        0.000000        0.331484         1    ;  uncertainty k = 1.947359
         2        20        10         5     9      180.000000        4.798430         2    ;  uncertainty k = 0.782129
         2        20        10         5     9        0.000000        0.305833         3    ;  uncertainty k = 0.498183
         2        20        10         5     9      180.000000        0.064735         4    ;  uncertainty k = 0.079850
         2        20        10        21     9        0.000000       -0.182236         1    ;  uncertainty k = 1.461660
         2        20        10        21     9      180.000000        7.612962         2    ;  uncertainty k = 0.200018
         2        20        10        21     9        0.000000        0.841678         3    ;  uncertainty k = 0.570126
         2        20        10        21     9      180.000000       -0.220190         4    ;  uncertainty k = 0.165307
         2        20        14        29     9        0.000000       -0.140292         1    ;  uncertainty k = 0.225852
         2        20        14        29     9      180.000000        0.717668         2    ;  uncertainty k = 0.271079
         2        20        14        29     9        0.000000        0.702955         3    ;  uncertainty k = 0.095742
         2        20        14        29     9      180.000000        0.500419         4    ;  uncertainty k = 0.086324
         2        20        14        30     9        0.000000       -0.140292         1    ;  uncertainty k = 0.225852
         2        20        14        30     9      180.000000        0.717668         2    ;  uncertainty k = 0.271079
         2        20        14        30     9        0.000000        0.702955         3    ;  uncertainty k = 0.095742
         2        20        14        30     9      180.000000        0.500419         4    ;  uncertainty k = 0.086324
         2        20        14        31     9        0.000000       -0.140292         1    ;  uncertainty k = 0.225852
         2        20        14        31     9      180.000000        0.717668         2    ;  uncertainty k = 0.271079
         2        20        14        31     9        0.000000        0.702955         3    ;  uncertainty k = 0.095742
         2        20        14        31     9      180.000000        0.500419         4    ;  uncertainty k = 0.086324
         3         1         7         8     9        0.000000       -0.049959         1    ;  uncertainty k = 0.238365
         3         1         7         8     9      180.000000        8.709297         2    ;  uncertainty k = 0.507640
         3         1         7         8     9        0.000000       -0.103094         3    ;  uncertainty k = 0.454333
         3         1         7         8     9      180.000000        1.263124         4    ;  uncertainty k = 0.287252
         3         1         7        16     9        0.000000        0.023050         1    ;  uncertainty k = 0.157478
         3         1         7        16     9      180.000000       12.231401         2    ;  uncertainty k = 0.567990
         3         1         7        16     9        0.000000        1.527926         3    ;  uncertainty k = 0.329456
         3         1         7        16     9      180.000000        1.522411         4    ;  uncertainty k = 0.258192
         3        13         9         8     9        0.000000        0.015776         1    ;  uncertainty k = 0.049644
         3        13         9         8     9      180.000000        9.130352         2    ;  uncertainty k = 0.496855
         3        13         9         8     9        0.000000        0.154802         3    ;  uncertainty k = 0.380221
         3        13         9         8     9      180.000000        1.321067         4    ;  uncertainty k = 0.368043
         3        13         9        24     9        0.000000        0.146476         1    ;  uncertainty k = 0.242432
         3        13         9        24     9      180.000000        6.097361         2    ;  uncertainty k = 0.718867
         3        13         9        24     9        0.000000        1.323120         3    ;  uncertainty k = 0.435541
         3        13         9        24     9      180.000000        1.565701         4    ;  uncertainty k = 0.129358
         3        13        17        12     9        0.000000        3.630851         1    ;  uncertainty k = 0.784137
         3        13        17        12     9      180.000000        2.972220         2    ;  uncertainty k = 0.332620
         3        13        17        12     9        0.000000        0.841399         3    ;  uncertainty k = 0.226489
         3        13        17        12     9      180.000000        0.049554         4    ;  uncertainty k = 0.189241
         4        18        11         5     9        0.000000       -0.078208         1    ;  uncertainty k = 0.764942
         4        18        11         5     9      180.000000       17.198198         2    ;  uncertainty k = 0.580176
         4        18        11         5     9        0.000000       -0.500576         3    ;  uncertainty k = 0.698538
         4        18        11         5     9      180.000000        1.646590         4    ;  uncertainty k = 0.599356
         4        18        11        27     9        0.000000        0.075837         1    ;  uncertainty k = 1.010662
         4        18        11        27     9      180.000000       17.914649         2    ;  uncertainty k = 0.659061
         4        18        11        27     9        0.000000        1.396048         3    ;  uncertainty k = 0.761055
         4        18        11        27     9      180.000000        1.119927         4    ;  uncertainty k = 0.470880
         4        21        10         5     9        0.000000        0.233397         1    ;  uncertainty k = 0.863577
         4        21        10         5     9      180.000000       12.586285         2    ;  uncertainty k = 0.665445
         4        21        10         5     9        0.000000        0.190796         3    ;  uncertainty k = 0.839394
         4        21        10         5     9      180.000000        0.956845         4    ;  uncertainty k = 0.414892
         4        21        10        20     9        0.000000        0.505037         1    ;  uncertainty k = 0.733896
         4        21        10        20     9      180.000000       15.978873         2    ;  uncertainty k = 1.062988
         4        21        10        20     9        0.000000        1.709569         3    ;  uncertainty k = 0.314551
         4        21        10        20     9      180.000000        1.124705         4    ;  uncertainty k = 0.406908
         4        22        33        28     9        0.000000        0.575928         1    ;  uncertainty k = 0.752942
         4        22        33        28     9      180.000000        0.082364         2    ;  uncertainty k = 0.520383
         4        22        33        28     9        0.000000        0.044560         3    ;  uncertainty k = 0.102122
         4        22        33        28     9      180.000000        0.239584         4    ;  uncertainty k = 0.059836
         4        22        33        34     9        0.000000       -3.232074         1    ;  uncertainty k = 0.755451
         4        22        33        34     9      180.000000        0.640852         2    ;  uncertainty k = 0.273755
         4        22        33        34     9        0.000000        0.385304         3    ;  uncertainty k = 0.269307
         4        22        33        34     9      180.000000        0.416296         4    ;  uncertainty k = 0.093056
         4        22        33        37     9        0.000000       -1.036474         1    ;  uncertainty k = 0.943588
         4        22        33        37     9      180.000000        0.157439         2    ;  uncertainty k = 0.137387
         4        22        33        37     9        0.000000        0.290142         3    ;  uncertainty k = 0.134954
         4        22        33        37     9      180.000000        0.423017         4    ;  uncertainty k = 0.051572
         5         6        12        17     9        0.000000        0.193043         1    ;  uncertainty k = 0.324392
         5         6        12        17     9      180.000000       21.054666         2    ;  uncertainty k = 0.625248
         5         6        12        17     9        0.000000        2.056948         3    ;  uncertainty k = 0.278841
         5         6        12        17     9      180.000000        0.671228         4    ;  uncertainty k = 0.565745
         5        10        20        14     9        0.000000        2.963689         1    ;  uncertainty k = 2.023224
         5        10        20        14     9      180.000000        9.115856         2    ;  uncertainty k = 0.517977
         5        10        20        14     9        0.000000        1.034005         3    ;  uncertainty k = 0.674147
         5        10        20        14     9      180.000000        0.107306         4    ;  uncertainty k = 0.311841
         6         5        10        20     9        0.000000       -0.061837         1    ;  uncertainty k = 0.340392
         6         5        10        20     9      180.000000        8.053886         2    ;  uncertainty k = 0.665981
         6         5        10        20     9        0.000000        0.285817         3    ;  uncertainty k = 0.538252
         6         5        10        20     9      180.000000        1.055045         4    ;  uncertainty k = 0.279140
         6         5        10        21     9        0.000000        0.149388         1    ;  uncertainty k = 0.958681
         6         5        10        21     9      180.000000        8.055134         2    ;  uncertainty k = 1.516606
         6         5        10        21     9        0.000000       -0.001730         3    ;  uncertainty k = 0.302567
         6         5        10        21     9      180.000000        1.287242         4    ;  uncertainty k = 0.562714
         6         5        11        18     9        0.000000        0.176337         1    ;  uncertainty k = 0.445121
         6         5        11        18     9      180.000000       10.737282         2    ;  uncertainty k = 0.606420
         6         5        11        18     9        0.000000        0.290107         3    ;  uncertainty k = 0.250006
         6         5        11        18     9      180.000000        1.240929         4    ;  uncertainty k = 0.375460
         6         5        11        27     9        0.000000       -0.440074         1    ;  uncertainty k = 0.531600
         6         5        11        27     9      180.000000        5.931083         2    ;  uncertainty k = 0.574793
         6         5        11        27     9        0.000000        0.827305         3    ;  uncertainty k = 0.279923
         6         5        11        27     9      180.000000        0.702649         4    ;  uncertainty k = 0.169078
         6        12         2        19     9        0.000000       -2.736885         1    ;  uncertainty k = 0.984089
         6        12         2        19     9      180.000000        2.829386         2    ;  uncertainty k = 0.722306
         6        12         2        19     9        0.000000       -0.148850         3    ;  uncertainty k = 0.456669
         6        12         2        19     9      180.000000       -0.018089         4    ;  uncertainty k = 0.178562
         6        12         2        20     9        0.000000        1.847981         1    ;  uncertainty k = 1.695057
         6        12         2        20     9      180.000000        0.676018         2    ;  uncertainty k = 0.840437
         6        12         2        20     9        0.000000        0.412450         3    ;  uncertainty k = 0.335419
         6        12         2        20     9      180.000000        0.361110         4    ;  uncertainty k = 0.179553
         6        12        17        13     9        0.000000        6.054698         1    ;  uncertainty k = 1.057145
         6        12        17        13     9      180.000000        6.289935         2    ;  uncertainty k = 0.136203
         6        12        17        13     9        0.000000       -0.847804         3    ;  uncertainty k = 0.376269
         6        12        17        13     9      180.000000        0.116643         4    ;  uncertainty k = 0.099457
         7         1         3        13     9        0.000000       -0.028157         1    ;  uncertainty k = 0.164194
         7         1         3        13     9      180.000000        8.671004         2    ;  uncertainty k = 0.512359
         7         1         3        13     9        0.000000        0.207433         3    ;  uncertainty k = 0.509188
         7         1         3        13     9      180.000000        1.302601         4    ;  uncertainty k = 0.281851
         7         1         3        15     9        0.000000       -0.002392         1    ;  uncertainty k = 0.247129
         7         1         3        15     9      180.000000       13.084887         2    ;  uncertainty k = 0.509633
         7         1         3        15     9        0.000000        1.474366         3    ;  uncertainty k = 0.306558
         7         1         3        15     9      180.000000        1.520558         4    ;  uncertainty k = 0.243651
         7         8         9        13     9        0.000000       -0.113542         1    ;  uncertainty k = 0.211768
         7         8         9        13     9      180.000000       13.972594         2    ;  uncertainty k = 0.306737
         7         8         9        13     9        0.000000       -0.786444         3    ;  uncertainty k = 0.554355
         7         8         9        13     9      180.000000        0.930464         4    ;  uncertainty k = 0.288428
         7         8         9        24     9        0.000000       -0.003440         1    ;  uncertainty k = 0.095641
         7         8         9        24     9      180.000000        7.538138         2    ;  uncertainty k = 0.273713
         7         8         9        24     9        0.000000        1.412643         3    ;  uncertainty k = 0.270752
         7         8         9        24     9      180.000000        1.740927         4    ;  uncertainty k = 0.123790
         8         7         1        25     9        0.000000        0.138635         1    ;  uncertainty k = 0.151239
         8         7         1        25     9      180.000000        5.451074         2    ;  uncertainty k = 0.660632
         8         7         1        25     9        0.000000        1.286115         3    ;  uncertainty k = 0.294094
         8         7         1        25     9      180.000000        1.480963         4    ;  uncertainty k = 0.179055
         8         9        13        17     9        0.000000       -0.064057         1    ;  uncertainty k = 0.392115
         8         9        13        17     9      180.000000       11.007024         2    ;  uncertainty k = 0.446783
         8         9        13        17     9        0.000000        1.358780         3    ;  uncertainty k = 0.241783
         8         9        13        17     9      180.000000        1.735948         4    ;  uncertainty k = 0.120659
         9         8         7        16     9        0.000000       -0.032001         1    ;  uncertainty k = 0.254449
         9         8         7        16     9      180.000000       12.251927         2    ;  uncertainty k = 0.522356
         9         8         7        16     9        0.000000        1.414423         3    ;  uncertainty k = 0.230243
         9         8         7        16     9      180.000000        1.530094         4    ;  uncertainty k = 0.209632
         9        13         3        15     9        0.000000        0.257162         1    ;  uncertainty k = 0.251999
         9        13         3        15     9      180.000000        8.387430         2    ;  uncertainty k = 0.311300
         9        13         3        15     9        0.000000        1.426919         3    ;  uncertainty k = 0.223314
         9        13         3        15     9      180.000000        1.675064         4    ;  uncertainty k = 0.138706
         9        13        17        12     9        0.000000        4.660947         1    ;  uncertainty k = 1.076529
         9        13        17        12     9      180.000000        3.955354         2    ;  uncertainty k = 0.191196
         9        13        17        12     9        0.000000        0.367207         3    ;  uncertainty k = 0.312421
         9        13        17        12     9      180.000000        0.123949         4    ;  uncertainty k = 0.068754
        10         5         6        12     9        0.000000       -0.034795         1    ;  uncertainty k = 1.095162
        10         5         6        12     9      180.000000        6.531968         2    ;  uncertainty k = 0.964064
        10         5         6        12     9        0.000000        0.256288         3    ;  uncertainty k = 0.386399
        10         5         6        12     9      180.000000        0.545322         4    ;  uncertainty k = 0.200232
        10         5         6        26     9        0.000000        0.699101         1    ;  uncertainty k = 1.084759
        10         5         6        26     9      180.000000        6.201259         2    ;  uncertainty k = 0.671782
        10         5         6        26     9        0.000000        1.069725         3    ;  uncertainty k = 0.311459
        10         5         6        26     9      180.000000        0.198028         4    ;  uncertainty k = 0.158541
        10         5        11        18     9        0.000000        0.109768         1    ;  uncertainty k = 0.587277
        10         5        11        18     9      180.000000       12.172183         2    ;  uncertainty k = 0.408754
        10         5        11        18     9        0.000000       -1.007530         3    ;  uncertainty k = 0.843204
        10         5        11        18     9      180.000000        0.813438         4    ;  uncertainty k = 0.191002
        10         5        11        27     9        0.000000       -0.155342         1    ;  uncertainty k = 0.871633
        10         5        11        27     9      180.000000        6.532977         2    ;  uncertainty k = 0.838878
        10         5        11        27     9        0.000000        0.670471         3    ;  uncertainty k = 0.054412
        10         5        11        27     9      180.000000        0.766310         4    ;  uncertainty k = 0.216082
        10        20         2        12     9        0.000000        1.629429         1    ;  uncertainty k = 2.255599
        10        20         2        12     9      180.000000        2.531355         2    ;  uncertainty k = 0.856651
        10        20         2        12     9        0.000000        0.937736         3    ;  uncertainty k = 0.272382
        10        20         2        12     9      180.000000        0.440500         4    ;  uncertainty k = 0.214581
        10        20         2        19     9        0.000000        2.587589         1    ;  uncertainty k = 2.609918
        10        20         2        19     9      180.000000       13.774736         2    ;  uncertainty k = 0.650205
        10        20         2        19     9        0.000000        0.926397         3    ;  uncertainty k = 0.098516
        10        20         2        19     9      180.000000       -0.444489         4    ;  uncertainty k = 0.520967
        10        20        14        29     9        0.000000       -0.519291         1    ;  uncertainty k = 0.421426
        10        20        14        29     9      180.000000        1.062070         2    ;  uncertainty k = 0.171695
        10        20        14        29     9        0.000000        0.340240         3    ;  uncertainty k = 0.203775
        10        20        14        29     9      180.000000        0.464013         4    ;  uncertainty k = 0.154658
        10        20        14        30     9        0.000000       -0.519291         1    ;  uncertainty k = 0.421426
        10        20        14        30     9      180.000000        1.062070         2    ;  uncertainty k = 0.171695
        10        20        14        30     9        0.000000        0.340240         3    ;  uncertainty k = 0.203775
        10        20        14        30     9      180.000000        0.464013         4    ;  uncertainty k = 0.154658
        10        20        14        31     9        0.000000       -0.519291         1    ;  uncertainty k = 0.421426
        10        20        14        31     9      180.000000        1.062070         2    ;  uncertainty k = 0.171695
        10        20        14        31     9        0.000000        0.340240         3    ;  uncertainty k = 0.203775
        10        20        14        31     9      180.000000        0.464013         4    ;  uncertainty k = 0.154658
        10        21         4        18     9        0.000000       -0.011284         1    ;  uncertainty k = 1.534234
        10        21         4        18     9      180.000000        6.998260         2    ;  uncertainty k = 0.879495
        10        21         4        18     9        0.000000        1.237052         3    ;  uncertainty k = 0.700866
        10        21         4        18     9      180.000000        0.801283         4    ;  uncertainty k = 0.299212
        10        21         4        22     9        0.000000        0.465643         1    ;  uncertainty k = 1.716228
        10        21         4        22     9      180.000000        9.440375         2    ;  uncertainty k = 0.613820
        10        21         4        22     9        0.000000        1.990971         3    ;  uncertainty k = 0.580224
        10        21         4        22     9      180.000000        0.950437         4    ;  uncertainty k = 0.243721
        11         5         6        12     9        0.000000        0.262469         1    ;  uncertainty k = 0.493681
        11         5         6        12     9      180.000000        5.212771         2    ;  uncertainty k = 1.033979
        11         5         6        12     9        0.000000        0.976697         3    ;  uncertainty k = 0.320034
        11         5         6        12     9      180.000000        0.379245         4    ;  uncertainty k = 0.233399
        11         5         6        26     9        0.000000        0.374622         1    ;  uncertainty k = 0.895733
        11         5         6        26     9      180.000000        5.421491         2    ;  uncertainty k = 0.345879
        11         5         6        26     9        0.000000        0.945765         3    ;  uncertainty k = 0.326504
        11         5         6        26     9      180.000000        0.088303         4    ;  uncertainty k = 0.129734
        11         5        10        20     9        0.000000       -0.729875         1    ;  uncertainty k = 0.833831
        11         5        10        20     9      180.000000        6.184748         2    ;  uncertainty k = 0.801117
        11         5        10        20     9        0.000000        0.123985         3    ;  uncertainty k = 0.246837
        11         5        10        20     9      180.000000        1.035323         4    ;  uncertainty k = 0.305646
        11         5        10        21     9        0.000000       -0.118245         1    ;  uncertainty k = 0.535619
        11         5        10        21     9      180.000000        7.372527         2    ;  uncertainty k = 1.006991
        11         5        10        21     9        0.000000       -0.335983         3    ;  uncertainty k = 0.304686
        11         5        10        21     9      180.000000        1.220541         4    ;  uncertainty k = 0.588489
        11        18         4        21     9        0.000000       -0.114548         1    ;  uncertainty k = 0.817673
        11        18         4        21     9      180.000000        6.673431         2    ;  uncertainty k = 1.329177
        11        18         4        21     9        0.000000        0.784179         3    ;  uncertainty k = 0.503993
        11        18         4        21     9      180.000000        0.527034         4    ;  uncertainty k = 0.219798
        11        18         4        22     9        0.000000        0.221416         1    ;  uncertainty k = 0.833351
        11        18         4        22     9      180.000000        7.807681         2    ;  uncertainty k = 0.492473
        11        18         4        22     9        0.000000        1.817668         3    ;  uncertainty k = 0.623650
        11        18         4        22     9      180.000000        0.703411         4    ;  uncertainty k = 0.231383
        12         2        20        14     9        0.000000        1.056405         1    ;  uncertainty k = 2.053214
        12         2        20        14     9      180.000000        7.294411         2    ;  uncertainty k = 0.749752
        12         2        20        14     9        0.000000        1.508815         3    ;  uncertainty k = 0.227702
        12         2        20        14     9      180.000000       -0.038609         4    ;  uncertainty k = 0.195181
        13         3         1        25     9        0.000000        0.057379         1    ;  uncertainty k = 0.165911
        13         3         1        25     9      180.000000        5.716951         2    ;  uncertainty k = 0.832327
        13         3         1        25     9        0.000000        1.299980         3    ;  uncertainty k = 0.327602
        13         3         1        25     9      180.000000        1.492424         4    ;  uncertainty k = 0.176810
        13         9         8        23     9        0.000000        0.076709         1    ;  uncertainty k = 0.186984
        13         9         8        23     9      180.000000        7.523892         2    ;  uncertainty k = 0.356925
        13         9         8        23     9        0.000000        1.389232         3    ;  uncertainty k = 0.254789
        13         9         8        23     9      180.000000        1.744370         4    ;  uncertainty k = 0.166848
        14        20         2        19     9        0.000000        0.943199         1    ;  uncertainty k = 0.953019
        14        20         2        19     9      180.000000       13.405517         2    ;  uncertainty k = 0.210551
        14        20         2        19     9        0.000000        0.437924         3    ;  uncertainty k = 0.356109
        14        20         2        19     9      180.000000       -0.037170         4    ;  uncertainty k = 0.148301
        14        20        10        21     9        0.000000        1.841307         1    ;  uncertainty k = 1.358615
        14        20        10        21     9      180.000000       10.576703         2    ;  uncertainty k = 0.790009
        14        20        10        21     9        0.000000        0.869877         3    ;  uncertainty k = 0.307486
        14        20        10        21     9      180.000000        0.213880         4    ;  uncertainty k = 0.460925
        15         3         1        25     9        0.000000       -0.230980         1    ;  uncertainty k = 0.291748
        15         3         1        25     9      180.000000        9.239380         2    ;  uncertainty k = 0.341179
        15         3         1        25     9        0.000000        0.839928         3    ;  uncertainty k = 0.293710
        15         3         1        25     9      180.000000        1.043063         4    ;  uncertainty k = 0.201990
        15         3        13        17     9        0.000000       -0.105793         1    ;  uncertainty k = 0.354022
        15         3        13        17     9      180.000000       12.165824         2    ;  uncertainty k = 0.214592
        15         3        13        17     9        0.000000        1.160865         3    ;  uncertainty k = 0.370829
        15         3        13        17     9      180.000000        1.261897         4    ;  uncertainty k = 0.194088
        16         7         1        25     9        0.000000       -0.271891         1    ;  uncertainty k = 0.249928
        16         7         1        25     9      180.000000        8.500019         2    ;  uncertainty k = 0.281498
        16         7         1        25     9        0.000000        0.815708         3    ;  uncertainty k = 0.327842
        16         7         1        25     9      180.000000        0.992978         4    ;  uncertainty k = 0.194491
        16         7         8        23     9        0.000000       -0.357248         1    ;  uncertainty k = 0.222188
        16         7         8        23     9      180.000000        8.920407         2    ;  uncertainty k = 0.265967
        16         7         8        23     9        0.000000        0.818892         3    ;  uncertainty k = 0.249596
        16         7         8        23     9      180.000000        0.905586         4    ;  uncertainty k = 0.175017
        17        12         2        19     9        0.000000       -2.044631         1    ;  uncertainty k = 1.471510
        17        12         2        19     9      180.000000        9.630818         2    ;  uncertainty k = 0.607857
        17        12         2        19     9        0.000000        0.236984         3    ;  uncertainty k = 0.528742
        17        12         2        19     9      180.000000       -0.331931         4    ;  uncertainty k = 0.518325
        17        12         2        20     9        0.000000        1.503142         1    ;  uncertainty k = 1.118683
        17        12         2        20     9      180.000000        3.516108         2    ;  uncertainty k = 0.667937
        17        12         2        20     9        0.000000        0.738545         3    ;  uncertainty k = 0.316487
        17        12         2        20     9      180.000000        0.529978         4    ;  uncertainty k = 0.123665
        17        12         6        26     9        0.000000        0.176467         1    ;  uncertainty k = 0.770343
        17        12         6        26     9      180.000000       16.282668         2    ;  uncertainty k = 0.417244
        17        12         6        26     9        0.000000        1.907448         3    ;  uncertainty k = 0.070637
        17        12         6        26     9      180.000000        0.957052         4    ;  uncertainty k = 0.581336
        17        13         9        24     9        0.000000       -0.025816         1    ;  uncertainty k = 0.162969
        17        13         9        24     9      180.000000        8.757822         2    ;  uncertainty k = 0.242306
        17        13         9        24     9        0.000000        0.878698         3    ;  uncertainty k = 0.265252
        17        13         9        24     9      180.000000        1.203360         4    ;  uncertainty k = 0.152721
        18         4        22        32     9        0.000000        9.906347         1    ;  uncertainty k = 0.590525
        18         4        22        32     9      180.000000        9.365256         2    ;  uncertainty k = 0.283007
        18         4        22        32     9        0.000000        1.197671         3    ;  uncertainty k = 0.497880
        18         4        22        32     9      180.000000       -0.404292         4    ;  uncertainty k = 0.238992
        18         4        22        33     9        0.000000        9.187915         1    ;  uncertainty k = 0.713477
        18         4        22        33     9      180.000000       11.114623         2    ;  uncertainty k = 0.078777
        18         4        22        33     9        0.000000        1.311869         3    ;  uncertainty k = 0.213544
        18         4        22        33     9      180.000000       -0.277593         4    ;  uncertainty k = 0.035966
        21         4        22        32     9        0.000000       11.640956         1    ;  uncertainty k = 0.709755
        21         4        22        32     9      180.000000        9.686974         2    ;  uncertainty k = 0.368631
        21         4        22        32     9        0.000000        1.157976         3    ;  uncertainty k = 0.530816
        21         4        22        32     9      180.000000       -0.493638         4    ;  uncertainty k = 0.164831
        21         4        22        33     9        0.000000       10.079852         1    ;  uncertainty k = 0.710286
        21         4        22        33     9      180.000000       11.355229         2    ;  uncertainty k = 0.178779
        21         4        22        33     9        0.000000        1.218929         3    ;  uncertainty k = 0.234098
        21         4        22        33     9      180.000000       -0.314160         4    ;  uncertainty k = 0.081703
        22        33        34        35     9        0.000000       -2.762014         1    ;  uncertainty k = 1.287266
        22        33        34        35     9      180.000000        0.089929         2    ;  uncertainty k = 0.805237
        22        33        34        35     9        0.000000        1.081435         3    ;  uncertainty k = 0.337758
        22        33        34        35     9      180.000000       -0.185679         4    ;  uncertainty k = 0.198591
        22        33        34        38     9        0.000000       -0.391206         1    ;  uncertainty k = 0.193493
        22        33        34        38     9      180.000000       -0.489647         2    ;  uncertainty k = 0.159532
        22        33        34        38     9        0.000000        1.271531         3    ;  uncertainty k = 0.074627
        22        33        34        38     9      180.000000       -0.032491         4    ;  uncertainty k = 0.134978
        22        33        34        39     9        0.000000       -0.391206         1    ;  uncertainty k = 0.193493
        22        33        34        39     9      180.000000       -0.489647         2    ;  uncertainty k = 0.159532
        22        33        34        39     9        0.000000        1.271531         3    ;  uncertainty k = 0.074627
        22        33        34        39     9      180.000000       -0.032491         4    ;  uncertainty k = 0.134978
        22        33        37        36     9        0.000000       -0.543253         1    ;  uncertainty k = 1.345593
        22        33        37        36     9      180.000000       -2.602214         2    ;  uncertainty k = 0.990722
        22        33        37        36     9        0.000000        2.243248         3    ;  uncertainty k = 0.167056
        22        33        37        36     9      180.000000       -0.080720         4    ;  uncertainty k = 0.117600
        22        33        37        42     9        0.000000        0.275053         1    ;  uncertainty k = 0.359202
        22        33        37        42     9      180.000000       -0.449841         2    ;  uncertainty k = 0.207358
        22        33        37        42     9        0.000000        0.813906         3    ;  uncertainty k = 0.200913
        22        33        37        42     9      180.000000       -0.145471         4    ;  uncertainty k = 0.070580
        22        33        37        43     9        0.000000        0.275053         1    ;  uncertainty k = 0.359202
        22        33        37        43     9      180.000000       -0.449841         2    ;  uncertainty k = 0.207358
        22        33        37        43     9        0.000000        0.813906         3    ;  uncertainty k = 0.200913
        22        33        37        43     9      180.000000       -0.145471         4    ;  uncertainty k = 0.070580
        23         8         9        24     9        0.000000        0.032265         1    ;  uncertainty k = 0.250069
        23         8         9        24     9      180.000000        7.287468         2    ;  uncertainty k = 0.427630
        23         8         9        24     9        0.000000       -0.295849         3    ;  uncertainty k = 0.226115
        23         8         9        24     9      180.000000        0.117549         4    ;  uncertainty k = 0.137082
        28        33        22        32     9        0.000000        1.333358         1    ;  uncertainty k = 0.804635
        28        33        22        32     9      180.000000       -1.628617         2    ;  uncertainty k = 0.335598
        28        33        22        32     9        0.000000        0.051596         3    ;  uncertainty k = 0.154624
        28        33        22        32     9      180.000000        0.080603         4    ;  uncertainty k = 0.090264
        28        33        34        35     9        0.000000       -1.789977         1    ;  uncertainty k = 0.785616
        28        33        34        35     9      180.000000        0.510584         2    ;  uncertainty k = 0.400573
        28        33        34        35     9        0.000000        0.377406         3    ;  uncertainty k = 0.150711
        28        33        34        35     9      180.000000        0.027392         4    ;  uncertainty k = 0.057932
        28        33        34        38     9        0.000000        1.014070         1    ;  uncertainty k = 0.144448
        28        33        34        38     9      180.000000       -0.418235         2    ;  uncertainty k = 0.071893
        28        33        34        38     9        0.000000        0.666906         3    ;  uncertainty k = 0.119098
        28        33        34        38     9      180.000000        0.061275         4    ;  uncertainty k = 0.018070
        28        33        34        39     9        0.000000        1.014070         1    ;  uncertainty k = 0.144448
        28        33        34        39     9      180.000000       -0.418235         2    ;  uncertainty k = 0.071893
        28        33        34        39     9        0.000000        0.666906         3    ;  uncertainty k = 0.119098
        28        33        34        39     9      180.000000        0.061275         4    ;  uncertainty k = 0.018070
        28        33        37        36     9        0.000000       -0.208120         1    ;  uncertainty k = 0.685764
        28        33        37        36     9      180.000000        1.448013         2    ;  uncertainty k = 0.487703
        28        33        37        36     9        0.000000        1.158873         3    ;  uncertainty k = 0.360149
        28        33        37        36     9      180.000000        0.200820         4    ;  uncertainty k = 0.103909
        28        33        37        42     9        0.000000        0.178842         1    ;  uncertainty k = 0.581853
        28        33        37        42     9      180.000000       -0.506643         2    ;  uncertainty k = 0.163039
        28        33        37        42     9        0.000000        0.163491         3    ;  uncertainty k = 0.109482
        28        33        37        42     9      180.000000       -0.076925         4    ;  uncertainty k = 0.053790
        28        33        37        43     9        0.000000        0.178842         1    ;  uncertainty k = 0.581853
        28        33        37        43     9      180.000000       -0.506643         2    ;  uncertainty k = 0.163039
        28        33        37        43     9        0.000000        0.163491         3    ;  uncertainty k = 0.109482
        28        33        37        43     9      180.000000       -0.076925         4    ;  uncertainty k = 0.053790
        32        22        33        34     9        0.000000        4.661098         1    ;  uncertainty k = 1.315606
        32        22        33        34     9      180.000000       -0.892358         2    ;  uncertainty k = 0.323251
        32        22        33        34     9        0.000000        0.471083         3    ;  uncertainty k = 0.176352
        32        22        33        34     9      180.000000        0.083982         4    ;  uncertainty k = 0.086211
        32        22        33        37     9        0.000000        4.292474         1    ;  uncertainty k = 1.433309
        32        22        33        37     9      180.000000       -1.442803         2    ;  uncertainty k = 0.360691
        32        22        33        37     9        0.000000        0.506596         3    ;  uncertainty k = 0.281333
        32        22        33        37     9      180.000000        0.084262         4    ;  uncertainty k = 0.069514
        33        34        35        36     9        0.000000       -0.352268         1    ;  uncertainty k = 0.430166
        33        34        35        36     9      180.000000        0.024972         2    ;  uncertainty k = 1.394377
        33        34        35        36     9        0.000000        1.015416         3    ;  uncertainty k = 0.335063
        33        34        35        36     9      180.000000       -1.392777         4    ;  uncertainty k = 0.325111
        33        34        35        40     9        0.000000        1.095035         1    ;  uncertainty k = 0.397083
        33        34        35        40     9      180.000000       -1.702266         2    ;  uncertainty k = 0.292058
        33        34        35        40     9        0.000000       -0.463228         3    ;  uncertainty k = 0.216824
        33        34        35        40     9      180.000000        0.138302         4    ;  uncertainty k = 0.172924
        33        34        35        41     9        0.000000        1.095035         1    ;  uncertainty k = 0.397083
        33        34        35        41     9      180.000000       -1.702266         2    ;  uncertainty k = 0.292059
        33        34        35        41     9        0.000000       -0.463228         3    ;  uncertainty k = 0.216824
        33        34        35        41     9      180.000000        0.138302         4    ;  uncertainty k = 0.172924
        33        37        36        35     9        0.000000       -0.032661         1    ;  uncertainty k = 0.515159
        33        37        36        35     9      180.000000        0.142344         2    ;  uncertainty k = 0.984236
        33        37        36        35     9        0.000000        0.684611         3    ;  uncertainty k = 0.302343
        33        37        36        35     9      180.000000       -0.480181         4    ;  uncertainty k = 0.183040
        34        33        37        36     9        0.000000        0.056936         1    ;  uncertainty k = 1.078482
        34        33        37        36     9      180.000000        0.779831         2    ;  uncertainty k = 1.787710
        34        33        37        36     9        0.000000        0.993563         3    ;  uncertainty k = 0.401432
        34        33        37        36     9      180.000000       -1.152708         4    ;  uncertainty k = 0.254352
        34        33        37        42     9        0.000000        0.703251         1    ;  uncertainty k = 0.043303
        34        33        37        42     9      180.000000       -1.334208         2    ;  uncertainty k = 0.211210
        34        33        37        42     9        0.000000       -0.632437         3    ;  uncertainty k = 0.284965
        34        33        37        42     9      180.000000        0.031701         4    ;  uncertainty k = 0.173912
        34        33        37        43     9        0.000000        0.703251         1    ;  uncertainty k = 0.043303
        34        33        37        43     9      180.000000       -1.334208         2    ;  uncertainty k = 0.211210
        34        33        37        43     9        0.000000       -0.632437         3    ;  uncertainty k = 0.284965
        34        33        37        43     9      180.000000        0.031701         4    ;  uncertainty k = 0.173912
        34        35        36        37     9        0.000000       -0.087893         1    ;  uncertainty k = 0.549417
        34        35        36        37     9      180.000000        0.529767         2    ;  uncertainty k = 0.843603
        34        35        36        37     9        0.000000        0.621549         3    ;  uncertainty k = 0.268003
        34        35        36        37     9      180.000000       -0.306574         4    ;  uncertainty k = 0.198382
        35        34        33        37     9        0.000000       -0.369603         1    ;  uncertainty k = 1.546555
        35        34        33        37     9      180.000000        9.915764         2    ;  uncertainty k = 0.982340
        35        34        33        37     9        0.000000       -0.301551         3    ;  uncertainty k = 0.441302
        35        34        33        37     9      180.000000       -2.203948         4    ;  uncertainty k = 0.531543
        35        36        37        42     9        0.000000       -2.848308         1    ;  uncertainty k = 1.041947
        35        36        37        42     9      180.000000        0.401576         2    ;  uncertainty k = 0.641499
        35        36        37        42     9        0.000000        1.150785         3    ;  uncertainty k = 0.227923
        35        36        37        42     9      180.000000        0.108564         4    ;  uncertainty k = 0.078822
        35        36        37        43     9        0.000000       -2.848308         1    ;  uncertainty k = 1.041947
        35        36        37        43     9      180.000000        0.401576         2    ;  uncertainty k = 0.641499
        35        36        37        43     9        0.000000        1.150785         3    ;  uncertainty k = 0.227923
        35        36        37        43     9      180.000000        0.108564         4    ;  uncertainty k = 0.078822
        36        35        34        38     9        0.000000       -1.046445         1    ;  uncertainty k = 0.361835
        36        35        34        38     9      180.000000        0.123118         2    ;  uncertainty k = 0.086738
        36        35        34        38     9        0.000000        1.488847         3    ;  uncertainty k = 0.193842
        36        35        34        38     9      180.000000        0.178011         4    ;  uncertainty k = 0.097521
        36        35        34        39     9        0.000000       -1.046445         1    ;  uncertainty k = 0.361835
        36        35        34        39     9      180.000000        0.123118         2    ;  uncertainty k = 0.086738
        36        35        34        39     9        0.000000        1.488847         3    ;  uncertainty k = 0.193842
        36        35        34        39     9      180.000000        0.178011         4    ;  uncertainty k = 0.097521
        37        33        34        38     9        0.000000       -1.183920         1    ;  uncertainty k = 0.571613
        37        33        34        38     9      180.000000       -0.277148         2    ;  uncertainty k = 0.192934
        37        33        34        38     9        0.000000        0.326598         3    ;  uncertainty k = 0.145520
        37        33        34        38     9      180.000000        0.105314         4    ;  uncertainty k = 0.079060
        37        33        34        39     9        0.000000       -1.183920         1    ;  uncertainty k = 0.571613
        37        33        34        39     9      180.000000       -0.277148         2    ;  uncertainty k = 0.192934
        37        33        34        39     9        0.000000        0.326598         3    ;  uncertainty k = 0.145520
        37        33        34        39     9      180.000000        0.105314         4    ;  uncertainty k = 0.079060
        37        36        35        40     9        0.000000       -2.731141         1    ;  uncertainty k = 1.026745
        37        36        35        40     9      180.000000        0.193656         2    ;  uncertainty k = 0.659119
        37        36        35        40     9        0.000000        1.165122         3    ;  uncertainty k = 0.192584
        37        36        35        40     9      180.000000        0.103194         4    ;  uncertainty k = 0.091607
        37        36        35        41     9        0.000000       -2.731141         1    ;  uncertainty k = 1.026745
        37        36        35        41     9      180.000000        0.193655         2    ;  uncertainty k = 0.659119
        37        36        35        41     9        0.000000        1.165122         3    ;  uncertainty k = 0.192583
        37        36        35        41     9      180.000000        0.103194         4    ;  uncertainty k = 0.091607
        38        34        35        40     9        0.000000        0.754149         1    ;  uncertainty k = 0.460120
        38        34        35        40     9      180.000000       -0.165227         2    ;  uncertainty k = 0.215564
        38        34        35        40     9        0.000000        0.382381         3    ;  uncertainty k = 0.069002
        38        34        35        40     9      180.000000        0.001475         4    ;  uncertainty k = 0.038200
        38        34        35        41     9        0.000000        0.754149         1    ;  uncertainty k = 0.460120
        38        34        35        41     9      180.000000       -0.165227         2    ;  uncertainty k = 0.215564
        38        34        35        41     9        0.000000        0.382381         3    ;  uncertainty k = 0.069002
        38        34        35        41     9      180.000000        0.001475         4    ;  uncertainty k = 0.038200
        39        34        35        40     9        0.000000        0.754149         1    ;  uncertainty k = 0.460120
        39        34        35        40     9      180.000000       -0.165227         2    ;  uncertainty k = 0.215564
        39        34        35        40     9        0.000000        0.382381         3    ;  uncertainty k = 0.069002
        39        34        35        40     9      180.000000        0.001475         4    ;  uncertainty k = 0.038200
        39        34        35        41     9        0.000000        0.754149         1    ;  uncertainty k = 0.460120
        39        34        35        41     9      180.000000       -0.165227         2    ;  uncertainty k = 0.215564
        39        34        35        41     9        0.000000        0.382381         3    ;  uncertainty k = 0.069002
        39        34        35        41     9      180.000000        0.001475         4    ;  uncertainty k = 0.038200

[ dihedrals ] ; impropers
;       ai        aj        ak        al funct           phase               k        pn
         1         3         7        25     4      180.000000        1.109680         2    ;  uncertainty k = 0.271256
         1         7        25         3     4      180.000000        1.109680         2    ;  uncertainty k = 0.271256
         1        25         3         7     4      180.000000        1.109680         2    ;  uncertainty k = 0.271256
         2        12        19        20     4      180.000000       48.355208         2    ;  uncertainty k = 0.046756
         2        19        20        12     4      180.000000       48.355208         2    ;  uncertainty k = 0.046756
         2        20        12        19     4      180.000000       48.355208         2    ;  uncertainty k = 0.046756
         3         1        13        15     4      180.000000       14.318672         2    ;  uncertainty k = 0.052158
         3        13        15         1     4      180.000000       14.318672         2    ;  uncertainty k = 0.052158
         3        15         1        13     4      180.000000       14.318672         2    ;  uncertainty k = 0.052158
         4        18        21        22     4      180.000000       45.842569         2    ;  uncertainty k = 0.103705
         4        21        22        18     4      180.000000       45.842569         2    ;  uncertainty k = 0.103705
         4        22        18        21     4      180.000000       45.842569         2    ;  uncertainty k = 0.103705
         5         6        10        11     4      180.000000        3.625813         2    ;  uncertainty k = 0.567296
         5        10        11         6     4      180.000000        3.625813         2    ;  uncertainty k = 0.567296
         5        11         6        10     4      180.000000        3.625813         2    ;  uncertainty k = 0.567296
         6         5        12        26     4      180.000000        7.429066         2    ;  uncertainty k = 0.367060
         6        12        26         5     4      180.000000        7.429066         2    ;  uncertainty k = 0.367060
         6        26         5        12     4      180.000000        7.429066         2    ;  uncertainty k = 0.367060
         7         1         8        16     4      180.000000       17.110314         2    ;  uncertainty k = 0.053382
         7         8        16         1     4      180.000000       17.110314         2    ;  uncertainty k = 0.053382
         7        16         1         8     4      180.000000       17.110314         2    ;  uncertainty k = 0.053382
         8         7         9        23     4      180.000000        2.090574         2    ;  uncertainty k = 0.191083
         8         9        23         7     4      180.000000        2.090574         2    ;  uncertainty k = 0.191083
         8        23         7         9     4      180.000000        2.090574         2    ;  uncertainty k = 0.191083
         9         8        13        24     4      180.000000        3.395592         2    ;  uncertainty k = 0.158338
         9        13        24         8     4      180.000000        3.395592         2    ;  uncertainty k = 0.158338
         9        24         8        13     4      180.000000        3.395592         2    ;  uncertainty k = 0.158338
        10         5        20        21     4      180.000000       30.895468         2    ;  uncertainty k = 0.079082
        10        20        21         5     4      180.000000       30.895468         2    ;  uncertainty k = 0.079082
        10        21         5        20     4      180.000000       30.895468         2    ;  uncertainty k = 0.079082
        11         5        18        27     4      180.000000       16.780279         2    ;  uncertainty k = 0.058515
        11        18        27         5     4      180.000000       16.780279         2    ;  uncertainty k = 0.058515
        11        27         5        18     4      180.000000       16.780279         2    ;  uncertainty k = 0.058515
        12         2         6        17     4      180.000000       13.109836         2    ;  uncertainty k = 0.278814
        12         6        17         2     4      180.000000       13.109836         2    ;  uncertainty k = 0.278814
        12        17         2         6     4      180.000000       13.109836         2    ;  uncertainty k = 0.278814
        13         3         9        17     4      180.000000       11.882712         2    ;  uncertainty k = 0.189067
        13         9        17         3     4      180.000000       11.882712         2    ;  uncertainty k = 0.189067
        13        17         3         9     4      180.000000       11.882712         2    ;  uncertainty k = 0.189067
        20         2        10        14     4      180.000000        3.538239         2    ;  uncertainty k = 0.777622
        20        10        14         2     4      180.000000        3.538239         2    ;  uncertainty k = 0.777622
        20        14         2        10     4      180.000000        3.538239         2    ;  uncertainty k = 0.777622
        22         4        32        33     4      180.000000        0.522358         2    ;  uncertainty k = 0.733125
        22        32        33         4     4      180.000000        0.522358         2    ;  uncertainty k = 0.733125
        22        33         4        32     4      180.000000        0.522358         2    ;  uncertainty k = 0.733125

[ pairs ]
;       ai        aj funct
         1         9     1
         1        17     1
         1        23     1
         2         5     1
         2        13     1
         2        21     1
         2        26     1
         2        29     1
         2        30     1
         2        31     1
         3         8     1
         3        12     1
         3        16     1
         3        24     1
         4         5     1
         4        20     1
         4        27     1
         4        28     1
         4        34     1
         4        37     1
         5        14     1
         5        17     1
         6        13     1
         6        18     1
         6        19     1
         6        20     1
         6        21     1
         6        27     1
         7        13     1
         7        15     1
         7        24     1
         8        17     1
         8        25     1
         9        12     1
         9        15     1
         9        16     1
        10        12     1
        10        18     1
        10        19     1
        10        22     1
        10        26     1
        10        27     1
        10        29     1
        10        30     1
        10        31     1
        11        12     1
        11        20     1
        11        21     1
        11        22     1
        11        26     1
        12        14     1
        13        23     1
        13        25     1
        14        19     1
        14        21     1
        15        17     1
        15        25     1
        16        23     1
        16        25     1
        17        19     1
        17        20     1
        17        24     1
        17        26     1
        18        32     1
        18        33     1
        21        32     1
        21        33     1
        22        35     1
        22        36     1
        22        38     1
        22        39     1
        22        42     1
        22        43     1
        23        24     1
        28        32     1
        28        35     1
        28        36     1
        28        38     1
        28        39     1
        28        42     1
        28        43     1
        32        34     1
        32        37     1
        33        40     1
        33        41     1
        34        42     1
        34        43     1
        35        42     1
        35        43     1
        36        38     1
        36        39     1
        37        38     1
        37        39     1
        37        40     1
        37        41     1
        38        40     1
        38        41     1
        39        40     1
        39        41     1
