; ITP file created by ByteFF-joint-25, 2026-02-17 09:26:13.600036

[ atomtypes ]
;name           bonded.type        at.num        mass        charge   ptype           sigma         epsilon
 c0bf                                   6      0.0000       0.00000       A     3.31526e-01     4.13477e-01    ;  uncertainty sigma = 0.000006, epsilon = 0.000754
 c1bf                                   6      0.0000       0.00000       A     3.31559e-01     4.13635e-01    ;  uncertainty sigma = 0.000021, epsilon = 0.001225
 c2bf                                   6      0.0000       0.00000       A     3.31525e-01     4.12996e-01    ;  uncertainty sigma = 0.000006, epsilon = 0.000558
 c3bf                                   6      0.0000       0.00000       A     3.31516e-01     4.14293e-01    ;  uncertainty sigma = 0.000015, epsilon = 0.001189
 c4bf                                   6      0.0000       0.00000       A     3.39756e-01     4.50722e-01    ;  uncertainty sigma = 0.000017, epsilon = 0.001171
 c5bf                                   6      0.0000       0.00000       A     3.31556e-01     4.13424e-01    ;  uncertainty sigma = 0.000018, epsilon = 0.000830
 c6bf                                   6      0.0000       0.00000       A     3.31522e-01     4.12958e-01    ;  uncertainty sigma = 0.000012, epsilon = 0.001253
 c7bf                                   6      0.0000       0.00000       A     3.31521e-01     4.13309e-01    ;  uncertainty sigma = 0.000005, epsilon = 0.000623
 c8bf                                   6      0.0000       0.00000       A     3.31522e-01     4.13402e-01    ;  uncertainty sigma = 0.000004, epsilon = 0.000568
 c9bf                                   6      0.0000       0.00000       A     3.31532e-01     4.13487e-01    ;  uncertainty sigma = 0.000005, epsilon = 0.000789
 c10bf                                  6      0.0000       0.00000       A     3.31528e-01     4.12870e-01    ;  uncertainty sigma = 0.000017, epsilon = 0.001780
 c11bf                                  6      0.0000       0.00000       A     3.31542e-01     4.13625e-01    ;  uncertainty sigma = 0.000007, epsilon = 0.001343
 c12bf                                  6      0.0000       0.00000       A     3.31529e-01     4.13581e-01    ;  uncertainty sigma = 0.000019, epsilon = 0.001027
 c13bf                                  6      0.0000       0.00000       A     3.31544e-01     4.13185e-01    ;  uncertainty sigma = 0.000012, epsilon = 0.000998
 c14bf                                  6      0.0000       0.00000       A     3.39766e-01     4.51313e-01    ;  uncertainty sigma = 0.000006, epsilon = 0.000601
 f15bf                                  9      0.0000       0.00000       A     3.03401e-01     3.48403e-01    ;  uncertainty sigma = 0.000015, epsilon = 0.000906
 f16bf                                  9      0.0000       0.00000       A     3.03426e-01     3.47978e-01    ;  uncertainty sigma = 0.000008, epsilon = 0.000768
 o17bf                                  8      0.0000       0.00000       A     3.15661e-01     3.03543e-01    ;  uncertainty sigma = 0.000052, epsilon = 0.003674
 n18bf                                  7      0.0000       0.00000       A     3.38415e-01     3.93331e-01    ;  uncertainty sigma = 0.000021, epsilon = 0.001053
 o19bf                                  8      0.0000       0.00000       A     3.04803e-01     6.11515e-01    ;  uncertainty sigma = 0.000019, epsilon = 0.000440
 n20bf                                  7      0.0000       0.00000       A     3.18128e-01     6.83563e-01    ;  uncertainty sigma = 0.000031, epsilon = 0.001981
 n21bf                                  7      0.0000       0.00000       A     3.38437e-01     3.92831e-01    ;  uncertainty sigma = 0.000048, epsilon = 0.001268
 n22bf                                  7      0.0000       0.00000       A     3.27822e-01     6.47393e-01    ;  uncertainty sigma = 0.000058, epsilon = 0.003764
 h23bf                                  1      0.0000       0.00000       A     2.62564e-01     6.70554e-02    ;  uncertainty sigma = 0.000012, epsilon = 0.000465
 h24bf                                  1      0.0000       0.00000       A     2.62548e-01     6.71486e-02    ;  uncertainty sigma = 0.000008, epsilon = 0.000492
 h25bf                                  1      0.0000       0.00000       A     2.62562e-01     6.73680e-02    ;  uncertainty sigma = 0.000008, epsilon = 0.000365
 h26bf                                  1      0.0000       0.00000       A     2.62521e-01     6.67593e-02    ;  uncertainty sigma = 0.000018, epsilon = 0.000881
 h27bf                                  1      0.0000       0.00000       A     2.53663e-01     6.71784e-02    ;  uncertainty sigma = 0.000041, epsilon = 0.000925
 h28bf                                  1      0.0000       0.00000       A     2.42238e-01     8.69799e-02    ;  uncertainty sigma = 0.000043, epsilon = 0.000657
 h29bf                                  1      0.0000       0.00000       A     2.42206e-01     8.67702e-02    ;  uncertainty sigma = 0.000014, epsilon = 0.000617
 h30bf                                  1      0.0000       0.00000       A     2.42206e-01     8.67702e-02    ;  uncertainty sigma = 0.000014, epsilon = 0.000617
 h31bf                                  1      0.0000       0.00000       A     2.42206e-01     8.67702e-02    ;  uncertainty sigma = 0.000014, epsilon = 0.000617
 h32bf                                  1      0.0000       0.00000       A     1.10629e-01     4.15435e-02    ;  uncertainty sigma = 0.000093, epsilon = 0.000741
 h33bf                                  1      0.0000       0.00000       A     2.42238e-01     8.69799e-02    ;  uncertainty sigma = 0.000043, epsilon = 0.000657
 c34bf                                  6      0.0000       0.00000       A     3.39771e-01     4.50675e-01    ;  uncertainty sigma = 0.000023, epsilon = 0.001122
 o35bf                                  8      0.0000       0.00000       A     3.24287e-01     3.89099e-01    ;  uncertainty sigma = 0.000024, epsilon = 0.001418
 h36bf                                  1      0.0000       0.00000       A     5.38187e-02     1.93033e-02    ;  uncertainty sigma = 0.000128, epsilon = 0.001355
 c37bf                                  6      0.0000       0.00000       A     3.39775e-01     4.50701e-01    ;  uncertainty sigma = 0.000006, epsilon = 0.000507
 h38bf                                  1      0.0000       0.00000       A     2.60025e-01     8.67577e-02    ;  uncertainty sigma = 0.000009, epsilon = 0.000437
 h39bf                                  1      0.0000       0.00000       A     2.60025e-01     8.67577e-02    ;  uncertainty sigma = 0.000009, epsilon = 0.000437
 h40bf                                  1      0.0000       0.00000       A     2.60025e-01     8.67577e-02    ;  uncertainty sigma = 0.000009, epsilon = 0.000437
 c41bf                                  6      0.0000       0.00000       A     3.39775e-01     4.50701e-01    ;  uncertainty sigma = 0.000006, epsilon = 0.000507
 h42bf                                  1      0.0000       0.00000       A     2.60025e-01     8.67577e-02    ;  uncertainty sigma = 0.000009, epsilon = 0.000437
 h43bf                                  1      0.0000       0.00000       A     2.60025e-01     8.67577e-02    ;  uncertainty sigma = 0.000009, epsilon = 0.000437
 h44bf                                  1      0.0000       0.00000       A     2.60025e-01     8.67578e-02    ;  uncertainty sigma = 0.000009, epsilon = 0.000437

[ moleculetype ]
;name             nrexcl
 MOL                   3

[ atoms ]
;       nr            type      resi   res      atom      cgnr      charge          mass ; qtot
         1            c0bf         1   UNL        c0         1    -0.19164       12.0110 ; qtot   -0.192
         2            c1bf         1   UNL        c1         2     0.70215       12.0110 ; qtot    0.511
         3            c2bf         1   UNL        c2         3     0.14567       12.0110 ; qtot    0.656
         4            c3bf         1   UNL        c3         4     0.92247       12.0110 ; qtot    1.579
         5            c4bf         1   UNL        c4         5     0.21232       12.0110 ; qtot    1.791
         6            c5bf         1   UNL        c5         6    -0.40938       12.0110 ; qtot    1.382
         7            c6bf         1   UNL        c6         7    -0.04643       12.0110 ; qtot    1.335
         8            c7bf         1   UNL        c7         8     0.14413       12.0110 ; qtot    1.479
         9            c8bf         1   UNL        c8         9    -0.16248       12.0110 ; qtot    1.317
        10            c9bf         1   UNL        c9        10    -0.09069       12.0110 ; qtot    1.226
        11           c10bf         1   UNL       c10        11     0.63624       12.0110 ; qtot    1.862
        12           c11bf         1   UNL       c11        12     0.52124       12.0110 ; qtot    2.384
        13           c12bf         1   UNL       c12        13     0.00526       12.0110 ; qtot    2.389
        14           c13bf         1   UNL       c13        14     0.04787       12.0110 ; qtot    2.437
        15           c14bf         1   UNL       c14        15     0.08273       12.0110 ; qtot    2.519
        16           f15bf         1   UNL       f15        16    -0.12685       18.9980 ; qtot    2.393
        17           f16bf         1   UNL       f16        17    -0.13805       18.9980 ; qtot    2.255
        18           o17bf         1   UNL       o17        18    -0.21020       15.9990 ; qtot    2.044
        19           n18bf         1   UNL       n18        19    -0.76995       14.0070 ; qtot    1.274
        20           o19bf         1   UNL       o19        20    -0.58915       15.9990 ; qtot    0.685
        21           n20bf         1   UNL       n20        21    -0.43964       14.0070 ; qtot    0.246
        22           n21bf         1   UNL       n21        22    -0.82798       14.0070 ; qtot   -0.582
        23           n22bf         1   UNL       n22        23    -0.85553       14.0070 ; qtot   -1.438
        24           h23bf         1   UNL       h23        24     0.16075        1.0080 ; qtot   -1.277
        25           h24bf         1   UNL       h24        25     0.15721        1.0080 ; qtot   -1.120
        26           h25bf         1   UNL       h25        26     0.17297        1.0080 ; qtot   -0.947
        27           h26bf         1   UNL       h26        27     0.16397        1.0080 ; qtot   -0.783
        28           h27bf         1   UNL       h27        28     0.02899        1.0080 ; qtot   -0.754
        29           h28bf         1   UNL       h28        29     0.06395        1.0080 ; qtot   -0.690
        30           h29bf         1   UNL       h29        30     0.06256        1.0080 ; qtot   -0.627
        31           h30bf         1   UNL       h30        31     0.06256        1.0080 ; qtot   -0.565
        32           h31bf         1   UNL       h31        32     0.06256        1.0080 ; qtot   -0.502
        33           h32bf         1   UNL       h32        33     0.44934        1.0080 ; qtot   -0.053
        34           h33bf         1   UNL       h33        34     0.06395        1.0080 ; qtot    0.011
        35           c34bf         1   UNL       c34        35     0.13622       12.0110 ; qtot    0.147
        36           o35bf         1   UNL       o35        36    -0.60981       15.9990 ; qtot   -0.463
        37           h36bf         1   UNL       h36        37     0.40799        1.0080 ; qtot   -0.055
        38           c37bf         1   UNL       c37        38    -0.10576       12.0110 ; qtot   -0.160
        39           h38bf         1   UNL       h38        39     0.04437        1.0080 ; qtot   -0.116
        40           h39bf         1   UNL       h39        40     0.04437        1.0080 ; qtot   -0.072
        41           h40bf         1   UNL       h40        41     0.04437        1.0080 ; qtot   -0.027
        42           c41bf         1   UNL       c41        42    -0.10576       12.0110 ; qtot   -0.133
        43           h42bf         1   UNL       h42        43     0.04437        1.0080 ; qtot   -0.089
        44           h43bf         1   UNL       h43        44     0.04437        1.0080 ; qtot   -0.044
        45           h44bf         1   UNL       h44        45     0.04435        1.0080 ; qtot    0.000

[ bonds ]
;       ai        aj funct               r               k
         1         3     1        0.138747   361176.981592    ;  uncertainty r = 0.000032, k = 2.643588
         1         8     1        0.139007   367691.396045    ;  uncertainty r = 0.000031, k = 2.749259
         1        26     1        0.108780   338576.282275    ;  uncertainty r = 0.000013, k = 1.210229
         2        13     1        0.146503   257020.024902    ;  uncertainty r = 0.000082, k = 22.735462
         2        20     1        0.123258   653165.404492    ;  uncertainty r = 0.000088, k = 12.275804
         2        21     1        0.140996   234604.673926    ;  uncertainty r = 0.000190, k = 47.108488
         3        14     1        0.139121   358077.006348    ;  uncertainty r = 0.000040, k = 4.650811
         3        16     1        0.134764   340072.935645    ;  uncertainty r = 0.000045, k = 2.589505
         4        19     1        0.136873   534574.848047    ;  uncertainty r = 0.000081, k = 16.021815
         4        22     1        0.135745   622857.299121    ;  uncertainty r = 0.000199, k = 24.497496
         4        23     1        0.139123   567140.791406    ;  uncertainty r = 0.000269, k = 22.486277
         5        23     1        0.144674   261008.793701    ;  uncertainty r = 0.000177, k = 6.992155
         5        29     1        0.109524   306772.749316    ;  uncertainty r = 0.000041, k = 1.704310
         5        34     1        0.109524   306772.749316    ;  uncertainty r = 0.000041, k = 1.704310
         5        35     1        0.152918   198247.848828    ;  uncertainty r = 0.000094, k = 13.003156
         6         7     1        0.142625   274730.546533    ;  uncertainty r = 0.000027, k = 25.477092
         6        11     1        0.142280   412579.914014    ;  uncertainty r = 0.000160, k = 19.583953
         6        12     1        0.140432   398244.734277    ;  uncertainty r = 0.000184, k = 14.574919
         7        13     1        0.135447   409330.648828    ;  uncertainty r = 0.000069, k = 14.135384
         7        27     1        0.108670   334774.368506    ;  uncertainty r = 0.000042, k = 1.864898
         8         9     1        0.138905   362175.303809    ;  uncertainty r = 0.000027, k = 1.862514
         8        17     1        0.135460   342148.081152    ;  uncertainty r = 0.000038, k = 2.796473
         9        10     1        0.139206   376188.256299    ;  uncertainty r = 0.000034, k = 0.837546
         9        24     1        0.108734   335618.242285    ;  uncertainty r = 0.000017, k = 1.062658
        10        14     1        0.139238   351219.092236    ;  uncertainty r = 0.000057, k = 2.910415
        10        25     1        0.108702   335466.041113    ;  uncertainty r = 0.000027, k = 2.133558
        11        21     1        0.137847   263258.536426    ;  uncertainty r = 0.000203, k = 9.254046
        11        22     1        0.133978   451965.414746    ;  uncertainty r = 0.000192, k = 16.255879
        12        19     1        0.133374   406253.580371    ;  uncertainty r = 0.000069, k = 9.819725
        12        28     1        0.108932   329309.656934    ;  uncertainty r = 0.000040, k = 1.993703
        13        18     1        0.136126   317771.224805    ;  uncertainty r = 0.000057, k = 7.847699
        14        18     1        0.138160   312130.434863    ;  uncertainty r = 0.000116, k = 5.846346
        15        21     1        0.146434   260871.378516    ;  uncertainty r = 0.000086, k = 13.117202
        15        30     1        0.109141   308405.949609    ;  uncertainty r = 0.000010, k = 1.505458
        15        31     1        0.109141   308405.949609    ;  uncertainty r = 0.000010, k = 1.505458
        15        32     1        0.109141   308405.949609    ;  uncertainty r = 0.000010, k = 1.505458
        23        33     1        0.102045   435201.987891    ;  uncertainty r = 0.000063, k = 7.237282
        35        36     1        0.144342   251395.042432    ;  uncertainty r = 0.000105, k = 12.614948
        35        38     1        0.152886   206422.583984    ;  uncertainty r = 0.000028, k = 6.358241
        35        42     1        0.152886   206422.583984    ;  uncertainty r = 0.000028, k = 6.358241
        36        37     1        0.097144   460241.072559    ;  uncertainty r = 0.000079, k = 2.042252
        38        39     1        0.109614   310231.035742    ;  uncertainty r = 0.000003, k = 1.166984
        38        40     1        0.109614   310231.035742    ;  uncertainty r = 0.000003, k = 1.166984
        38        41     1        0.109614   310231.035742    ;  uncertainty r = 0.000003, k = 1.166984
        42        43     1        0.109614   310231.035742    ;  uncertainty r = 0.000003, k = 1.166984
        42        44     1        0.109614   310231.035742    ;  uncertainty r = 0.000003, k = 1.166984
        42        45     1        0.109614   310231.035742    ;  uncertainty r = 0.000003, k = 1.166984

[ angles ]
;       ai        aj        ak funct           theta             cth
         1         3        14     1      123.443153      352.584549    ;  uncertainty theta = 0.005265, k = 0.202869
         1         3        16     1      118.916702      524.557093    ;  uncertainty theta = 0.000766, k = 0.063533
         1         8         9     1      122.203163      367.950291    ;  uncertainty theta = 0.004353, k = 0.037976
         1         8        17     1      118.416054      506.109309    ;  uncertainty theta = 0.002115, k = 0.044491
         2        13         7     1      124.683006      439.719752    ;  uncertainty theta = 0.007537, k = 0.191394
         2        13        18     1      108.742836      385.835270    ;  uncertainty theta = 0.008747, k = 0.134414
         2        21        11     1      122.207535      482.934989    ;  uncertainty theta = 0.009442, k = 0.113246
         2        21        15     1      115.396751      421.229959    ;  uncertainty theta = 0.004034, k = 0.268490
         3         1         8     1      117.873718      466.681991    ;  uncertainty theta = 0.002635, k = 0.148809
         3         1        26     1      120.885605      275.043414    ;  uncertainty theta = 0.003104, k = 0.026017
         3        14        10     1      120.438950      350.580333    ;  uncertainty theta = 0.005824, k = 0.197361
         3        14        18     1      117.649757      371.496917    ;  uncertainty theta = 0.004336, k = 0.212601
         4        19        12     1      116.505432      411.074265    ;  uncertainty theta = 0.007464, k = 0.295505
         4        22        11     1      117.304153      447.180386    ;  uncertainty theta = 0.007981, k = 0.217653
         4        23         5     1      116.359642      401.660680    ;  uncertainty theta = 0.004903, k = 0.127890
         4        23        33     1      117.174133      433.238242    ;  uncertainty theta = 0.004049, k = 0.163508
         5        23        33     1      112.344131      331.390408    ;  uncertainty theta = 0.003112, k = 0.102991
         5        35        36     1      108.782486      667.659425    ;  uncertainty theta = 0.001713, k = 0.160816
         5        35        38     1      108.907959      521.961853    ;  uncertainty theta = 0.001332, k = 0.089628
         5        35        42     1      108.907959      521.961853    ;  uncertainty theta = 0.001332, k = 0.089628
         6         7        13     1      121.327866      511.776632    ;  uncertainty theta = 0.006720, k = 0.220926
         6         7        27     1      118.339821      255.619267    ;  uncertainty theta = 0.003231, k = 0.249698
         6        11        21     1      117.673546      482.361936    ;  uncertainty theta = 0.006515, k = 0.137844
         6        11        22     1      122.734756      546.898010    ;  uncertainty theta = 0.006357, k = 0.183941
         6        12        19     1      122.626099      736.870354    ;  uncertainty theta = 0.001324, k = 0.193655
         6        12        28     1      120.196472      259.335475    ;  uncertainty theta = 0.003688, k = 0.144830
         7         6        11     1      119.979813      442.754167    ;  uncertainty theta = 0.011773, k = 0.221309
         7         6        12     1      123.584717      408.523842    ;  uncertainty theta = 0.006835, k = 0.167617
         7        13        18     1      122.452477      425.672203    ;  uncertainty theta = 0.003057, k = 0.087983
         8         1        26     1      122.167213      276.182816    ;  uncertainty theta = 0.001979, k = 0.047518
         8         9        10     1      117.679276      490.002065    ;  uncertainty theta = 0.001416, k = 0.046653
         8         9        24     1      120.978439      282.379204    ;  uncertainty theta = 0.000982, k = 0.023307
         9         8        17     1      119.340736      515.983168    ;  uncertainty theta = 0.001915, k = 0.014125
         9        10        14     1      121.214966      509.817585    ;  uncertainty theta = 0.002734, k = 0.081000
         9        10        25     1      120.371567      284.922126    ;  uncertainty theta = 0.002332, k = 0.030236
        10         9        24     1      121.389076      278.892591    ;  uncertainty theta = 0.001182, k = 0.028037
        10        14        18     1      121.313034      424.254318    ;  uncertainty theta = 0.004582, k = 0.111195
        11         6        12     1      117.403275      430.396887    ;  uncertainty theta = 0.005353, k = 0.232642
        11        21        15     1      116.133522      434.404873    ;  uncertainty theta = 0.006002, k = 0.133710
        13         2        20     1      123.418716      471.104859    ;  uncertainty theta = 0.003206, k = 0.070384
        13         2        21     1      114.431885      323.457720    ;  uncertainty theta = 0.012880, k = 0.672027
        13         7        27     1      120.568748      277.351746    ;  uncertainty theta = 0.005819, k = 0.202769
        13        18        14     1      112.425293      459.717702    ;  uncertainty theta = 0.005379, k = 0.299014
        14         3        16     1      117.525742      487.064690    ;  uncertainty theta = 0.002079, k = 0.147581
        14        10        25     1      118.610428      275.458648    ;  uncertainty theta = 0.003647, k = 0.058785
        19         4        22     1      128.605652      733.511267    ;  uncertainty theta = 0.003752, k = 0.152867
        19         4        23     1      120.954773      831.387984    ;  uncertainty theta = 0.008519, k = 0.215496
        19        12        28     1      117.352844      318.326070    ;  uncertainty theta = 0.003668, k = 0.146509
        20         2        21     1      122.241714      693.873779    ;  uncertainty theta = 0.002201, k = 0.062599
        21        11        22     1      117.267723      579.867120    ;  uncertainty theta = 0.011383, k = 0.182235
        21        15        30     1      107.941574      486.865820    ;  uncertainty theta = 0.001912, k = 0.065460
        21        15        31     1      107.941574      486.865820    ;  uncertainty theta = 0.001912, k = 0.065460
        21        15        32     1      107.941574      486.865820    ;  uncertainty theta = 0.001912, k = 0.065460
        22         4        23     1      121.522751      898.299297    ;  uncertainty theta = 0.008257, k = 0.178385
        23         5        29     1      106.172928      456.001957    ;  uncertainty theta = 0.002570, k = 0.132990
        23         5        34     1      106.172928      456.001957    ;  uncertainty theta = 0.002570, k = 0.132990
        23         5        35     1      109.021851      578.908266    ;  uncertainty theta = 0.002267, k = 0.191582
        29         5        34     1      106.709290      324.504422    ;  uncertainty theta = 0.003164, k = 0.051828
        29         5        35     1      108.147537      378.980056    ;  uncertainty theta = 0.002018, k = 0.106825
        30        15        31     1      107.444313      326.050726    ;  uncertainty theta = 0.002153, k = 0.056617
        30        15        32     1      107.444313      326.050726    ;  uncertainty theta = 0.002153, k = 0.056617
        31        15        32     1      107.444313      326.050726    ;  uncertainty theta = 0.002153, k = 0.056617
        34         5        35     1      108.147537      378.980056    ;  uncertainty theta = 0.002018, k = 0.106825
        35        36        37     1      107.888474      471.565133    ;  uncertainty theta = 0.001789, k = 0.079368
        35        38        39     1      107.111160      376.297000    ;  uncertainty theta = 0.001530, k = 0.041762
        35        38        40     1      107.111160      376.297000    ;  uncertainty theta = 0.001530, k = 0.041762
        35        38        41     1      107.111160      376.297000    ;  uncertainty theta = 0.001530, k = 0.041762
        35        42        43     1      107.111160      376.297000    ;  uncertainty theta = 0.001530, k = 0.041762
        35        42        44     1      107.111160      376.297000    ;  uncertainty theta = 0.001530, k = 0.041762
        35        42        45     1      107.111160      376.297000    ;  uncertainty theta = 0.001530, k = 0.041762
        36        35        38     1      110.028542      684.079020    ;  uncertainty theta = 0.001555, k = 0.077411
        36        35        42     1      110.028542      684.079020    ;  uncertainty theta = 0.001555, k = 0.077411
        38        35        42     1      110.723938      558.340997    ;  uncertainty theta = 0.002410, k = 0.064934
        39        38        40     1      105.604225      317.755188    ;  uncertainty theta = 0.000832, k = 0.010361
        39        38        41     1      105.604225      317.755188    ;  uncertainty theta = 0.000832, k = 0.010361
        40        38        41     1      105.604225      317.755188    ;  uncertainty theta = 0.000832, k = 0.010361
        43        42        44     1      105.604225      317.755156    ;  uncertainty theta = 0.000832, k = 0.010361
        43        42        45     1      105.604225      317.755188    ;  uncertainty theta = 0.000832, k = 0.010361
        44        42        45     1      105.604225      317.755156    ;  uncertainty theta = 0.000832, k = 0.010361

[ dihedrals ] ; propers for gromacs 4.5 or higher, use funct 9
;       ai        aj        ak        al funct           phase               k        pn
         1         3        14        10     9        0.000000       -0.306313         1    ;  uncertainty k = 0.505391
         1         3        14        10     9      180.000000        5.699560         2    ;  uncertainty k = 1.071993
         1         3        14        10     9        0.000000        0.341049         3    ;  uncertainty k = 0.427163
         1         3        14        10     9      180.000000        1.286695         4    ;  uncertainty k = 0.336491
         1         3        14        18     9        0.000000        0.209707         1    ;  uncertainty k = 0.181119
         1         3        14        18     9      180.000000        8.078772         2    ;  uncertainty k = 0.443297
         1         3        14        18     9        0.000000        1.333895         3    ;  uncertainty k = 0.197684
         1         3        14        18     9      180.000000        1.703363         4    ;  uncertainty k = 0.101848
         1         8         9        10     9        0.000000        0.006656         1    ;  uncertainty k = 0.178742
         1         8         9        10     9      180.000000        9.851306         2    ;  uncertainty k = 0.487067
         1         8         9        10     9        0.000000       -0.289375         3    ;  uncertainty k = 0.510037
         1         8         9        10     9      180.000000        1.102178         4    ;  uncertainty k = 0.341530
         1         8         9        24     9        0.000000        0.058690         1    ;  uncertainty k = 0.184961
         1         8         9        24     9      180.000000        5.722279         2    ;  uncertainty k = 0.634542
         1         8         9        24     9        0.000000        1.318867         3    ;  uncertainty k = 0.348930
         1         8         9        24     9      180.000000        1.524759         4    ;  uncertainty k = 0.200416
         2        13         7         6     9        0.000000        0.274723         1    ;  uncertainty k = 0.612445
         2        13         7         6     9      180.000000       13.265960         2    ;  uncertainty k = 0.390905
         2        13         7         6     9        0.000000        1.583089         3    ;  uncertainty k = 0.153381
         2        13         7         6     9      180.000000        1.156602         4    ;  uncertainty k = 0.264713
         2        13         7        27     9        0.000000        0.232027         1    ;  uncertainty k = 0.722469
         2        13         7        27     9      180.000000       10.868764         2    ;  uncertainty k = 0.621677
         2        13         7        27     9        0.000000        1.612121         3    ;  uncertainty k = 0.474367
         2        13         7        27     9      180.000000        1.226062         4    ;  uncertainty k = 0.063655
         2        13        18        14     9        0.000000        2.823567         1    ;  uncertainty k = 2.168048
         2        13        18        14     9      180.000000        2.975857         2    ;  uncertainty k = 0.372945
         2        13        18        14     9        0.000000        1.779033         3    ;  uncertainty k = 0.305822
         2        13        18        14     9      180.000000        0.174992         4    ;  uncertainty k = 0.197831
         2        21        11         6     9        0.000000        0.292829         1    ;  uncertainty k = 2.050985
         2        21        11         6     9      180.000000        4.771235         2    ;  uncertainty k = 0.763748
         2        21        11         6     9        0.000000        0.315618         3    ;  uncertainty k = 0.485892
         2        21        11         6     9      180.000000        0.062498         4    ;  uncertainty k = 0.080087
         2        21        11        22     9        0.000000       -0.195337         1    ;  uncertainty k = 1.568773
         2        21        11        22     9      180.000000        7.536030         2    ;  uncertainty k = 0.225057
         2        21        11        22     9        0.000000        0.873861         3    ;  uncertainty k = 0.566839
         2        21        11        22     9      180.000000       -0.229036         4    ;  uncertainty k = 0.154345
         2        21        15        30     9        0.000000       -0.140292         1    ;  uncertainty k = 0.225852
         2        21        15        30     9      180.000000        0.717668         2    ;  uncertainty k = 0.271079
         2        21        15        30     9        0.000000        0.702955         3    ;  uncertainty k = 0.095742
         2        21        15        30     9      180.000000        0.500419         4    ;  uncertainty k = 0.086324
         2        21        15        31     9        0.000000       -0.140292         1    ;  uncertainty k = 0.225852
         2        21        15        31     9      180.000000        0.717668         2    ;  uncertainty k = 0.271079
         2        21        15        31     9        0.000000        0.702955         3    ;  uncertainty k = 0.095742
         2        21        15        31     9      180.000000        0.500419         4    ;  uncertainty k = 0.086324
         2        21        15        32     9        0.000000       -0.140292         1    ;  uncertainty k = 0.225852
         2        21        15        32     9      180.000000        0.717668         2    ;  uncertainty k = 0.271079
         2        21        15        32     9        0.000000        0.702955         3    ;  uncertainty k = 0.095742
         2        21        15        32     9      180.000000        0.500419         4    ;  uncertainty k = 0.086324
         3         1         8         9     9        0.000000       -0.049959         1    ;  uncertainty k = 0.238365
         3         1         8         9     9      180.000000        8.709297         2    ;  uncertainty k = 0.507640
         3         1         8         9     9        0.000000       -0.103094         3    ;  uncertainty k = 0.454333
         3         1         8         9     9      180.000000        1.263124         4    ;  uncertainty k = 0.287252
         3         1         8        17     9        0.000000        0.023050         1    ;  uncertainty k = 0.157478
         3         1         8        17     9      180.000000       12.231401         2    ;  uncertainty k = 0.567990
         3         1         8        17     9        0.000000        1.527926         3    ;  uncertainty k = 0.329456
         3         1         8        17     9      180.000000        1.522411         4    ;  uncertainty k = 0.258192
         3        14        10         9     9        0.000000        0.015776         1    ;  uncertainty k = 0.049644
         3        14        10         9     9      180.000000        9.130352         2    ;  uncertainty k = 0.496855
         3        14        10         9     9        0.000000        0.154802         3    ;  uncertainty k = 0.380221
         3        14        10         9     9      180.000000        1.321067         4    ;  uncertainty k = 0.368043
         3        14        10        25     9        0.000000        0.146476         1    ;  uncertainty k = 0.242432
         3        14        10        25     9      180.000000        6.097361         2    ;  uncertainty k = 0.718867
         3        14        10        25     9        0.000000        1.323120         3    ;  uncertainty k = 0.435541
         3        14        10        25     9      180.000000        1.565701         4    ;  uncertainty k = 0.129358
         3        14        18        13     9        0.000000        3.630851         1    ;  uncertainty k = 0.784137
         3        14        18        13     9      180.000000        2.972220         2    ;  uncertainty k = 0.332620
         3        14        18        13     9        0.000000        0.841399         3    ;  uncertainty k = 0.226489
         3        14        18        13     9      180.000000        0.049554         4    ;  uncertainty k = 0.189241
         4        19        12         6     9        0.000000       -0.171579         1    ;  uncertainty k = 0.660313
         4        19        12         6     9      180.000000       17.303231         2    ;  uncertainty k = 0.587196
         4        19        12         6     9        0.000000       -0.447701         3    ;  uncertainty k = 0.686216
         4        19        12         6     9      180.000000        1.635961         4    ;  uncertainty k = 0.634863
         4        19        12        28     9        0.000000        0.182521         1    ;  uncertainty k = 0.872515
         4        19        12        28     9      180.000000       17.837054         2    ;  uncertainty k = 0.614073
         4        19        12        28     9        0.000000        1.383805         3    ;  uncertainty k = 0.726944
         4        19        12        28     9      180.000000        1.115263         4    ;  uncertainty k = 0.445579
         4        22        11         6     9        0.000000        0.254031         1    ;  uncertainty k = 0.913998
         4        22        11         6     9      180.000000       12.659911         2    ;  uncertainty k = 0.712918
         4        22        11         6     9        0.000000        0.259207         3    ;  uncertainty k = 0.820554
         4        22        11         6     9      180.000000        0.926656         4    ;  uncertainty k = 0.467820
         4        22        11        21     9        0.000000        0.353926         1    ;  uncertainty k = 0.817672
         4        22        11        21     9      180.000000       15.697546         2    ;  uncertainty k = 1.103696
         4        22        11        21     9        0.000000        1.702917         3    ;  uncertainty k = 0.332777
         4        22        11        21     9      180.000000        1.130300         4    ;  uncertainty k = 0.452380
         4        23         5        29     9        0.000000       -0.985934         1    ;  uncertainty k = 0.177994
         4        23         5        29     9      180.000000       -0.243899         2    ;  uncertainty k = 0.417692
         4        23         5        29     9        0.000000        0.061967         3    ;  uncertainty k = 0.063441
         4        23         5        29     9      180.000000        0.293003         4    ;  uncertainty k = 0.063823
         4        23         5        34     9        0.000000       -0.985934         1    ;  uncertainty k = 0.177994
         4        23         5        34     9      180.000000       -0.243899         2    ;  uncertainty k = 0.417692
         4        23         5        34     9        0.000000        0.061967         3    ;  uncertainty k = 0.063441
         4        23         5        34     9      180.000000        0.293003         4    ;  uncertainty k = 0.063823
         4        23         5        35     9        0.000000       -1.549978         1    ;  uncertainty k = 1.043608
         4        23         5        35     9      180.000000        0.286454         2    ;  uncertainty k = 0.228631
         4        23         5        35     9        0.000000        0.058019         3    ;  uncertainty k = 0.157439
         4        23         5        35     9      180.000000        0.472892         4    ;  uncertainty k = 0.130862
         5        23         4        19     9        0.000000        9.663579         1    ;  uncertainty k = 0.404814
         5        23         4        19     9      180.000000       12.889674         2    ;  uncertainty k = 0.184319
         5        23         4        19     9        0.000000        1.271335         3    ;  uncertainty k = 0.240623
         5        23         4        19     9      180.000000       -0.554532         4    ;  uncertainty k = 0.042622
         5        23         4        22     9        0.000000       10.008533         1    ;  uncertainty k = 0.274081
         5        23         4        22     9      180.000000       13.286208         2    ;  uncertainty k = 0.144298
         5        23         4        22     9        0.000000        1.177252         3    ;  uncertainty k = 0.408989
         5        23         4        22     9      180.000000       -0.652075         4    ;  uncertainty k = 0.070974
         5        35        36        37     9        0.000000       18.072423         1    ;  uncertainty k = 0.191143
         5        35        36        37     9      180.000000       -4.892856         2    ;  uncertainty k = 0.524517
         5        35        36        37     9        0.000000        0.986074         3    ;  uncertainty k = 0.225294
         5        35        36        37     9      180.000000        0.571737         4    ;  uncertainty k = 0.258796
         5        35        38        39     9        0.000000       -0.772387         1    ;  uncertainty k = 0.184977
         5        35        38        39     9      180.000000       -0.749609         2    ;  uncertainty k = 0.143926
         5        35        38        39     9        0.000000        0.499308         3    ;  uncertainty k = 0.052188
         5        35        38        39     9      180.000000       -0.292355         4    ;  uncertainty k = 0.074345
         5        35        38        40     9        0.000000       -0.772387         1    ;  uncertainty k = 0.184977
         5        35        38        40     9      180.000000       -0.749609         2    ;  uncertainty k = 0.143926
         5        35        38        40     9        0.000000        0.499308         3    ;  uncertainty k = 0.052188
         5        35        38        40     9      180.000000       -0.292355         4    ;  uncertainty k = 0.074345
         5        35        38        41     9        0.000000       -0.772387         1    ;  uncertainty k = 0.184977
         5        35        38        41     9      180.000000       -0.749609         2    ;  uncertainty k = 0.143926
         5        35        38        41     9        0.000000        0.499308         3    ;  uncertainty k = 0.052188
         5        35        38        41     9      180.000000       -0.292355         4    ;  uncertainty k = 0.074345
         5        35        42        43     9        0.000000       -0.772387         1    ;  uncertainty k = 0.184977
         5        35        42        43     9      180.000000       -0.749609         2    ;  uncertainty k = 0.143926
         5        35        42        43     9        0.000000        0.499308         3    ;  uncertainty k = 0.052188
         5        35        42        43     9      180.000000       -0.292355         4    ;  uncertainty k = 0.074345
         5        35        42        44     9        0.000000       -0.772387         1    ;  uncertainty k = 0.184977
         5        35        42        44     9      180.000000       -0.749609         2    ;  uncertainty k = 0.143926
         5        35        42        44     9        0.000000        0.499308         3    ;  uncertainty k = 0.052188
         5        35        42        44     9      180.000000       -0.292355         4    ;  uncertainty k = 0.074345
         5        35        42        45     9        0.000000       -0.772387         1    ;  uncertainty k = 0.184977
         5        35        42        45     9      180.000000       -0.749609         2    ;  uncertainty k = 0.143926
         5        35        42        45     9        0.000000        0.499308         3    ;  uncertainty k = 0.052188
         5        35        42        45     9      180.000000       -0.292355         4    ;  uncertainty k = 0.074345
         6         7        13        18     9        0.000000        0.193043         1    ;  uncertainty k = 0.324392
         6         7        13        18     9      180.000000       21.054666         2    ;  uncertainty k = 0.625248
         6         7        13        18     9        0.000000        2.056948         3    ;  uncertainty k = 0.278841
         6         7        13        18     9      180.000000        0.671228         4    ;  uncertainty k = 0.565745
         6        11        21        15     9        0.000000        2.979202         1    ;  uncertainty k = 1.960722
         6        11        21        15     9      180.000000        9.028698         2    ;  uncertainty k = 0.522445
         6        11        21        15     9        0.000000        1.052222         3    ;  uncertainty k = 0.690508
         6        11        21        15     9      180.000000        0.103007         4    ;  uncertainty k = 0.317626
         7         6        11        21     9        0.000000       -0.055109         1    ;  uncertainty k = 0.358970
         7         6        11        21     9      180.000000        8.043977         2    ;  uncertainty k = 0.672672
         7         6        11        21     9        0.000000        0.286966         3    ;  uncertainty k = 0.532218
         7         6        11        21     9      180.000000        1.058111         4    ;  uncertainty k = 0.266965
         7         6        11        22     9        0.000000        0.224587         1    ;  uncertainty k = 0.904923
         7         6        11        22     9      180.000000        8.073459         2    ;  uncertainty k = 1.554984
         7         6        11        22     9        0.000000        0.006319         3    ;  uncertainty k = 0.295935
         7         6        11        22     9      180.000000        1.299987         4    ;  uncertainty k = 0.533560
         7         6        12        19     9        0.000000        0.181279         1    ;  uncertainty k = 0.465981
         7         6        12        19     9      180.000000       10.746310         2    ;  uncertainty k = 0.638941
         7         6        12        19     9        0.000000        0.294168         3    ;  uncertainty k = 0.273557
         7         6        12        19     9      180.000000        1.210654         4    ;  uncertainty k = 0.375724
         7         6        12        28     9        0.000000       -0.429825         1    ;  uncertainty k = 0.536938
         7         6        12        28     9      180.000000        5.931027         2    ;  uncertainty k = 0.523977
         7         6        12        28     9        0.000000        0.831992         3    ;  uncertainty k = 0.274468
         7         6        12        28     9      180.000000        0.681961         4    ;  uncertainty k = 0.180947
         7        13         2        20     9        0.000000       -2.736885         1    ;  uncertainty k = 0.984089
         7        13         2        20     9      180.000000        2.829386         2    ;  uncertainty k = 0.722306
         7        13         2        20     9        0.000000       -0.148850         3    ;  uncertainty k = 0.456669
         7        13         2        20     9      180.000000       -0.018089         4    ;  uncertainty k = 0.178562
         7        13         2        21     9        0.000000        1.847981         1    ;  uncertainty k = 1.695057
         7        13         2        21     9      180.000000        0.676018         2    ;  uncertainty k = 0.840437
         7        13         2        21     9        0.000000        0.412450         3    ;  uncertainty k = 0.335419
         7        13         2        21     9      180.000000        0.361110         4    ;  uncertainty k = 0.179553
         7        13        18        14     9        0.000000        6.054698         1    ;  uncertainty k = 1.057145
         7        13        18        14     9      180.000000        6.289935         2    ;  uncertainty k = 0.136203
         7        13        18        14     9        0.000000       -0.847804         3    ;  uncertainty k = 0.376269
         7        13        18        14     9      180.000000        0.116643         4    ;  uncertainty k = 0.099457
         8         1         3        14     9        0.000000       -0.028157         1    ;  uncertainty k = 0.164194
         8         1         3        14     9      180.000000        8.671004         2    ;  uncertainty k = 0.512359
         8         1         3        14     9        0.000000        0.207433         3    ;  uncertainty k = 0.509188
         8         1         3        14     9      180.000000        1.302601         4    ;  uncertainty k = 0.281851
         8         1         3        16     9        0.000000       -0.002392         1    ;  uncertainty k = 0.247129
         8         1         3        16     9      180.000000       13.084887         2    ;  uncertainty k = 0.509633
         8         1         3        16     9        0.000000        1.474366         3    ;  uncertainty k = 0.306558
         8         1         3        16     9      180.000000        1.520558         4    ;  uncertainty k = 0.243651
         8         9        10        14     9        0.000000       -0.113542         1    ;  uncertainty k = 0.211768
         8         9        10        14     9      180.000000       13.972594         2    ;  uncertainty k = 0.306737
         8         9        10        14     9        0.000000       -0.786444         3    ;  uncertainty k = 0.554355
         8         9        10        14     9      180.000000        0.930464         4    ;  uncertainty k = 0.288428
         8         9        10        25     9        0.000000       -0.003440         1    ;  uncertainty k = 0.095641
         8         9        10        25     9      180.000000        7.538138         2    ;  uncertainty k = 0.273713
         8         9        10        25     9        0.000000        1.412643         3    ;  uncertainty k = 0.270752
         8         9        10        25     9      180.000000        1.740927         4    ;  uncertainty k = 0.123790
         9         8         1        26     9        0.000000        0.138635         1    ;  uncertainty k = 0.151239
         9         8         1        26     9      180.000000        5.451074         2    ;  uncertainty k = 0.660632
         9         8         1        26     9        0.000000        1.286115         3    ;  uncertainty k = 0.294094
         9         8         1        26     9      180.000000        1.480963         4    ;  uncertainty k = 0.179055
         9        10        14        18     9        0.000000       -0.064057         1    ;  uncertainty k = 0.392115
         9        10        14        18     9      180.000000       11.007024         2    ;  uncertainty k = 0.446783
         9        10        14        18     9        0.000000        1.358780         3    ;  uncertainty k = 0.241783
         9        10        14        18     9      180.000000        1.735948         4    ;  uncertainty k = 0.120659
        10         9         8        17     9        0.000000       -0.032001         1    ;  uncertainty k = 0.254449
        10         9         8        17     9      180.000000       12.251927         2    ;  uncertainty k = 0.522356
        10         9         8        17     9        0.000000        1.414423         3    ;  uncertainty k = 0.230243
        10         9         8        17     9      180.000000        1.530094         4    ;  uncertainty k = 0.209632
        10        14         3        16     9        0.000000        0.257162         1    ;  uncertainty k = 0.251999
        10        14         3        16     9      180.000000        8.387430         2    ;  uncertainty k = 0.311300
        10        14         3        16     9        0.000000        1.426919         3    ;  uncertainty k = 0.223314
        10        14         3        16     9      180.000000        1.675064         4    ;  uncertainty k = 0.138706
        10        14        18        13     9        0.000000        4.660947         1    ;  uncertainty k = 1.076529
        10        14        18        13     9      180.000000        3.955354         2    ;  uncertainty k = 0.191196
        10        14        18        13     9        0.000000        0.367207         3    ;  uncertainty k = 0.312421
        10        14        18        13     9      180.000000        0.123949         4    ;  uncertainty k = 0.068754
        11         6         7        13     9        0.000000       -0.025372         1    ;  uncertainty k = 1.114568
        11         6         7        13     9      180.000000        6.557544         2    ;  uncertainty k = 0.948325
        11         6         7        13     9        0.000000        0.243665         3    ;  uncertainty k = 0.389255
        11         6         7        13     9      180.000000        0.542885         4    ;  uncertainty k = 0.194545
        11         6         7        27     9        0.000000        0.722138         1    ;  uncertainty k = 1.061704
        11         6         7        27     9      180.000000        6.218836         2    ;  uncertainty k = 0.684882
        11         6         7        27     9        0.000000        1.076833         3    ;  uncertainty k = 0.330266
        11         6         7        27     9      180.000000        0.199864         4    ;  uncertainty k = 0.161389
        11         6        12        19     9        0.000000        0.016690         1    ;  uncertainty k = 0.642452
        11         6        12        19     9      180.000000       12.163298         2    ;  uncertainty k = 0.430882
        11         6        12        19     9        0.000000       -1.011567         3    ;  uncertainty k = 0.863209
        11         6        12        19     9      180.000000        0.783558         4    ;  uncertainty k = 0.227972
        11         6        12        28     9        0.000000       -0.145544         1    ;  uncertainty k = 0.854535
        11         6        12        28     9      180.000000        6.545969         2    ;  uncertainty k = 0.845282
        11         6        12        28     9        0.000000        0.675850         3    ;  uncertainty k = 0.068222
        11         6        12        28     9      180.000000        0.761488         4    ;  uncertainty k = 0.210437
        11        21         2        13     9        0.000000        1.586106         1    ;  uncertainty k = 2.322553
        11        21         2        13     9      180.000000        2.518871         2    ;  uncertainty k = 0.835154
        11        21         2        13     9        0.000000        0.940113         3    ;  uncertainty k = 0.272741
        11        21         2        13     9      180.000000        0.439431         4    ;  uncertainty k = 0.211173
        11        21         2        20     9        0.000000        2.605736         1    ;  uncertainty k = 2.586638
        11        21         2        20     9      180.000000       13.826008         2    ;  uncertainty k = 0.646503
        11        21         2        20     9        0.000000        0.934382         3    ;  uncertainty k = 0.099179
        11        21         2        20     9      180.000000       -0.443053         4    ;  uncertainty k = 0.498630
        11        21        15        30     9        0.000000       -0.509601         1    ;  uncertainty k = 0.442513
        11        21        15        30     9      180.000000        1.091346         2    ;  uncertainty k = 0.166769
        11        21        15        30     9        0.000000        0.337054         3    ;  uncertainty k = 0.207896
        11        21        15        30     9      180.000000        0.466358         4    ;  uncertainty k = 0.154153
        11        21        15        31     9        0.000000       -0.509601         1    ;  uncertainty k = 0.442513
        11        21        15        31     9      180.000000        1.091346         2    ;  uncertainty k = 0.166769
        11        21        15        31     9        0.000000        0.337054         3    ;  uncertainty k = 0.207896
        11        21        15        31     9      180.000000        0.466358         4    ;  uncertainty k = 0.154153
        11        21        15        32     9        0.000000       -0.509601         1    ;  uncertainty k = 0.442513
        11        21        15        32     9      180.000000        1.091346         2    ;  uncertainty k = 0.166769
        11        21        15        32     9        0.000000        0.337054         3    ;  uncertainty k = 0.207896
        11        21        15        32     9      180.000000        0.466358         4    ;  uncertainty k = 0.154153
        11        22         4        19     9        0.000000        0.202995         1    ;  uncertainty k = 1.645580
        11        22         4        19     9      180.000000        7.152055         2    ;  uncertainty k = 0.916374
        11        22         4        19     9        0.000000        1.295774         3    ;  uncertainty k = 0.673845
        11        22         4        19     9      180.000000        0.781715         4    ;  uncertainty k = 0.282767
        11        22         4        23     9        0.000000        0.346958         1    ;  uncertainty k = 1.877745
        11        22         4        23     9      180.000000        9.236701         2    ;  uncertainty k = 0.579901
        11        22         4        23     9        0.000000        2.030638         3    ;  uncertainty k = 0.460126
        11        22         4        23     9      180.000000        0.992255         4    ;  uncertainty k = 0.287656
        12         6         7        13     9        0.000000        0.253816         1    ;  uncertainty k = 0.506818
        12         6         7        13     9      180.000000        5.236456         2    ;  uncertainty k = 1.028732
        12         6         7        13     9        0.000000        0.968778         3    ;  uncertainty k = 0.317639
        12         6         7        13     9      180.000000        0.380699         4    ;  uncertainty k = 0.231771
        12         6         7        27     9        0.000000        0.380101         1    ;  uncertainty k = 0.916982
        12         6         7        27     9      180.000000        5.440890         2    ;  uncertainty k = 0.354685
        12         6         7        27     9        0.000000        0.946698         3    ;  uncertainty k = 0.312999
        12         6         7        27     9      180.000000        0.085535         4    ;  uncertainty k = 0.135911
        12         6        11        21     9        0.000000       -0.703529         1    ;  uncertainty k = 0.833591
        12         6        11        21     9      180.000000        6.209922         2    ;  uncertainty k = 0.795831
        12         6        11        21     9        0.000000        0.121001         3    ;  uncertainty k = 0.240481
        12         6        11        21     9      180.000000        1.034220         4    ;  uncertainty k = 0.301592
        12         6        11        22     9        0.000000       -0.089820         1    ;  uncertainty k = 0.521191
        12         6        11        22     9      180.000000        7.404123         2    ;  uncertainty k = 1.068472
        12         6        11        22     9        0.000000       -0.343352         3    ;  uncertainty k = 0.320264
        12         6        11        22     9      180.000000        1.220170         4    ;  uncertainty k = 0.565256
        12        19         4        22     9        0.000000        0.048132         1    ;  uncertainty k = 1.057991
        12        19         4        22     9      180.000000        6.629936         2    ;  uncertainty k = 1.413816
        12        19         4        22     9        0.000000        0.737687         3    ;  uncertainty k = 0.502029
        12        19         4        22     9      180.000000        0.516304         4    ;  uncertainty k = 0.224959
        12        19         4        23     9        0.000000        0.575420         1    ;  uncertainty k = 1.063507
        12        19         4        23     9      180.000000        7.897948         2    ;  uncertainty k = 0.580005
        12        19         4        23     9        0.000000        1.873669         3    ;  uncertainty k = 0.532051
        12        19         4        23     9      180.000000        0.745103         4    ;  uncertainty k = 0.173471
        13         2        21        15     9        0.000000        1.056405         1    ;  uncertainty k = 2.053214
        13         2        21        15     9      180.000000        7.294411         2    ;  uncertainty k = 0.749752
        13         2        21        15     9        0.000000        1.508815         3    ;  uncertainty k = 0.227702
        13         2        21        15     9      180.000000       -0.038609         4    ;  uncertainty k = 0.195181
        14         3         1        26     9        0.000000        0.057379         1    ;  uncertainty k = 0.165911
        14         3         1        26     9      180.000000        5.716951         2    ;  uncertainty k = 0.832327
        14         3         1        26     9        0.000000        1.299980         3    ;  uncertainty k = 0.327602
        14         3         1        26     9      180.000000        1.492424         4    ;  uncertainty k = 0.176810
        14        10         9        24     9        0.000000        0.076709         1    ;  uncertainty k = 0.186984
        14        10         9        24     9      180.000000        7.523892         2    ;  uncertainty k = 0.356925
        14        10         9        24     9        0.000000        1.389232         3    ;  uncertainty k = 0.254789
        14        10         9        24     9      180.000000        1.744370         4    ;  uncertainty k = 0.166848
        15        21         2        20     9        0.000000        0.943199         1    ;  uncertainty k = 0.953019
        15        21         2        20     9      180.000000       13.405517         2    ;  uncertainty k = 0.210551
        15        21         2        20     9        0.000000        0.437924         3    ;  uncertainty k = 0.356109
        15        21         2        20     9      180.000000       -0.037170         4    ;  uncertainty k = 0.148301
        15        21        11        22     9        0.000000        1.851531         1    ;  uncertainty k = 1.537213
        15        21        11        22     9      180.000000       10.671053         2    ;  uncertainty k = 0.616104
        15        21        11        22     9        0.000000        0.892790         3    ;  uncertainty k = 0.325612
        15        21        11        22     9      180.000000        0.223477         4    ;  uncertainty k = 0.413708
        16         3         1        26     9        0.000000       -0.230980         1    ;  uncertainty k = 0.291748
        16         3         1        26     9      180.000000        9.239380         2    ;  uncertainty k = 0.341179
        16         3         1        26     9        0.000000        0.839928         3    ;  uncertainty k = 0.293710
        16         3         1        26     9      180.000000        1.043063         4    ;  uncertainty k = 0.201990
        16         3        14        18     9        0.000000       -0.105793         1    ;  uncertainty k = 0.354022
        16         3        14        18     9      180.000000       12.165824         2    ;  uncertainty k = 0.214592
        16         3        14        18     9        0.000000        1.160865         3    ;  uncertainty k = 0.370829
        16         3        14        18     9      180.000000        1.261897         4    ;  uncertainty k = 0.194088
        17         8         1        26     9        0.000000       -0.271891         1    ;  uncertainty k = 0.249928
        17         8         1        26     9      180.000000        8.500019         2    ;  uncertainty k = 0.281498
        17         8         1        26     9        0.000000        0.815708         3    ;  uncertainty k = 0.327842
        17         8         1        26     9      180.000000        0.992978         4    ;  uncertainty k = 0.194491
        17         8         9        24     9        0.000000       -0.357248         1    ;  uncertainty k = 0.222188
        17         8         9        24     9      180.000000        8.920407         2    ;  uncertainty k = 0.265967
        17         8         9        24     9        0.000000        0.818892         3    ;  uncertainty k = 0.249596
        17         8         9        24     9      180.000000        0.905586         4    ;  uncertainty k = 0.175017
        18        13         2        20     9        0.000000       -2.044631         1    ;  uncertainty k = 1.471510
        18        13         2        20     9      180.000000        9.630818         2    ;  uncertainty k = 0.607857
        18        13         2        20     9        0.000000        0.236984         3    ;  uncertainty k = 0.528742
        18        13         2        20     9      180.000000       -0.331931         4    ;  uncertainty k = 0.518325
        18        13         2        21     9        0.000000        1.503142         1    ;  uncertainty k = 1.118683
        18        13         2        21     9      180.000000        3.516108         2    ;  uncertainty k = 0.667937
        18        13         2        21     9        0.000000        0.738545         3    ;  uncertainty k = 0.316487
        18        13         2        21     9      180.000000        0.529978         4    ;  uncertainty k = 0.123665
        18        13         7        27     9        0.000000        0.176467         1    ;  uncertainty k = 0.770343
        18        13         7        27     9      180.000000       16.282668         2    ;  uncertainty k = 0.417244
        18        13         7        27     9        0.000000        1.907448         3    ;  uncertainty k = 0.070637
        18        13         7        27     9      180.000000        0.957052         4    ;  uncertainty k = 0.581336
        18        14        10        25     9        0.000000       -0.025816         1    ;  uncertainty k = 0.162969
        18        14        10        25     9      180.000000        8.757822         2    ;  uncertainty k = 0.242306
        18        14        10        25     9        0.000000        0.878698         3    ;  uncertainty k = 0.265252
        18        14        10        25     9      180.000000        1.203360         4    ;  uncertainty k = 0.152721
        19         4        23        33     9        0.000000       10.077321         1    ;  uncertainty k = 0.752742
        19         4        23        33     9      180.000000        9.883147         2    ;  uncertainty k = 0.274333
        19         4        23        33     9        0.000000        1.243363         3    ;  uncertainty k = 0.447101
        19         4        23        33     9      180.000000       -0.358304         4    ;  uncertainty k = 0.250152
        22         4        23        33     9        0.000000       12.183580         1    ;  uncertainty k = 0.710066
        22         4        23        33     9      180.000000       10.222172         2    ;  uncertainty k = 0.318409
        22         4        23        33     9        0.000000        1.163298         3    ;  uncertainty k = 0.350254
        22         4        23        33     9      180.000000       -0.412232         4    ;  uncertainty k = 0.188394
        23         5        35        36     9        0.000000        0.383539         1    ;  uncertainty k = 1.092071
        23         5        35        36     9      180.000000       -0.967386         2    ;  uncertainty k = 0.466492
        23         5        35        36     9        0.000000        1.485106         3    ;  uncertainty k = 0.314208
        23         5        35        36     9      180.000000       -0.675777         4    ;  uncertainty k = 0.201352
        23         5        35        38     9        0.000000       -1.609630         1    ;  uncertainty k = 0.626124
        23         5        35        38     9      180.000000        0.525365         2    ;  uncertainty k = 0.272400
        23         5        35        38     9        0.000000        1.279911         3    ;  uncertainty k = 0.195566
        23         5        35        38     9      180.000000       -0.177928         4    ;  uncertainty k = 0.070657
        23         5        35        42     9        0.000000       -1.609630         1    ;  uncertainty k = 0.626124
        23         5        35        42     9      180.000000        0.525365         2    ;  uncertainty k = 0.272400
        23         5        35        42     9        0.000000        1.279911         3    ;  uncertainty k = 0.195566
        23         5        35        42     9      180.000000       -0.177928         4    ;  uncertainty k = 0.070657
        24         9        10        25     9        0.000000        0.032265         1    ;  uncertainty k = 0.250069
        24         9        10        25     9      180.000000        7.287468         2    ;  uncertainty k = 0.427630
        24         9        10        25     9        0.000000       -0.295849         3    ;  uncertainty k = 0.226115
        24         9        10        25     9      180.000000        0.117549         4    ;  uncertainty k = 0.137082
        29         5        23        33     9        0.000000        2.531114         1    ;  uncertainty k = 0.638293
        29         5        23        33     9      180.000000       -1.380736         2    ;  uncertainty k = 0.457780
        29         5        23        33     9        0.000000        0.248760         3    ;  uncertainty k = 0.128041
        29         5        23        33     9      180.000000        0.114726         4    ;  uncertainty k = 0.091925
        29         5        35        36     9        0.000000       -1.031199         1    ;  uncertainty k = 0.675623
        29         5        35        36     9      180.000000       -0.554619         2    ;  uncertainty k = 0.161749
        29         5        35        36     9        0.000000        0.620956         3    ;  uncertainty k = 0.188045
        29         5        35        36     9      180.000000       -0.151040         4    ;  uncertainty k = 0.081746
        29         5        35        38     9        0.000000       -1.159933         1    ;  uncertainty k = 0.163589
        29         5        35        38     9      180.000000        0.174092         2    ;  uncertainty k = 0.272040
        29         5        35        38     9        0.000000        0.186193         3    ;  uncertainty k = 0.086099
        29         5        35        38     9      180.000000       -0.128351         4    ;  uncertainty k = 0.110180
        29         5        35        42     9        0.000000       -1.159933         1    ;  uncertainty k = 0.163589
        29         5        35        42     9      180.000000        0.174092         2    ;  uncertainty k = 0.272040
        29         5        35        42     9        0.000000        0.186193         3    ;  uncertainty k = 0.086099
        29         5        35        42     9      180.000000       -0.128351         4    ;  uncertainty k = 0.110180
        33        23         5        34     9        0.000000        2.531114         1    ;  uncertainty k = 0.638293
        33        23         5        34     9      180.000000       -1.380736         2    ;  uncertainty k = 0.457780
        33        23         5        34     9        0.000000        0.248760         3    ;  uncertainty k = 0.128041
        33        23         5        34     9      180.000000        0.114726         4    ;  uncertainty k = 0.091925
        33        23         5        35     9        0.000000        5.198395         1    ;  uncertainty k = 0.324434
        33        23         5        35     9      180.000000       -2.910706         2    ;  uncertainty k = 0.245609
        33        23         5        35     9        0.000000        0.660661         3    ;  uncertainty k = 0.099785
        33        23         5        35     9      180.000000        0.003305         4    ;  uncertainty k = 0.105172
        34         5        35        36     9        0.000000       -1.031199         1    ;  uncertainty k = 0.675623
        34         5        35        36     9      180.000000       -0.554619         2    ;  uncertainty k = 0.161749
        34         5        35        36     9        0.000000        0.620956         3    ;  uncertainty k = 0.188045
        34         5        35        36     9      180.000000       -0.151040         4    ;  uncertainty k = 0.081746
        34         5        35        38     9        0.000000       -1.159933         1    ;  uncertainty k = 0.163589
        34         5        35        38     9      180.000000        0.174092         2    ;  uncertainty k = 0.272040
        34         5        35        38     9        0.000000        0.186193         3    ;  uncertainty k = 0.086099
        34         5        35        38     9      180.000000       -0.128351         4    ;  uncertainty k = 0.110180
        34         5        35        42     9        0.000000       -1.159933         1    ;  uncertainty k = 0.163589
        34         5        35        42     9      180.000000        0.174092         2    ;  uncertainty k = 0.272040
        34         5        35        42     9        0.000000        0.186193         3    ;  uncertainty k = 0.086099
        34         5        35        42     9      180.000000       -0.128351         4    ;  uncertainty k = 0.110180
        36        35        38        39     9        0.000000       -2.094080         1    ;  uncertainty k = 0.507375
        36        35        38        39     9      180.000000       -0.977847         2    ;  uncertainty k = 0.278870
        36        35        38        39     9        0.000000        0.802342         3    ;  uncertainty k = 0.084742
        36        35        38        39     9      180.000000       -0.208985         4    ;  uncertainty k = 0.048380
        36        35        38        40     9        0.000000       -2.094080         1    ;  uncertainty k = 0.507375
        36        35        38        40     9      180.000000       -0.977847         2    ;  uncertainty k = 0.278870
        36        35        38        40     9        0.000000        0.802342         3    ;  uncertainty k = 0.084742
        36        35        38        40     9      180.000000       -0.208985         4    ;  uncertainty k = 0.048380
        36        35        38        41     9        0.000000       -2.094080         1    ;  uncertainty k = 0.507375
        36        35        38        41     9      180.000000       -0.977847         2    ;  uncertainty k = 0.278870
        36        35        38        41     9        0.000000        0.802342         3    ;  uncertainty k = 0.084742
        36        35        38        41     9      180.000000       -0.208985         4    ;  uncertainty k = 0.048380
        36        35        42        43     9        0.000000       -2.094080         1    ;  uncertainty k = 0.507375
        36        35        42        43     9      180.000000       -0.977847         2    ;  uncertainty k = 0.278870
        36        35        42        43     9        0.000000        0.802342         3    ;  uncertainty k = 0.084742
        36        35        42        43     9      180.000000       -0.208985         4    ;  uncertainty k = 0.048380
        36        35        42        44     9        0.000000       -2.094080         1    ;  uncertainty k = 0.507375
        36        35        42        44     9      180.000000       -0.977847         2    ;  uncertainty k = 0.278870
        36        35        42        44     9        0.000000        0.802342         3    ;  uncertainty k = 0.084742
        36        35        42        44     9      180.000000       -0.208985         4    ;  uncertainty k = 0.048380
        36        35        42        45     9        0.000000       -2.094080         1    ;  uncertainty k = 0.507375
        36        35        42        45     9      180.000000       -0.977847         2    ;  uncertainty k = 0.278870
        36        35        42        45     9        0.000000        0.802342         3    ;  uncertainty k = 0.084742
        36        35        42        45     9      180.000000       -0.208985         4    ;  uncertainty k = 0.048380
        37        36        35        38     9        0.000000       16.083282         1    ;  uncertainty k = 0.155333
        37        36        35        38     9      180.000000       -2.366878         2    ;  uncertainty k = 0.550184
        37        36        35        38     9        0.000000        0.972274         3    ;  uncertainty k = 0.134993
        37        36        35        38     9      180.000000        0.494632         4    ;  uncertainty k = 0.115377
        37        36        35        42     9        0.000000       16.083282         1    ;  uncertainty k = 0.155333
        37        36        35        42     9      180.000000       -2.366878         2    ;  uncertainty k = 0.550184
        37        36        35        42     9        0.000000        0.972274         3    ;  uncertainty k = 0.134993
        37        36        35        42     9      180.000000        0.494632         4    ;  uncertainty k = 0.115377
        38        35        42        43     9        0.000000       -1.036676         1    ;  uncertainty k = 0.323672
        38        35        42        43     9      180.000000       -0.091185         2    ;  uncertainty k = 0.240090
        38        35        42        43     9        0.000000        0.655112         3    ;  uncertainty k = 0.094852
        38        35        42        43     9      180.000000       -0.058043         4    ;  uncertainty k = 0.073412
        38        35        42        44     9        0.000000       -1.036676         1    ;  uncertainty k = 0.323672
        38        35        42        44     9      180.000000       -0.091185         2    ;  uncertainty k = 0.240090
        38        35        42        44     9        0.000000        0.655112         3    ;  uncertainty k = 0.094852
        38        35        42        44     9      180.000000       -0.058043         4    ;  uncertainty k = 0.073412
        38        35        42        45     9        0.000000       -1.036676         1    ;  uncertainty k = 0.323672
        38        35        42        45     9      180.000000       -0.091185         2    ;  uncertainty k = 0.240090
        38        35        42        45     9        0.000000        0.655112         3    ;  uncertainty k = 0.094852
        38        35        42        45     9      180.000000       -0.058043         4    ;  uncertainty k = 0.073412
        39        38        35        42     9        0.000000       -1.036676         1    ;  uncertainty k = 0.323672
        39        38        35        42     9      180.000000       -0.091185         2    ;  uncertainty k = 0.240090
        39        38        35        42     9        0.000000        0.655112         3    ;  uncertainty k = 0.094852
        39        38        35        42     9      180.000000       -0.058043         4    ;  uncertainty k = 0.073412
        40        38        35        42     9        0.000000       -1.036676         1    ;  uncertainty k = 0.323672
        40        38        35        42     9      180.000000       -0.091185         2    ;  uncertainty k = 0.240090
        40        38        35        42     9        0.000000        0.655112         3    ;  uncertainty k = 0.094852
        40        38        35        42     9      180.000000       -0.058043         4    ;  uncertainty k = 0.073412
        41        38        35        42     9        0.000000       -1.036676         1    ;  uncertainty k = 0.323672
        41        38        35        42     9      180.000000       -0.091185         2    ;  uncertainty k = 0.240090
        41        38        35        42     9        0.000000        0.655112         3    ;  uncertainty k = 0.094852
        41        38        35        42     9      180.000000       -0.058043         4    ;  uncertainty k = 0.073412

[ dihedrals ] ; impropers
;       ai        aj        ak        al funct           phase               k        pn
         1         3         8        26     4      180.000000        1.109680         2    ;  uncertainty k = 0.271256
         1         8        26         3     4      180.000000        1.109680         2    ;  uncertainty k = 0.271256
         1        26         3         8     4      180.000000        1.109680         2    ;  uncertainty k = 0.271256
         2        13        20        21     4      180.000000       48.355208         2    ;  uncertainty k = 0.046756
         2        20        21        13     4      180.000000       48.355208         2    ;  uncertainty k = 0.046756
         2        21        13        20     4      180.000000       48.355208         2    ;  uncertainty k = 0.046756
         3         1        14        16     4      180.000000       14.318672         2    ;  uncertainty k = 0.052158
         3        14        16         1     4      180.000000       14.318672         2    ;  uncertainty k = 0.052158
         3        16         1        14     4      180.000000       14.318672         2    ;  uncertainty k = 0.052158
         4        19        22        23     4      180.000000       45.082144         2    ;  uncertainty k = 0.085238
         4        22        23        19     4      180.000000       45.082144         2    ;  uncertainty k = 0.085238
         4        23        19        22     4      180.000000       45.082144         2    ;  uncertainty k = 0.085238
         6         7        11        12     4      180.000000        3.512173         2    ;  uncertainty k = 0.581976
         6        11        12         7     4      180.000000        3.512173         2    ;  uncertainty k = 0.581976
         6        12         7        11     4      180.000000        3.512173         2    ;  uncertainty k = 0.581976
         7         6        13        27     4      180.000000        7.429066         2    ;  uncertainty k = 0.367060
         7        13        27         6     4      180.000000        7.429066         2    ;  uncertainty k = 0.367060
         7        27         6        13     4      180.000000        7.429066         2    ;  uncertainty k = 0.367060
         8         1         9        17     4      180.000000       17.110314         2    ;  uncertainty k = 0.053382
         8         9        17         1     4      180.000000       17.110314         2    ;  uncertainty k = 0.053382
         8        17         1         9     4      180.000000       17.110314         2    ;  uncertainty k = 0.053382
         9         8        10        24     4      180.000000        2.090574         2    ;  uncertainty k = 0.191083
         9        10        24         8     4      180.000000        2.090574         2    ;  uncertainty k = 0.191083
         9        24         8        10     4      180.000000        2.090574         2    ;  uncertainty k = 0.191083
        10         9        14        25     4      180.000000        3.395592         2    ;  uncertainty k = 0.158338
        10        14        25         9     4      180.000000        3.395592         2    ;  uncertainty k = 0.158338
        10        25         9        14     4      180.000000        3.395592         2    ;  uncertainty k = 0.158338
        11         6        21        22     4      180.000000       30.924455         2    ;  uncertainty k = 0.078986
        11        21        22         6     4      180.000000       30.924455         2    ;  uncertainty k = 0.078986
        11        22         6        21     4      180.000000       30.924455         2    ;  uncertainty k = 0.078986
        12         6        19        28     4      180.000000       16.784390         2    ;  uncertainty k = 0.054111
        12        19        28         6     4      180.000000       16.784390         2    ;  uncertainty k = 0.054111
        12        28         6        19     4      180.000000       16.784390         2    ;  uncertainty k = 0.054111
        13         2         7        18     4      180.000000       13.109836         2    ;  uncertainty k = 0.278814
        13         7        18         2     4      180.000000       13.109836         2    ;  uncertainty k = 0.278814
        13        18         2         7     4      180.000000       13.109836         2    ;  uncertainty k = 0.278814
        14         3        10        18     4      180.000000       11.882712         2    ;  uncertainty k = 0.189067
        14        10        18         3     4      180.000000       11.882712         2    ;  uncertainty k = 0.189067
        14        18         3        10     4      180.000000       11.882712         2    ;  uncertainty k = 0.189067
        21         2        11        15     4      180.000000        3.406360         2    ;  uncertainty k = 0.884105
        21        11        15         2     4      180.000000        3.406360         2    ;  uncertainty k = 0.884105
        21        15         2        11     4      180.000000        3.406360         2    ;  uncertainty k = 0.884105
        23         4         5        33     4      180.000000        0.209516         2    ;  uncertainty k = 0.468493
        23         5        33         4     4      180.000000        0.209516         2    ;  uncertainty k = 0.468493
        23        33         4         5     4      180.000000        0.209516         2    ;  uncertainty k = 0.468493

[ pairs ]
;       ai        aj funct
         1        10     1
         1        18     1
         1        24     1
         2         6     1
         2        14     1
         2        22     1
         2        27     1
         2        30     1
         2        31     1
         2        32     1
         3         9     1
         3        13     1
         3        17     1
         3        25     1
         4         6     1
         4        21     1
         4        28     1
         4        29     1
         4        34     1
         4        35     1
         5        19     1
         5        22     1
         5        37     1
         5        39     1
         5        40     1
         5        41     1
         5        43     1
         5        44     1
         5        45     1
         6        15     1
         6        18     1
         7        14     1
         7        19     1
         7        20     1
         7        21     1
         7        22     1
         7        28     1
         8        14     1
         8        16     1
         8        25     1
         9        18     1
         9        26     1
        10        13     1
        10        16     1
        10        17     1
        11        13     1
        11        19     1
        11        20     1
        11        23     1
        11        27     1
        11        28     1
        11        30     1
        11        31     1
        11        32     1
        12        13     1
        12        21     1
        12        22     1
        12        23     1
        12        27     1
        13        15     1
        14        24     1
        14        26     1
        15        20     1
        15        22     1
        16        18     1
        16        26     1
        17        24     1
        17        26     1
        18        20     1
        18        21     1
        18        25     1
        18        27     1
        19        33     1
        22        33     1
        23        36     1
        23        38     1
        23        42     1
        24        25     1
        29        33     1
        29        36     1
        29        38     1
        29        42     1
        33        34     1
        33        35     1
        34        36     1
        34        38     1
        34        42     1
        36        39     1
        36        40     1
        36        41     1
        36        43     1
        36        44     1
        36        45     1
        37        38     1
        37        42     1
        38        43     1
        38        44     1
        38        45     1
        39        42     1
        40        42     1
        41        42     1
