; ITP file created by ByteFF-joint-25, 2026-02-17 09:25:21.499871

[ atomtypes ]
;name           bonded.type        at.num        mass        charge   ptype           sigma         epsilon
 c0bf                                   6      0.0000       0.00000       A     3.31526e-01     4.13477e-01    ;  uncertainty sigma = 0.000006, epsilon = 0.000754
 c1bf                                   6      0.0000       0.00000       A     3.31559e-01     4.13635e-01    ;  uncertainty sigma = 0.000021, epsilon = 0.001225
 c2bf                                   6      0.0000       0.00000       A     3.31525e-01     4.12996e-01    ;  uncertainty sigma = 0.000006, epsilon = 0.000558
 c3bf                                   6      0.0000       0.00000       A     3.31514e-01     4.14284e-01    ;  uncertainty sigma = 0.000015, epsilon = 0.001272
 c4bf                                   6      0.0000       0.00000       A     3.39732e-01     4.50924e-01    ;  uncertainty sigma = 0.000024, epsilon = 0.000797
 c5bf                                   6      0.0000       0.00000       A     3.31556e-01     4.13424e-01    ;  uncertainty sigma = 0.000018, epsilon = 0.000830
 c6bf                                   6      0.0000       0.00000       A     3.31522e-01     4.12958e-01    ;  uncertainty sigma = 0.000012, epsilon = 0.001253
 c7bf                                   6      0.0000       0.00000       A     3.31521e-01     4.13309e-01    ;  uncertainty sigma = 0.000005, epsilon = 0.000623
 c8bf                                   6      0.0000       0.00000       A     3.31522e-01     4.13402e-01    ;  uncertainty sigma = 0.000004, epsilon = 0.000568
 c9bf                                   6      0.0000       0.00000       A     3.31532e-01     4.13487e-01    ;  uncertainty sigma = 0.000005, epsilon = 0.000789
 c10bf                                  6      0.0000       0.00000       A     3.31528e-01     4.12870e-01    ;  uncertainty sigma = 0.000017, epsilon = 0.001780
 c11bf                                  6      0.0000       0.00000       A     3.31542e-01     4.13625e-01    ;  uncertainty sigma = 0.000007, epsilon = 0.001343
 c12bf                                  6      0.0000       0.00000       A     3.31529e-01     4.13581e-01    ;  uncertainty sigma = 0.000019, epsilon = 0.001027
 c13bf                                  6      0.0000       0.00000       A     3.31544e-01     4.13185e-01    ;  uncertainty sigma = 0.000012, epsilon = 0.000998
 c14bf                                  6      0.0000       0.00000       A     3.39766e-01     4.51313e-01    ;  uncertainty sigma = 0.000006, epsilon = 0.000601
 f15bf                                  9      0.0000       0.00000       A     3.03401e-01     3.48403e-01    ;  uncertainty sigma = 0.000015, epsilon = 0.000906
 f16bf                                  9      0.0000       0.00000       A     3.03426e-01     3.47978e-01    ;  uncertainty sigma = 0.000008, epsilon = 0.000768
 o17bf                                  8      0.0000       0.00000       A     3.15661e-01     3.03543e-01    ;  uncertainty sigma = 0.000052, epsilon = 0.003674
 n18bf                                  7      0.0000       0.00000       A     3.38417e-01     3.93342e-01    ;  uncertainty sigma = 0.000020, epsilon = 0.001059
 o19bf                                  8      0.0000       0.00000       A     3.04803e-01     6.11515e-01    ;  uncertainty sigma = 0.000019, epsilon = 0.000440
 n20bf                                  7      0.0000       0.00000       A     3.18128e-01     6.83563e-01    ;  uncertainty sigma = 0.000031, epsilon = 0.001981
 n21bf                                  7      0.0000       0.00000       A     3.38435e-01     3.92801e-01    ;  uncertainty sigma = 0.000048, epsilon = 0.001401
 n22bf                                  7      0.0000       0.00000       A     3.27895e-01     6.44641e-01    ;  uncertainty sigma = 0.000024, epsilon = 0.002505
 h23bf                                  1      0.0000       0.00000       A     2.62564e-01     6.70554e-02    ;  uncertainty sigma = 0.000012, epsilon = 0.000465
 h24bf                                  1      0.0000       0.00000       A     2.62548e-01     6.71486e-02    ;  uncertainty sigma = 0.000008, epsilon = 0.000492
 h25bf                                  1      0.0000       0.00000       A     2.62562e-01     6.73680e-02    ;  uncertainty sigma = 0.000008, epsilon = 0.000365
 h26bf                                  1      0.0000       0.00000       A     2.62521e-01     6.67593e-02    ;  uncertainty sigma = 0.000018, epsilon = 0.000881
 h27bf                                  1      0.0000       0.00000       A     2.53663e-01     6.71784e-02    ;  uncertainty sigma = 0.000041, epsilon = 0.000925
 h28bf                                  1      0.0000       0.00000       A     2.42217e-01     8.67267e-02    ;  uncertainty sigma = 0.000039, epsilon = 0.000748
 h29bf                                  1      0.0000       0.00000       A     2.42206e-01     8.67702e-02    ;  uncertainty sigma = 0.000014, epsilon = 0.000617
 h30bf                                  1      0.0000       0.00000       A     2.42206e-01     8.67702e-02    ;  uncertainty sigma = 0.000014, epsilon = 0.000617
 h31bf                                  1      0.0000       0.00000       A     2.42206e-01     8.67702e-02    ;  uncertainty sigma = 0.000014, epsilon = 0.000617
 h32bf                                  1      0.0000       0.00000       A     1.10646e-01     4.10372e-02    ;  uncertainty sigma = 0.000073, epsilon = 0.000674
 c33bf                                  6      0.0000       0.00000       A     3.39768e-01     4.50683e-01    ;  uncertainty sigma = 0.000005, epsilon = 0.000563
 h34bf                                  1      0.0000       0.00000       A     2.60037e-01     8.68536e-02    ;  uncertainty sigma = 0.000008, epsilon = 0.000377
 h35bf                                  1      0.0000       0.00000       A     2.60037e-01     8.68536e-02    ;  uncertainty sigma = 0.000008, epsilon = 0.000377
 h36bf                                  1      0.0000       0.00000       A     2.60037e-01     8.68536e-02    ;  uncertainty sigma = 0.000008, epsilon = 0.000377
 c37bf                                  6      0.0000       0.00000       A     3.39792e-01     4.50399e-01    ;  uncertainty sigma = 0.000016, epsilon = 0.000967
 h38bf                                  1      0.0000       0.00000       A     2.42172e-01     8.69405e-02    ;  uncertainty sigma = 0.000115, epsilon = 0.000967
 h39bf                                  1      0.0000       0.00000       A     2.42172e-01     8.69405e-02    ;  uncertainty sigma = 0.000115, epsilon = 0.000967
 s40bf                                 16      0.0000       0.00000       A     4.05837e-01     2.56308e-01    ;  uncertainty sigma = 0.000015, epsilon = 0.001196
 o41bf                                  8      0.0000       0.00000       A     3.04786e-01     6.12333e-01    ;  uncertainty sigma = 0.000018, epsilon = 0.000775
 o42bf                                  8      0.0000       0.00000       A     3.04786e-01     6.12333e-01    ;  uncertainty sigma = 0.000018, epsilon = 0.000775
 c43bf                                  6      0.0000       0.00000       A     3.39784e-01     4.50849e-01    ;  uncertainty sigma = 0.000008, epsilon = 0.000548
 h44bf                                  1      0.0000       0.00000       A     2.42199e-01     8.68150e-02    ;  uncertainty sigma = 0.000022, epsilon = 0.000550
 h45bf                                  1      0.0000       0.00000       A     2.42199e-01     8.68150e-02    ;  uncertainty sigma = 0.000022, epsilon = 0.000550
 h46bf                                  1      0.0000       0.00000       A     2.42199e-01     8.68150e-02    ;  uncertainty sigma = 0.000022, epsilon = 0.000550

[ moleculetype ]
;name             nrexcl
 MOL                   3

[ atoms ]
;       nr            type      resi   res      atom      cgnr      charge          mass ; qtot
         1            c0bf         1   UNL        c0         1    -0.19164       12.0110 ; qtot   -0.192
         2            c1bf         1   UNL        c1         2     0.70215       12.0110 ; qtot    0.511
         3            c2bf         1   UNL        c2         3     0.14567       12.0110 ; qtot    0.656
         4            c3bf         1   UNL        c3         4     0.92537       12.0110 ; qtot    1.582
         5            c4bf         1   UNL        c4         5     0.27869       12.0110 ; qtot    1.860
         6            c5bf         1   UNL        c5         6    -0.40938       12.0110 ; qtot    1.451
         7            c6bf         1   UNL        c6         7    -0.04643       12.0110 ; qtot    1.404
         8            c7bf         1   UNL        c7         8     0.14413       12.0110 ; qtot    1.549
         9            c8bf         1   UNL        c8         9    -0.16248       12.0110 ; qtot    1.386
        10            c9bf         1   UNL        c9        10    -0.09069       12.0110 ; qtot    1.295
        11           c10bf         1   UNL       c10        11     0.63669       12.0110 ; qtot    1.932
        12           c11bf         1   UNL       c11        12     0.52141       12.0110 ; qtot    2.453
        13           c12bf         1   UNL       c12        13     0.00526       12.0110 ; qtot    2.459
        14           c13bf         1   UNL       c13        14     0.04787       12.0110 ; qtot    2.507
        15           c14bf         1   UNL       c14        15     0.08273       12.0110 ; qtot    2.589
        16           f15bf         1   UNL       f15        16    -0.12685       18.9980 ; qtot    2.463
        17           f16bf         1   UNL       f16        17    -0.13805       18.9980 ; qtot    2.324
        18           o17bf         1   UNL       o17        18    -0.21020       15.9990 ; qtot    2.114
        19           n18bf         1   UNL       n18        19    -0.77108       14.0070 ; qtot    1.343
        20           o19bf         1   UNL       o19        20    -0.58915       15.9990 ; qtot    0.754
        21           n20bf         1   UNL       n20        21    -0.43964       14.0070 ; qtot    0.314
        22           n21bf         1   UNL       n21        22    -0.82743       14.0070 ; qtot   -0.513
        23           n22bf         1   UNL       n22        23    -0.85809       14.0070 ; qtot   -1.371
        24           h23bf         1   UNL       h23        24     0.16075        1.0080 ; qtot   -1.210
        25           h24bf         1   UNL       h24        25     0.15721        1.0080 ; qtot   -1.053
        26           h25bf         1   UNL       h25        26     0.17297        1.0080 ; qtot   -0.880
        27           h26bf         1   UNL       h26        27     0.16397        1.0080 ; qtot   -0.716
        28           h27bf         1   UNL       h27        28     0.02899        1.0080 ; qtot   -0.687
        29           h28bf         1   UNL       h28        29     0.08049        1.0080 ; qtot   -0.607
        30           h29bf         1   UNL       h29        30     0.06256        1.0080 ; qtot   -0.544
        31           h30bf         1   UNL       h30        31     0.06256        1.0080 ; qtot   -0.482
        32           h31bf         1   UNL       h31        32     0.06256        1.0080 ; qtot   -0.419
        33           h32bf         1   UNL       h32        33     0.44955        1.0080 ; qtot    0.030
        34           c33bf         1   UNL       c33        34    -0.11129       12.0110 ; qtot   -0.081
        35           h34bf         1   UNL       h34        35     0.04982        1.0080 ; qtot   -0.031
        36           h35bf         1   UNL       h35        36     0.04982        1.0080 ; qtot    0.019
        37           h36bf         1   UNL       h36        37     0.04982        1.0080 ; qtot    0.069
        38           c37bf         1   UNL       c37        38    -0.17977       12.0110 ; qtot   -0.111
        39           h38bf         1   UNL       h38        39     0.10681        1.0080 ; qtot   -0.004
        40           h39bf         1   UNL       h39        40     0.10681        1.0080 ; qtot    0.102
        41           s40bf         1   UNL       s40        41     0.92507       32.0670 ; qtot    1.028
        42           o41bf         1   UNL       o41        42    -0.57632       15.9990 ; qtot    0.451
        43           o42bf         1   UNL       o42        43    -0.57632       15.9990 ; qtot   -0.125
        44           c43bf         1   UNL       c43        44    -0.18518       12.0110 ; qtot   -0.310
        45           h44bf         1   UNL       h44        45     0.10343        1.0080 ; qtot   -0.207
        46           h45bf         1   UNL       h45        46     0.10343        1.0080 ; qtot   -0.103
        47           h46bf         1   UNL       h46        47     0.10340        1.0080 ; qtot    0.000

[ bonds ]
;       ai        aj funct               r               k
         1         3     1        0.138747   361176.981592    ;  uncertainty r = 0.000032, k = 2.643588
         1         8     1        0.139007   367691.396045    ;  uncertainty r = 0.000031, k = 2.749259
         1        26     1        0.108780   338576.282275    ;  uncertainty r = 0.000013, k = 1.210229
         2        13     1        0.146503   257020.024902    ;  uncertainty r = 0.000082, k = 22.735462
         2        20     1        0.123258   653165.404492    ;  uncertainty r = 0.000088, k = 12.275804
         2        21     1        0.140996   234604.673926    ;  uncertainty r = 0.000190, k = 47.108488
         3        14     1        0.139121   358077.006348    ;  uncertainty r = 0.000040, k = 4.650811
         3        16     1        0.134764   340072.935645    ;  uncertainty r = 0.000045, k = 2.589505
         4        19     1        0.136857   534079.377051    ;  uncertainty r = 0.000090, k = 12.013407
         4        22     1        0.135733   617215.079102    ;  uncertainty r = 0.000163, k = 22.895658
         4        23     1        0.139340   553668.587207    ;  uncertainty r = 0.000230, k = 19.974552
         5        23     1        0.145762   246692.945557    ;  uncertainty r = 0.000228, k = 10.957929
         5        29     1        0.109205   306826.172949    ;  uncertainty r = 0.000041, k = 2.776123
         5        34     1        0.153369   212547.838428    ;  uncertainty r = 0.000045, k = 1.803035
         5        38     1        0.153703   212201.976587    ;  uncertainty r = 0.000132, k = 13.359602
         6         7     1        0.142625   274730.546533    ;  uncertainty r = 0.000027, k = 25.477092
         6        11     1        0.142280   412579.914014    ;  uncertainty r = 0.000160, k = 19.583953
         6        12     1        0.140432   398244.734277    ;  uncertainty r = 0.000184, k = 14.574919
         7        13     1        0.135447   409330.648828    ;  uncertainty r = 0.000069, k = 14.135384
         7        27     1        0.108670   334774.368506    ;  uncertainty r = 0.000042, k = 1.864898
         8         9     1        0.138905   362175.303809    ;  uncertainty r = 0.000027, k = 1.862514
         8        17     1        0.135460   342148.081152    ;  uncertainty r = 0.000038, k = 2.796473
         9        10     1        0.139206   376188.256299    ;  uncertainty r = 0.000034, k = 0.837546
         9        24     1        0.108734   335618.242285    ;  uncertainty r = 0.000017, k = 1.062658
        10        14     1        0.139238   351219.092236    ;  uncertainty r = 0.000057, k = 2.910415
        10        25     1        0.108702   335466.041113    ;  uncertainty r = 0.000027, k = 2.133558
        11        21     1        0.137847   263258.536426    ;  uncertainty r = 0.000203, k = 9.254046
        11        22     1        0.133977   452073.334570    ;  uncertainty r = 0.000189, k = 18.312581
        12        19     1        0.133376   406827.807812    ;  uncertainty r = 0.000075, k = 8.510505
        12        28     1        0.108932   329309.656934    ;  uncertainty r = 0.000040, k = 1.993703
        13        18     1        0.136126   317771.224805    ;  uncertainty r = 0.000057, k = 7.847699
        14        18     1        0.138160   312130.434863    ;  uncertainty r = 0.000116, k = 5.846346
        15        21     1        0.146434   260871.378516    ;  uncertainty r = 0.000086, k = 13.117202
        15        30     1        0.109141   308405.949609    ;  uncertainty r = 0.000010, k = 1.505458
        15        31     1        0.109141   308405.949609    ;  uncertainty r = 0.000010, k = 1.505458
        15        32     1        0.109141   308405.949609    ;  uncertainty r = 0.000010, k = 1.505458
        23        33     1        0.102180   437737.567480    ;  uncertainty r = 0.000074, k = 2.711241
        34        35     1        0.109518   312059.850293    ;  uncertainty r = 0.000008, k = 0.893386
        34        36     1        0.109518   312059.850293    ;  uncertainty r = 0.000008, k = 0.893386
        34        37     1        0.109518   312059.850293    ;  uncertainty r = 0.000008, k = 0.893386
        38        39     1        0.109640   322195.018262    ;  uncertainty r = 0.000025, k = 3.849337
        38        40     1        0.109640   322195.018262    ;  uncertainty r = 0.000025, k = 3.849337
        38        41     1        0.182482   155743.105103    ;  uncertainty r = 0.000060, k = 16.900579
        41        42     1        0.147898   544499.539160    ;  uncertainty r = 0.000025, k = 6.089880
        41        43     1        0.147898   544499.539160    ;  uncertainty r = 0.000025, k = 6.089880
        41        44     1        0.181081   169982.993115    ;  uncertainty r = 0.000094, k = 15.416066
        44        45     1        0.109276   320611.053516    ;  uncertainty r = 0.000013, k = 1.937261
        44        46     1        0.109276   320611.053516    ;  uncertainty r = 0.000013, k = 1.937261
        44        47     1        0.109276   320611.053516    ;  uncertainty r = 0.000013, k = 1.937256

[ angles ]
;       ai        aj        ak funct           theta             cth
         1         3        14     1      123.443153      352.584549    ;  uncertainty theta = 0.005265, k = 0.202869
         1         3        16     1      118.916702      524.557093    ;  uncertainty theta = 0.000766, k = 0.063533
         1         8         9     1      122.203163      367.950291    ;  uncertainty theta = 0.004353, k = 0.037976
         1         8        17     1      118.416054      506.109309    ;  uncertainty theta = 0.002115, k = 0.044491
         2        13         7     1      124.683006      439.719752    ;  uncertainty theta = 0.007537, k = 0.191394
         2        13        18     1      108.742836      385.835270    ;  uncertainty theta = 0.008747, k = 0.134414
         2        21        11     1      122.207535      482.934989    ;  uncertainty theta = 0.009442, k = 0.113246
         2        21        15     1      115.396751      421.229959    ;  uncertainty theta = 0.004034, k = 0.268490
         3         1         8     1      117.873718      466.681991    ;  uncertainty theta = 0.002635, k = 0.148809
         3         1        26     1      120.885605      275.043414    ;  uncertainty theta = 0.003104, k = 0.026017
         3        14        10     1      120.438950      350.580333    ;  uncertainty theta = 0.005824, k = 0.197361
         3        14        18     1      117.649757      371.496917    ;  uncertainty theta = 0.004336, k = 0.212601
         4        19        12     1      116.412888      409.135169    ;  uncertainty theta = 0.006710, k = 0.282894
         4        22        11     1      117.206703      446.509207    ;  uncertainty theta = 0.007471, k = 0.204844
         4        23         5     1      115.004112      410.883918    ;  uncertainty theta = 0.007886, k = 0.203368
         4        23        33     1      117.276451      437.931643    ;  uncertainty theta = 0.003248, k = 0.129170
         5        23        33     1      111.470901      346.858618    ;  uncertainty theta = 0.001508, k = 0.129315
         5        34        35     1      107.157326      393.789122    ;  uncertainty theta = 0.000655, k = 0.031282
         5        34        36     1      107.157326      393.789122    ;  uncertainty theta = 0.000655, k = 0.031282
         5        34        37     1      107.157326      393.789122    ;  uncertainty theta = 0.000655, k = 0.031282
         5        38        39     1      109.962418      373.479650    ;  uncertainty theta = 0.002048, k = 0.060787
         5        38        40     1      109.962418      373.479650    ;  uncertainty theta = 0.002048, k = 0.060787
         5        38        41     1      108.858116      509.794090    ;  uncertainty theta = 0.003420, k = 0.097986
         6         7        13     1      121.327866      511.776632    ;  uncertainty theta = 0.006720, k = 0.220926
         6         7        27     1      118.339821      255.619267    ;  uncertainty theta = 0.003231, k = 0.249698
         6        11        21     1      117.673546      482.361936    ;  uncertainty theta = 0.006515, k = 0.137844
         6        11        22     1      122.706726      545.902510    ;  uncertainty theta = 0.006280, k = 0.188877
         6        12        19     1      122.623978      738.053425    ;  uncertainty theta = 0.001355, k = 0.190331
         6        12        28     1      120.196472      259.335475    ;  uncertainty theta = 0.003688, k = 0.144830
         7         6        11     1      119.979813      442.754167    ;  uncertainty theta = 0.011773, k = 0.221309
         7         6        12     1      123.584717      408.523842    ;  uncertainty theta = 0.006835, k = 0.167617
         7        13        18     1      122.452477      425.672203    ;  uncertainty theta = 0.003057, k = 0.087983
         8         1        26     1      122.167213      276.182816    ;  uncertainty theta = 0.001979, k = 0.047518
         8         9        10     1      117.679276      490.002065    ;  uncertainty theta = 0.001416, k = 0.046653
         8         9        24     1      120.978439      282.379204    ;  uncertainty theta = 0.000982, k = 0.023307
         9         8        17     1      119.340736      515.983168    ;  uncertainty theta = 0.001915, k = 0.014125
         9        10        14     1      121.214966      509.817585    ;  uncertainty theta = 0.002734, k = 0.081000
         9        10        25     1      120.371567      284.922126    ;  uncertainty theta = 0.002332, k = 0.030236
        10         9        24     1      121.389076      278.892591    ;  uncertainty theta = 0.001182, k = 0.028037
        10        14        18     1      121.313034      424.254318    ;  uncertainty theta = 0.004582, k = 0.111195
        11         6        12     1      117.403275      430.396887    ;  uncertainty theta = 0.005353, k = 0.232642
        11        21        15     1      116.133522      434.404873    ;  uncertainty theta = 0.006002, k = 0.133710
        13         2        20     1      123.418716      471.104859    ;  uncertainty theta = 0.003206, k = 0.070384
        13         2        21     1      114.431885      323.457720    ;  uncertainty theta = 0.012880, k = 0.672027
        13         7        27     1      120.568748      277.351746    ;  uncertainty theta = 0.005819, k = 0.202769
        13        18        14     1      112.425293      459.717702    ;  uncertainty theta = 0.005379, k = 0.299014
        14         3        16     1      117.525742      487.064690    ;  uncertainty theta = 0.002079, k = 0.147581
        14        10        25     1      118.610428      275.458648    ;  uncertainty theta = 0.003647, k = 0.058785
        19         4        22     1      128.610718      734.042758    ;  uncertainty theta = 0.002969, k = 0.130070
        19         4        23     1      120.762039      820.380341    ;  uncertainty theta = 0.006006, k = 0.173351
        19        12        28     1      117.334389      317.977967    ;  uncertainty theta = 0.003626, k = 0.146143
        20         2        21     1      122.241714      693.873779    ;  uncertainty theta = 0.002201, k = 0.062599
        21        11        22     1      117.243813      579.971248    ;  uncertainty theta = 0.011274, k = 0.178156
        21        15        30     1      107.941574      486.865820    ;  uncertainty theta = 0.001912, k = 0.065460
        21        15        31     1      107.941574      486.865820    ;  uncertainty theta = 0.001912, k = 0.065460
        21        15        32     1      107.941574      486.865820    ;  uncertainty theta = 0.001912, k = 0.065460
        22         4        23     1      121.290726      895.855778    ;  uncertainty theta = 0.005078, k = 0.125097
        23         5        29     1      103.912758      451.710414    ;  uncertainty theta = 0.003805, k = 0.148523
        23         5        34     1      110.431442      658.369855    ;  uncertainty theta = 0.002936, k = 0.134462
        23         5        38     1      108.693405      618.472654    ;  uncertainty theta = 0.001933, k = 0.068398
        29         5        34     1      108.236191      408.953249    ;  uncertainty theta = 0.001432, k = 0.039150
        29         5        38     1      106.029785      394.169369    ;  uncertainty theta = 0.003455, k = 0.078414
        30        15        31     1      107.444313      326.050726    ;  uncertainty theta = 0.002153, k = 0.056617
        30        15        32     1      107.444313      326.050726    ;  uncertainty theta = 0.002153, k = 0.056617
        31        15        32     1      107.444313      326.050726    ;  uncertainty theta = 0.002153, k = 0.056617
        34         5        38     1      109.112831      543.865989    ;  uncertainty theta = 0.001851, k = 0.079171
        35        34        36     1      105.486610      316.297465    ;  uncertainty theta = 0.000975, k = 0.014572
        35        34        37     1      105.486610      316.297465    ;  uncertainty theta = 0.000975, k = 0.014572
        36        34        37     1      105.486610      316.297465    ;  uncertainty theta = 0.000975, k = 0.014572
        38        41        42     1      112.444641      703.333873    ;  uncertainty theta = 0.002642, k = 0.043047
        38        41        43     1      112.444641      703.333873    ;  uncertainty theta = 0.002642, k = 0.043047
        38        41        44     1      102.936867      708.993918    ;  uncertainty theta = 0.004293, k = 0.091283
        39        38        40     1      108.381325      305.517294    ;  uncertainty theta = 0.001447, k = 0.068487
        39        38        41     1      106.090027      378.844869    ;  uncertainty theta = 0.002178, k = 0.079347
        40        38        41     1      106.090027      378.844869    ;  uncertainty theta = 0.002178, k = 0.079347
        41        44        45     1      106.996750      364.790904    ;  uncertainty theta = 0.001545, k = 0.078292
        41        44        46     1      106.996750      364.790904    ;  uncertainty theta = 0.001545, k = 0.078292
        41        44        47     1      106.996750      364.790904    ;  uncertainty theta = 0.001545, k = 0.078292
        42        41        43     1      123.035507      867.558746    ;  uncertainty theta = 0.002213, k = 0.063110
        42        41        44     1      112.306984      731.360978    ;  uncertainty theta = 0.002700, k = 0.062631
        43        41        44     1      112.306984      731.360978    ;  uncertainty theta = 0.002700, k = 0.062631
        45        44        46     1      108.689346      298.027898    ;  uncertainty theta = 0.002866, k = 0.033727
        45        44        47     1      108.689346      298.027898    ;  uncertainty theta = 0.002866, k = 0.033727
        46        44        47     1      108.689346      298.027898    ;  uncertainty theta = 0.002866, k = 0.033727

[ dihedrals ] ; propers for gromacs 4.5 or higher, use funct 9
;       ai        aj        ak        al funct           phase               k        pn
         1         3        14        10     9        0.000000       -0.306313         1    ;  uncertainty k = 0.505391
         1         3        14        10     9      180.000000        5.699560         2    ;  uncertainty k = 1.071993
         1         3        14        10     9        0.000000        0.341049         3    ;  uncertainty k = 0.427163
         1         3        14        10     9      180.000000        1.286695         4    ;  uncertainty k = 0.336491
         1         3        14        18     9        0.000000        0.209707         1    ;  uncertainty k = 0.181119
         1         3        14        18     9      180.000000        8.078772         2    ;  uncertainty k = 0.443297
         1         3        14        18     9        0.000000        1.333895         3    ;  uncertainty k = 0.197684
         1         3        14        18     9      180.000000        1.703363         4    ;  uncertainty k = 0.101848
         1         8         9        10     9        0.000000        0.006656         1    ;  uncertainty k = 0.178742
         1         8         9        10     9      180.000000        9.851306         2    ;  uncertainty k = 0.487067
         1         8         9        10     9        0.000000       -0.289375         3    ;  uncertainty k = 0.510037
         1         8         9        10     9      180.000000        1.102178         4    ;  uncertainty k = 0.341530
         1         8         9        24     9        0.000000        0.058690         1    ;  uncertainty k = 0.184961
         1         8         9        24     9      180.000000        5.722279         2    ;  uncertainty k = 0.634542
         1         8         9        24     9        0.000000        1.318867         3    ;  uncertainty k = 0.348930
         1         8         9        24     9      180.000000        1.524759         4    ;  uncertainty k = 0.200416
         2        13         7         6     9        0.000000        0.274723         1    ;  uncertainty k = 0.612445
         2        13         7         6     9      180.000000       13.265960         2    ;  uncertainty k = 0.390905
         2        13         7         6     9        0.000000        1.583089         3    ;  uncertainty k = 0.153381
         2        13         7         6     9      180.000000        1.156602         4    ;  uncertainty k = 0.264713
         2        13         7        27     9        0.000000        0.232027         1    ;  uncertainty k = 0.722469
         2        13         7        27     9      180.000000       10.868764         2    ;  uncertainty k = 0.621677
         2        13         7        27     9        0.000000        1.612121         3    ;  uncertainty k = 0.474367
         2        13         7        27     9      180.000000        1.226062         4    ;  uncertainty k = 0.063655
         2        13        18        14     9        0.000000        2.823567         1    ;  uncertainty k = 2.168048
         2        13        18        14     9      180.000000        2.975857         2    ;  uncertainty k = 0.372945
         2        13        18        14     9        0.000000        1.779033         3    ;  uncertainty k = 0.305822
         2        13        18        14     9      180.000000        0.174992         4    ;  uncertainty k = 0.197831
         2        21        11         6     9        0.000000        0.292829         1    ;  uncertainty k = 2.050985
         2        21        11         6     9      180.000000        4.771235         2    ;  uncertainty k = 0.763748
         2        21        11         6     9        0.000000        0.315618         3    ;  uncertainty k = 0.485892
         2        21        11         6     9      180.000000        0.062498         4    ;  uncertainty k = 0.080087
         2        21        11        22     9        0.000000       -0.122536         1    ;  uncertainty k = 1.565057
         2        21        11        22     9      180.000000        7.549581         2    ;  uncertainty k = 0.242014
         2        21        11        22     9        0.000000        0.870759         3    ;  uncertainty k = 0.575000
         2        21        11        22     9      180.000000       -0.227016         4    ;  uncertainty k = 0.156284
         2        21        15        30     9        0.000000       -0.140292         1    ;  uncertainty k = 0.225852
         2        21        15        30     9      180.000000        0.717668         2    ;  uncertainty k = 0.271079
         2        21        15        30     9        0.000000        0.702955         3    ;  uncertainty k = 0.095742
         2        21        15        30     9      180.000000        0.500419         4    ;  uncertainty k = 0.086324
         2        21        15        31     9        0.000000       -0.140292         1    ;  uncertainty k = 0.225852
         2        21        15        31     9      180.000000        0.717668         2    ;  uncertainty k = 0.271079
         2        21        15        31     9        0.000000        0.702955         3    ;  uncertainty k = 0.095742
         2        21        15        31     9      180.000000        0.500419         4    ;  uncertainty k = 0.086324
         2        21        15        32     9        0.000000       -0.140292         1    ;  uncertainty k = 0.225852
         2        21        15        32     9      180.000000        0.717668         2    ;  uncertainty k = 0.271079
         2        21        15        32     9        0.000000        0.702955         3    ;  uncertainty k = 0.095742
         2        21        15        32     9      180.000000        0.500419         4    ;  uncertainty k = 0.086324
         3         1         8         9     9        0.000000       -0.049959         1    ;  uncertainty k = 0.238365
         3         1         8         9     9      180.000000        8.709297         2    ;  uncertainty k = 0.507640
         3         1         8         9     9        0.000000       -0.103094         3    ;  uncertainty k = 0.454333
         3         1         8         9     9      180.000000        1.263124         4    ;  uncertainty k = 0.287252
         3         1         8        17     9        0.000000        0.023050         1    ;  uncertainty k = 0.157478
         3         1         8        17     9      180.000000       12.231401         2    ;  uncertainty k = 0.567990
         3         1         8        17     9        0.000000        1.527926         3    ;  uncertainty k = 0.329456
         3         1         8        17     9      180.000000        1.522411         4    ;  uncertainty k = 0.258192
         3        14        10         9     9        0.000000        0.015776         1    ;  uncertainty k = 0.049644
         3        14        10         9     9      180.000000        9.130352         2    ;  uncertainty k = 0.496855
         3        14        10         9     9        0.000000        0.154802         3    ;  uncertainty k = 0.380221
         3        14        10         9     9      180.000000        1.321067         4    ;  uncertainty k = 0.368043
         3        14        10        25     9        0.000000        0.146476         1    ;  uncertainty k = 0.242432
         3        14        10        25     9      180.000000        6.097361         2    ;  uncertainty k = 0.718867
         3        14        10        25     9        0.000000        1.323120         3    ;  uncertainty k = 0.435541
         3        14        10        25     9      180.000000        1.565701         4    ;  uncertainty k = 0.129358
         3        14        18        13     9        0.000000        3.630851         1    ;  uncertainty k = 0.784137
         3        14        18        13     9      180.000000        2.972220         2    ;  uncertainty k = 0.332620
         3        14        18        13     9        0.000000        0.841399         3    ;  uncertainty k = 0.226489
         3        14        18        13     9      180.000000        0.049554         4    ;  uncertainty k = 0.189241
         4        19        12         6     9        0.000000       -0.246497         1    ;  uncertainty k = 0.637321
         4        19        12         6     9      180.000000       17.232034         2    ;  uncertainty k = 0.574307
         4        19        12         6     9        0.000000       -0.438380         3    ;  uncertainty k = 0.674627
         4        19        12         6     9      180.000000        1.624054         4    ;  uncertainty k = 0.625911
         4        19        12        28     9        0.000000        0.125532         1    ;  uncertainty k = 0.854815
         4        19        12        28     9      180.000000       17.809762         2    ;  uncertainty k = 0.625811
         4        19        12        28     9        0.000000        1.353655         3    ;  uncertainty k = 0.745822
         4        19        12        28     9      180.000000        1.113855         4    ;  uncertainty k = 0.445028
         4        22        11         6     9        0.000000        0.246417         1    ;  uncertainty k = 0.895591
         4        22        11         6     9      180.000000       12.582195         2    ;  uncertainty k = 0.685535
         4        22        11         6     9        0.000000        0.293404         3    ;  uncertainty k = 0.793141
         4        22        11         6     9      180.000000        0.916350         4    ;  uncertainty k = 0.469204
         4        22        11        21     9        0.000000        0.370297         1    ;  uncertainty k = 0.811596
         4        22        11        21     9      180.000000       15.663850         2    ;  uncertainty k = 1.085780
         4        22        11        21     9        0.000000        1.694401         3    ;  uncertainty k = 0.330929
         4        22        11        21     9      180.000000        1.126098         4    ;  uncertainty k = 0.462733
         4        23         5        29     9        0.000000       -0.642776         1    ;  uncertainty k = 0.388000
         4        23         5        29     9      180.000000       -0.698498         2    ;  uncertainty k = 0.345338
         4        23         5        29     9        0.000000        0.105510         3    ;  uncertainty k = 0.163123
         4        23         5        29     9      180.000000        0.363827         4    ;  uncertainty k = 0.152282
         4        23         5        34     9        0.000000       -2.976566         1    ;  uncertainty k = 0.166344
         4        23         5        34     9      180.000000        0.834855         2    ;  uncertainty k = 0.285296
         4        23         5        34     9        0.000000        0.481070         3    ;  uncertainty k = 0.166118
         4        23         5        34     9      180.000000        0.366299         4    ;  uncertainty k = 0.111490
         4        23         5        38     9        0.000000       -4.134601         1    ;  uncertainty k = 0.417545
         4        23         5        38     9      180.000000        0.545217         2    ;  uncertainty k = 0.455264
         4        23         5        38     9        0.000000        0.242473         3    ;  uncertainty k = 0.304522
         4        23         5        38     9      180.000000        0.472983         4    ;  uncertainty k = 0.089745
         5        23         4        19     9        0.000000        9.850667         1    ;  uncertainty k = 0.515850
         5        23         4        19     9      180.000000       11.930824         2    ;  uncertainty k = 0.211613
         5        23         4        19     9        0.000000        1.250912         3    ;  uncertainty k = 0.317637
         5        23         4        19     9      180.000000       -0.462282         4    ;  uncertainty k = 0.140503
         5        23         4        22     9        0.000000       10.361847         1    ;  uncertainty k = 0.381135
         5        23         4        22     9      180.000000       12.064650         2    ;  uncertainty k = 0.151871
         5        23         4        22     9        0.000000        1.050982         3    ;  uncertainty k = 0.404060
         5        23         4        22     9      180.000000       -0.516243         4    ;  uncertainty k = 0.149043
         5        38        41        42     9        0.000000       -5.552844         1    ;  uncertainty k = 0.677583
         5        38        41        42     9      180.000000        1.652083         2    ;  uncertainty k = 0.413325
         5        38        41        42     9        0.000000        0.533189         3    ;  uncertainty k = 0.095637
         5        38        41        42     9      180.000000       -0.288535         4    ;  uncertainty k = 0.122641
         5        38        41        43     9        0.000000       -5.552844         1    ;  uncertainty k = 0.677583
         5        38        41        43     9      180.000000        1.652083         2    ;  uncertainty k = 0.413325
         5        38        41        43     9        0.000000        0.533189         3    ;  uncertainty k = 0.095637
         5        38        41        43     9      180.000000       -0.288535         4    ;  uncertainty k = 0.122641
         5        38        41        44     9        0.000000       -4.368273         1    ;  uncertainty k = 0.810069
         5        38        41        44     9      180.000000       -0.213058         2    ;  uncertainty k = 0.635267
         5        38        41        44     9        0.000000        0.264134         3    ;  uncertainty k = 0.115427
         5        38        41        44     9      180.000000       -0.161141         4    ;  uncertainty k = 0.157186
         6         7        13        18     9        0.000000        0.193043         1    ;  uncertainty k = 0.324392
         6         7        13        18     9      180.000000       21.054666         2    ;  uncertainty k = 0.625248
         6         7        13        18     9        0.000000        2.056948         3    ;  uncertainty k = 0.278841
         6         7        13        18     9      180.000000        0.671228         4    ;  uncertainty k = 0.565745
         6        11        21        15     9        0.000000        2.979202         1    ;  uncertainty k = 1.960722
         6        11        21        15     9      180.000000        9.028698         2    ;  uncertainty k = 0.522445
         6        11        21        15     9        0.000000        1.052222         3    ;  uncertainty k = 0.690508
         6        11        21        15     9      180.000000        0.103007         4    ;  uncertainty k = 0.317626
         7         6        11        21     9        0.000000       -0.055109         1    ;  uncertainty k = 0.358970
         7         6        11        21     9      180.000000        8.043977         2    ;  uncertainty k = 0.672672
         7         6        11        21     9        0.000000        0.286966         3    ;  uncertainty k = 0.532218
         7         6        11        21     9      180.000000        1.058111         4    ;  uncertainty k = 0.266965
         7         6        11        22     9        0.000000        0.214990         1    ;  uncertainty k = 0.910679
         7         6        11        22     9      180.000000        8.084228         2    ;  uncertainty k = 1.549906
         7         6        11        22     9        0.000000        0.010182         3    ;  uncertainty k = 0.291697
         7         6        11        22     9      180.000000        1.303603         4    ;  uncertainty k = 0.530365
         7         6        12        19     9        0.000000        0.183526         1    ;  uncertainty k = 0.472977
         7         6        12        19     9      180.000000       10.776902         2    ;  uncertainty k = 0.643703
         7         6        12        19     9        0.000000        0.296457         3    ;  uncertainty k = 0.273252
         7         6        12        19     9      180.000000        1.212243         4    ;  uncertainty k = 0.371987
         7         6        12        28     9        0.000000       -0.429825         1    ;  uncertainty k = 0.536938
         7         6        12        28     9      180.000000        5.931027         2    ;  uncertainty k = 0.523977
         7         6        12        28     9        0.000000        0.831992         3    ;  uncertainty k = 0.274468
         7         6        12        28     9      180.000000        0.681961         4    ;  uncertainty k = 0.180947
         7        13         2        20     9        0.000000       -2.736885         1    ;  uncertainty k = 0.984089
         7        13         2        20     9      180.000000        2.829386         2    ;  uncertainty k = 0.722306
         7        13         2        20     9        0.000000       -0.148850         3    ;  uncertainty k = 0.456669
         7        13         2        20     9      180.000000       -0.018089         4    ;  uncertainty k = 0.178562
         7        13         2        21     9        0.000000        1.847981         1    ;  uncertainty k = 1.695057
         7        13         2        21     9      180.000000        0.676018         2    ;  uncertainty k = 0.840437
         7        13         2        21     9        0.000000        0.412450         3    ;  uncertainty k = 0.335419
         7        13         2        21     9      180.000000        0.361110         4    ;  uncertainty k = 0.179553
         7        13        18        14     9        0.000000        6.054698         1    ;  uncertainty k = 1.057145
         7        13        18        14     9      180.000000        6.289935         2    ;  uncertainty k = 0.136203
         7        13        18        14     9        0.000000       -0.847804         3    ;  uncertainty k = 0.376269
         7        13        18        14     9      180.000000        0.116643         4    ;  uncertainty k = 0.099457
         8         1         3        14     9        0.000000       -0.028157         1    ;  uncertainty k = 0.164194
         8         1         3        14     9      180.000000        8.671004         2    ;  uncertainty k = 0.512359
         8         1         3        14     9        0.000000        0.207433         3    ;  uncertainty k = 0.509188
         8         1         3        14     9      180.000000        1.302601         4    ;  uncertainty k = 0.281851
         8         1         3        16     9        0.000000       -0.002392         1    ;  uncertainty k = 0.247129
         8         1         3        16     9      180.000000       13.084887         2    ;  uncertainty k = 0.509633
         8         1         3        16     9        0.000000        1.474366         3    ;  uncertainty k = 0.306558
         8         1         3        16     9      180.000000        1.520558         4    ;  uncertainty k = 0.243651
         8         9        10        14     9        0.000000       -0.113542         1    ;  uncertainty k = 0.211768
         8         9        10        14     9      180.000000       13.972594         2    ;  uncertainty k = 0.306737
         8         9        10        14     9        0.000000       -0.786444         3    ;  uncertainty k = 0.554355
         8         9        10        14     9      180.000000        0.930464         4    ;  uncertainty k = 0.288428
         8         9        10        25     9        0.000000       -0.003440         1    ;  uncertainty k = 0.095641
         8         9        10        25     9      180.000000        7.538138         2    ;  uncertainty k = 0.273713
         8         9        10        25     9        0.000000        1.412643         3    ;  uncertainty k = 0.270752
         8         9        10        25     9      180.000000        1.740927         4    ;  uncertainty k = 0.123790
         9         8         1        26     9        0.000000        0.138635         1    ;  uncertainty k = 0.151239
         9         8         1        26     9      180.000000        5.451074         2    ;  uncertainty k = 0.660632
         9         8         1        26     9        0.000000        1.286115         3    ;  uncertainty k = 0.294094
         9         8         1        26     9      180.000000        1.480963         4    ;  uncertainty k = 0.179055
         9        10        14        18     9        0.000000       -0.064057         1    ;  uncertainty k = 0.392115
         9        10        14        18     9      180.000000       11.007024         2    ;  uncertainty k = 0.446783
         9        10        14        18     9        0.000000        1.358780         3    ;  uncertainty k = 0.241783
         9        10        14        18     9      180.000000        1.735948         4    ;  uncertainty k = 0.120659
        10         9         8        17     9        0.000000       -0.032001         1    ;  uncertainty k = 0.254449
        10         9         8        17     9      180.000000       12.251927         2    ;  uncertainty k = 0.522356
        10         9         8        17     9        0.000000        1.414423         3    ;  uncertainty k = 0.230243
        10         9         8        17     9      180.000000        1.530094         4    ;  uncertainty k = 0.209632
        10        14         3        16     9        0.000000        0.257162         1    ;  uncertainty k = 0.251999
        10        14         3        16     9      180.000000        8.387430         2    ;  uncertainty k = 0.311300
        10        14         3        16     9        0.000000        1.426919         3    ;  uncertainty k = 0.223314
        10        14         3        16     9      180.000000        1.675064         4    ;  uncertainty k = 0.138706
        10        14        18        13     9        0.000000        4.660947         1    ;  uncertainty k = 1.076529
        10        14        18        13     9      180.000000        3.955354         2    ;  uncertainty k = 0.191196
        10        14        18        13     9        0.000000        0.367207         3    ;  uncertainty k = 0.312421
        10        14        18        13     9      180.000000        0.123949         4    ;  uncertainty k = 0.068754
        11         6         7        13     9        0.000000       -0.025372         1    ;  uncertainty k = 1.114568
        11         6         7        13     9      180.000000        6.557544         2    ;  uncertainty k = 0.948325
        11         6         7        13     9        0.000000        0.243665         3    ;  uncertainty k = 0.389255
        11         6         7        13     9      180.000000        0.542885         4    ;  uncertainty k = 0.194545
        11         6         7        27     9        0.000000        0.722138         1    ;  uncertainty k = 1.061704
        11         6         7        27     9      180.000000        6.218836         2    ;  uncertainty k = 0.684882
        11         6         7        27     9        0.000000        1.076833         3    ;  uncertainty k = 0.330266
        11         6         7        27     9      180.000000        0.199864         4    ;  uncertainty k = 0.161389
        11         6        12        19     9        0.000000        0.013381         1    ;  uncertainty k = 0.627071
        11         6        12        19     9      180.000000       12.220251         2    ;  uncertainty k = 0.441317
        11         6        12        19     9        0.000000       -1.012748         3    ;  uncertainty k = 0.867890
        11         6        12        19     9      180.000000        0.787180         4    ;  uncertainty k = 0.223470
        11         6        12        28     9        0.000000       -0.145544         1    ;  uncertainty k = 0.854535
        11         6        12        28     9      180.000000        6.545969         2    ;  uncertainty k = 0.845282
        11         6        12        28     9        0.000000        0.675850         3    ;  uncertainty k = 0.068222
        11         6        12        28     9      180.000000        0.761488         4    ;  uncertainty k = 0.210437
        11        21         2        13     9        0.000000        1.586106         1    ;  uncertainty k = 2.322553
        11        21         2        13     9      180.000000        2.518871         2    ;  uncertainty k = 0.835154
        11        21         2        13     9        0.000000        0.940113         3    ;  uncertainty k = 0.272741
        11        21         2        13     9      180.000000        0.439431         4    ;  uncertainty k = 0.211173
        11        21         2        20     9        0.000000        2.605736         1    ;  uncertainty k = 2.586638
        11        21         2        20     9      180.000000       13.826008         2    ;  uncertainty k = 0.646503
        11        21         2        20     9        0.000000        0.934382         3    ;  uncertainty k = 0.099179
        11        21         2        20     9      180.000000       -0.443053         4    ;  uncertainty k = 0.498630
        11        21        15        30     9        0.000000       -0.509601         1    ;  uncertainty k = 0.442513
        11        21        15        30     9      180.000000        1.091346         2    ;  uncertainty k = 0.166769
        11        21        15        30     9        0.000000        0.337054         3    ;  uncertainty k = 0.207896
        11        21        15        30     9      180.000000        0.466358         4    ;  uncertainty k = 0.154153
        11        21        15        31     9        0.000000       -0.509601         1    ;  uncertainty k = 0.442513
        11        21        15        31     9      180.000000        1.091346         2    ;  uncertainty k = 0.166769
        11        21        15        31     9        0.000000        0.337054         3    ;  uncertainty k = 0.207896
        11        21        15        31     9      180.000000        0.466358         4    ;  uncertainty k = 0.154153
        11        21        15        32     9        0.000000       -0.509601         1    ;  uncertainty k = 0.442513
        11        21        15        32     9      180.000000        1.091346         2    ;  uncertainty k = 0.166769
        11        21        15        32     9        0.000000        0.337054         3    ;  uncertainty k = 0.207896
        11        21        15        32     9      180.000000        0.466358         4    ;  uncertainty k = 0.154153
        11        22         4        19     9        0.000000        0.063832         1    ;  uncertainty k = 1.521222
        11        22         4        19     9      180.000000        7.440953         2    ;  uncertainty k = 0.821189
        11        22         4        19     9        0.000000        1.296114         3    ;  uncertainty k = 0.660339
        11        22         4        19     9      180.000000        0.778877         4    ;  uncertainty k = 0.265505
        11        22         4        23     9        0.000000        0.344510         1    ;  uncertainty k = 2.087500
        11        22         4        23     9      180.000000        9.530499         2    ;  uncertainty k = 0.699653
        11        22         4        23     9        0.000000        2.004751         3    ;  uncertainty k = 0.578032
        11        22         4        23     9      180.000000        0.987238         4    ;  uncertainty k = 0.246333
        12         6         7        13     9        0.000000        0.253816         1    ;  uncertainty k = 0.506818
        12         6         7        13     9      180.000000        5.236456         2    ;  uncertainty k = 1.028732
        12         6         7        13     9        0.000000        0.968778         3    ;  uncertainty k = 0.317639
        12         6         7        13     9      180.000000        0.380699         4    ;  uncertainty k = 0.231771
        12         6         7        27     9        0.000000        0.380101         1    ;  uncertainty k = 0.916982
        12         6         7        27     9      180.000000        5.440890         2    ;  uncertainty k = 0.354685
        12         6         7        27     9        0.000000        0.946698         3    ;  uncertainty k = 0.312999
        12         6         7        27     9      180.000000        0.085535         4    ;  uncertainty k = 0.135911
        12         6        11        21     9        0.000000       -0.703529         1    ;  uncertainty k = 0.833591
        12         6        11        21     9      180.000000        6.209922         2    ;  uncertainty k = 0.795831
        12         6        11        21     9        0.000000        0.121001         3    ;  uncertainty k = 0.240481
        12         6        11        21     9      180.000000        1.034220         4    ;  uncertainty k = 0.301592
        12         6        11        22     9        0.000000       -0.102436         1    ;  uncertainty k = 0.518634
        12         6        11        22     9      180.000000        7.422389         2    ;  uncertainty k = 1.093179
        12         6        11        22     9        0.000000       -0.337056         3    ;  uncertainty k = 0.315829
        12         6        11        22     9      180.000000        1.222798         4    ;  uncertainty k = 0.561501
        12        19         4        22     9        0.000000        0.036130         1    ;  uncertainty k = 1.048771
        12        19         4        22     9      180.000000        6.799420         2    ;  uncertainty k = 1.280010
        12        19         4        22     9        0.000000        0.765817         3    ;  uncertainty k = 0.544205
        12        19         4        22     9      180.000000        0.547361         4    ;  uncertainty k = 0.197952
        12        19         4        23     9        0.000000        0.470327         1    ;  uncertainty k = 1.196573
        12        19         4        23     9      180.000000        8.062159         2    ;  uncertainty k = 0.680157
        12        19         4        23     9        0.000000        1.862563         3    ;  uncertainty k = 0.560971
        12        19         4        23     9      180.000000        0.788825         4    ;  uncertainty k = 0.163667
        13         2        21        15     9        0.000000        1.056405         1    ;  uncertainty k = 2.053214
        13         2        21        15     9      180.000000        7.294411         2    ;  uncertainty k = 0.749752
        13         2        21        15     9        0.000000        1.508815         3    ;  uncertainty k = 0.227702
        13         2        21        15     9      180.000000       -0.038609         4    ;  uncertainty k = 0.195181
        14         3         1        26     9        0.000000        0.057379         1    ;  uncertainty k = 0.165911
        14         3         1        26     9      180.000000        5.716951         2    ;  uncertainty k = 0.832327
        14         3         1        26     9        0.000000        1.299980         3    ;  uncertainty k = 0.327602
        14         3         1        26     9      180.000000        1.492424         4    ;  uncertainty k = 0.176810
        14        10         9        24     9        0.000000        0.076709         1    ;  uncertainty k = 0.186984
        14        10         9        24     9      180.000000        7.523892         2    ;  uncertainty k = 0.356925
        14        10         9        24     9        0.000000        1.389232         3    ;  uncertainty k = 0.254789
        14        10         9        24     9      180.000000        1.744370         4    ;  uncertainty k = 0.166848
        15        21         2        20     9        0.000000        0.943199         1    ;  uncertainty k = 0.953019
        15        21         2        20     9      180.000000       13.405517         2    ;  uncertainty k = 0.210551
        15        21         2        20     9        0.000000        0.437924         3    ;  uncertainty k = 0.356109
        15        21         2        20     9      180.000000       -0.037170         4    ;  uncertainty k = 0.148301
        15        21        11        22     9        0.000000        1.848375         1    ;  uncertainty k = 1.520688
        15        21        11        22     9      180.000000       10.676144         2    ;  uncertainty k = 0.639732
        15        21        11        22     9        0.000000        0.899071         3    ;  uncertainty k = 0.314161
        15        21        11        22     9      180.000000        0.212436         4    ;  uncertainty k = 0.409433
        16         3         1        26     9        0.000000       -0.230980         1    ;  uncertainty k = 0.291748
        16         3         1        26     9      180.000000        9.239380         2    ;  uncertainty k = 0.341179
        16         3         1        26     9        0.000000        0.839928         3    ;  uncertainty k = 0.293710
        16         3         1        26     9      180.000000        1.043063         4    ;  uncertainty k = 0.201990
        16         3        14        18     9        0.000000       -0.105793         1    ;  uncertainty k = 0.354022
        16         3        14        18     9      180.000000       12.165824         2    ;  uncertainty k = 0.214592
        16         3        14        18     9        0.000000        1.160865         3    ;  uncertainty k = 0.370829
        16         3        14        18     9      180.000000        1.261897         4    ;  uncertainty k = 0.194088
        17         8         1        26     9        0.000000       -0.271891         1    ;  uncertainty k = 0.249928
        17         8         1        26     9      180.000000        8.500019         2    ;  uncertainty k = 0.281498
        17         8         1        26     9        0.000000        0.815708         3    ;  uncertainty k = 0.327842
        17         8         1        26     9      180.000000        0.992978         4    ;  uncertainty k = 0.194491
        17         8         9        24     9        0.000000       -0.357248         1    ;  uncertainty k = 0.222188
        17         8         9        24     9      180.000000        8.920407         2    ;  uncertainty k = 0.265967
        17         8         9        24     9        0.000000        0.818892         3    ;  uncertainty k = 0.249596
        17         8         9        24     9      180.000000        0.905586         4    ;  uncertainty k = 0.175017
        18        13         2        20     9        0.000000       -2.044631         1    ;  uncertainty k = 1.471510
        18        13         2        20     9      180.000000        9.630818         2    ;  uncertainty k = 0.607857
        18        13         2        20     9        0.000000        0.236984         3    ;  uncertainty k = 0.528742
        18        13         2        20     9      180.000000       -0.331931         4    ;  uncertainty k = 0.518325
        18        13         2        21     9        0.000000        1.503142         1    ;  uncertainty k = 1.118683
        18        13         2        21     9      180.000000        3.516108         2    ;  uncertainty k = 0.667937
        18        13         2        21     9        0.000000        0.738545         3    ;  uncertainty k = 0.316487
        18        13         2        21     9      180.000000        0.529978         4    ;  uncertainty k = 0.123665
        18        13         7        27     9        0.000000        0.176467         1    ;  uncertainty k = 0.770343
        18        13         7        27     9      180.000000       16.282668         2    ;  uncertainty k = 0.417244
        18        13         7        27     9        0.000000        1.907448         3    ;  uncertainty k = 0.070637
        18        13         7        27     9      180.000000        0.957052         4    ;  uncertainty k = 0.581336
        18        14        10        25     9        0.000000       -0.025816         1    ;  uncertainty k = 0.162969
        18        14        10        25     9      180.000000        8.757822         2    ;  uncertainty k = 0.242306
        18        14        10        25     9        0.000000        0.878698         3    ;  uncertainty k = 0.265252
        18        14        10        25     9      180.000000        1.203360         4    ;  uncertainty k = 0.152721
        19         4        23        33     9        0.000000       10.074526         1    ;  uncertainty k = 0.254145
        19         4        23        33     9      180.000000        9.599010         2    ;  uncertainty k = 0.247873
        19         4        23        33     9        0.000000        1.244316         3    ;  uncertainty k = 0.412282
        19         4        23        33     9      180.000000       -0.361572         4    ;  uncertainty k = 0.250215
        22         4        23        33     9        0.000000       12.231916         1    ;  uncertainty k = 0.422416
        22         4        23        33     9      180.000000        9.937070         2    ;  uncertainty k = 0.320059
        22         4        23        33     9        0.000000        1.222837         3    ;  uncertainty k = 0.428213
        22         4        23        33     9      180.000000       -0.408275         4    ;  uncertainty k = 0.205053
        23         5        34        35     9        0.000000       -1.840441         1    ;  uncertainty k = 0.427070
        23         5        34        35     9      180.000000       -0.892312         2    ;  uncertainty k = 0.431387
        23         5        34        35     9        0.000000        1.266724         3    ;  uncertainty k = 0.107883
        23         5        34        35     9      180.000000       -0.354083         4    ;  uncertainty k = 0.170617
        23         5        34        36     9        0.000000       -1.840441         1    ;  uncertainty k = 0.427070
        23         5        34        36     9      180.000000       -0.892312         2    ;  uncertainty k = 0.431387
        23         5        34        36     9        0.000000        1.266724         3    ;  uncertainty k = 0.107883
        23         5        34        36     9      180.000000       -0.354083         4    ;  uncertainty k = 0.170617
        23         5        34        37     9        0.000000       -1.840441         1    ;  uncertainty k = 0.427070
        23         5        34        37     9      180.000000       -0.892312         2    ;  uncertainty k = 0.431387
        23         5        34        37     9        0.000000        1.266724         3    ;  uncertainty k = 0.107883
        23         5        34        37     9      180.000000       -0.354083         4    ;  uncertainty k = 0.170617
        23         5        38        39     9        0.000000       -1.205075         1    ;  uncertainty k = 0.719144
        23         5        38        39     9      180.000000       -0.517971         2    ;  uncertainty k = 0.488754
        23         5        38        39     9        0.000000        0.873010         3    ;  uncertainty k = 0.125222
        23         5        38        39     9      180.000000       -0.184287         4    ;  uncertainty k = 0.150779
        23         5        38        40     9        0.000000       -1.205075         1    ;  uncertainty k = 0.719144
        23         5        38        40     9      180.000000       -0.517971         2    ;  uncertainty k = 0.488754
        23         5        38        40     9        0.000000        0.873010         3    ;  uncertainty k = 0.125222
        23         5        38        40     9      180.000000       -0.184287         4    ;  uncertainty k = 0.150779
        23         5        38        41     9        0.000000       -8.580630         1    ;  uncertainty k = 1.077487
        23         5        38        41     9      180.000000       -3.302815         2    ;  uncertainty k = 1.131328
        23         5        38        41     9        0.000000        0.631643         3    ;  uncertainty k = 0.373519
        23         5        38        41     9      180.000000        0.247617         4    ;  uncertainty k = 0.214804
        24         9        10        25     9        0.000000        0.032265         1    ;  uncertainty k = 0.250069
        24         9        10        25     9      180.000000        7.287468         2    ;  uncertainty k = 0.427630
        24         9        10        25     9        0.000000       -0.295849         3    ;  uncertainty k = 0.226115
        24         9        10        25     9      180.000000        0.117549         4    ;  uncertainty k = 0.137082
        29         5        23        33     9        0.000000        2.580228         1    ;  uncertainty k = 0.837301
        29         5        23        33     9      180.000000       -1.330033         2    ;  uncertainty k = 0.293347
        29         5        23        33     9        0.000000        0.156153         3    ;  uncertainty k = 0.141287
        29         5        23        33     9      180.000000        0.086215         4    ;  uncertainty k = 0.073720
        29         5        34        35     9        0.000000        0.870790         1    ;  uncertainty k = 0.325196
        29         5        34        35     9      180.000000       -0.887365         2    ;  uncertainty k = 0.142687
        29         5        34        35     9        0.000000        0.320817         3    ;  uncertainty k = 0.023393
        29         5        34        35     9      180.000000       -0.044944         4    ;  uncertainty k = 0.069470
        29         5        34        36     9        0.000000        0.870790         1    ;  uncertainty k = 0.325196
        29         5        34        36     9      180.000000       -0.887365         2    ;  uncertainty k = 0.142687
        29         5        34        36     9        0.000000        0.320817         3    ;  uncertainty k = 0.023393
        29         5        34        36     9      180.000000       -0.044944         4    ;  uncertainty k = 0.069470
        29         5        34        37     9        0.000000        0.870790         1    ;  uncertainty k = 0.325196
        29         5        34        37     9      180.000000       -0.887365         2    ;  uncertainty k = 0.142687
        29         5        34        37     9        0.000000        0.320817         3    ;  uncertainty k = 0.023393
        29         5        34        37     9      180.000000       -0.044944         4    ;  uncertainty k = 0.069470
        29         5        38        39     9        0.000000        0.504966         1    ;  uncertainty k = 0.380005
        29         5        38        39     9      180.000000       -0.550127         2    ;  uncertainty k = 0.164133
        29         5        38        39     9        0.000000        0.093627         3    ;  uncertainty k = 0.053343
        29         5        38        39     9      180.000000        0.063117         4    ;  uncertainty k = 0.099243
        29         5        38        40     9        0.000000        0.504966         1    ;  uncertainty k = 0.380005
        29         5        38        40     9      180.000000       -0.550127         2    ;  uncertainty k = 0.164133
        29         5        38        40     9        0.000000        0.093627         3    ;  uncertainty k = 0.053343
        29         5        38        40     9      180.000000        0.063117         4    ;  uncertainty k = 0.099243
        29         5        38        41     9        0.000000        3.010666         1    ;  uncertainty k = 0.743085
        29         5        38        41     9      180.000000       -2.580000         2    ;  uncertainty k = 0.332524
        29         5        38        41     9        0.000000       -0.011842         3    ;  uncertainty k = 0.098507
        29         5        38        41     9      180.000000       -0.133549         4    ;  uncertainty k = 0.133480
        33        23         5        34     9        0.000000        3.127011         1    ;  uncertainty k = 0.712068
        33        23         5        34     9      180.000000       -0.760384         2    ;  uncertainty k = 0.152395
        33        23         5        34     9        0.000000        0.357377         3    ;  uncertainty k = 0.091437
        33        23         5        34     9      180.000000        0.139274         4    ;  uncertainty k = 0.100993
        33        23         5        38     9        0.000000        3.492611         1    ;  uncertainty k = 0.800872
        33        23         5        38     9      180.000000       -2.690447         2    ;  uncertainty k = 0.838832
        33        23         5        38     9        0.000000        0.209509         3    ;  uncertainty k = 0.228875
        33        23         5        38     9      180.000000        0.056191         4    ;  uncertainty k = 0.079691
        34         5        38        39     9        0.000000       -1.831614         1    ;  uncertainty k = 0.458161
        34         5        38        39     9      180.000000        0.333210         2    ;  uncertainty k = 0.238245
        34         5        38        39     9        0.000000        0.448653         3    ;  uncertainty k = 0.082378
        34         5        38        39     9      180.000000       -0.207988         4    ;  uncertainty k = 0.089013
        34         5        38        40     9        0.000000       -1.831614         1    ;  uncertainty k = 0.458161
        34         5        38        40     9      180.000000        0.333210         2    ;  uncertainty k = 0.238245
        34         5        38        40     9        0.000000        0.448653         3    ;  uncertainty k = 0.082378
        34         5        38        40     9      180.000000       -0.207988         4    ;  uncertainty k = 0.089013
        34         5        38        41     9        0.000000       -2.269049         1    ;  uncertainty k = 1.130984
        34         5        38        41     9      180.000000       -0.345332         2    ;  uncertainty k = 0.489801
        34         5        38        41     9        0.000000        0.592955         3    ;  uncertainty k = 0.094175
        34         5        38        41     9      180.000000       -0.103070         4    ;  uncertainty k = 0.119993
        35        34         5        38     9        0.000000       -1.096521         1    ;  uncertainty k = 0.407631
        35        34         5        38     9      180.000000       -0.847448         2    ;  uncertainty k = 0.310113
        35        34         5        38     9        0.000000        0.943849         3    ;  uncertainty k = 0.070941
        35        34         5        38     9      180.000000       -0.298152         4    ;  uncertainty k = 0.053142
        36        34         5        38     9        0.000000       -1.096521         1    ;  uncertainty k = 0.407631
        36        34         5        38     9      180.000000       -0.847448         2    ;  uncertainty k = 0.310113
        36        34         5        38     9        0.000000        0.943849         3    ;  uncertainty k = 0.070941
        36        34         5        38     9      180.000000       -0.298152         4    ;  uncertainty k = 0.053142
        37        34         5        38     9        0.000000       -1.096521         1    ;  uncertainty k = 0.407631
        37        34         5        38     9      180.000000       -0.847448         2    ;  uncertainty k = 0.310113
        37        34         5        38     9        0.000000        0.943849         3    ;  uncertainty k = 0.070941
        37        34         5        38     9      180.000000       -0.298152         4    ;  uncertainty k = 0.053142
        38        41        44        45     9        0.000000        0.870031         1    ;  uncertainty k = 0.325082
        38        41        44        45     9      180.000000       -2.285769         2    ;  uncertainty k = 0.298613
        38        41        44        45     9        0.000000        0.147211         3    ;  uncertainty k = 0.061823
        38        41        44        45     9      180.000000       -0.180905         4    ;  uncertainty k = 0.163292
        38        41        44        46     9        0.000000        0.870031         1    ;  uncertainty k = 0.325082
        38        41        44        46     9      180.000000       -2.285769         2    ;  uncertainty k = 0.298613
        38        41        44        46     9        0.000000        0.147211         3    ;  uncertainty k = 0.061823
        38        41        44        46     9      180.000000       -0.180905         4    ;  uncertainty k = 0.163292
        38        41        44        47     9        0.000000        0.870031         1    ;  uncertainty k = 0.325082
        38        41        44        47     9      180.000000       -2.285769         2    ;  uncertainty k = 0.298613
        38        41        44        47     9        0.000000        0.147211         3    ;  uncertainty k = 0.061823
        38        41        44        47     9      180.000000       -0.180905         4    ;  uncertainty k = 0.163292
        39        38        41        42     9        0.000000        0.281207         1    ;  uncertainty k = 0.204262
        39        38        41        42     9      180.000000       -0.100266         2    ;  uncertainty k = 0.162388
        39        38        41        42     9        0.000000        0.389271         3    ;  uncertainty k = 0.038268
        39        38        41        42     9      180.000000        0.144369         4    ;  uncertainty k = 0.061681
        39        38        41        43     9        0.000000        0.281207         1    ;  uncertainty k = 0.204262
        39        38        41        43     9      180.000000       -0.100266         2    ;  uncertainty k = 0.162388
        39        38        41        43     9        0.000000        0.389271         3    ;  uncertainty k = 0.038268
        39        38        41        43     9      180.000000        0.144369         4    ;  uncertainty k = 0.061681
        39        38        41        44     9        0.000000        1.139623         1    ;  uncertainty k = 0.394840
        39        38        41        44     9      180.000000       -2.055558         2    ;  uncertainty k = 0.332044
        39        38        41        44     9        0.000000        0.099585         3    ;  uncertainty k = 0.128646
        39        38        41        44     9      180.000000       -0.080240         4    ;  uncertainty k = 0.086829
        40        38        41        42     9        0.000000        0.281207         1    ;  uncertainty k = 0.204262
        40        38        41        42     9      180.000000       -0.100266         2    ;  uncertainty k = 0.162388
        40        38        41        42     9        0.000000        0.389271         3    ;  uncertainty k = 0.038268
        40        38        41        42     9      180.000000        0.144369         4    ;  uncertainty k = 0.061681
        40        38        41        43     9        0.000000        0.281207         1    ;  uncertainty k = 0.204262
        40        38        41        43     9      180.000000       -0.100266         2    ;  uncertainty k = 0.162388
        40        38        41        43     9        0.000000        0.389271         3    ;  uncertainty k = 0.038268
        40        38        41        43     9      180.000000        0.144369         4    ;  uncertainty k = 0.061681
        40        38        41        44     9        0.000000        1.139623         1    ;  uncertainty k = 0.394840
        40        38        41        44     9      180.000000       -2.055558         2    ;  uncertainty k = 0.332044
        40        38        41        44     9        0.000000        0.099585         3    ;  uncertainty k = 0.128646
        40        38        41        44     9      180.000000       -0.080240         4    ;  uncertainty k = 0.086829
        42        41        44        45     9        0.000000       -0.052485         1    ;  uncertainty k = 0.671559
        42        41        44        45     9      180.000000       -0.338974         2    ;  uncertainty k = 0.462723
        42        41        44        45     9        0.000000        0.711874         3    ;  uncertainty k = 0.078730
        42        41        44        45     9      180.000000        0.088785         4    ;  uncertainty k = 0.063316
        42        41        44        46     9        0.000000       -0.052485         1    ;  uncertainty k = 0.671559
        42        41        44        46     9      180.000000       -0.338974         2    ;  uncertainty k = 0.462723
        42        41        44        46     9        0.000000        0.711874         3    ;  uncertainty k = 0.078730
        42        41        44        46     9      180.000000        0.088785         4    ;  uncertainty k = 0.063316
        42        41        44        47     9        0.000000       -0.052485         1    ;  uncertainty k = 0.671559
        42        41        44        47     9      180.000000       -0.338974         2    ;  uncertainty k = 0.462723
        42        41        44        47     9        0.000000        0.711874         3    ;  uncertainty k = 0.078730
        42        41        44        47     9      180.000000        0.088785         4    ;  uncertainty k = 0.063316
        43        41        44        45     9        0.000000       -0.052485         1    ;  uncertainty k = 0.671559
        43        41        44        45     9      180.000000       -0.338974         2    ;  uncertainty k = 0.462723
        43        41        44        45     9        0.000000        0.711874         3    ;  uncertainty k = 0.078730
        43        41        44        45     9      180.000000        0.088785         4    ;  uncertainty k = 0.063316
        43        41        44        46     9        0.000000       -0.052485         1    ;  uncertainty k = 0.671559
        43        41        44        46     9      180.000000       -0.338974         2    ;  uncertainty k = 0.462723
        43        41        44        46     9        0.000000        0.711874         3    ;  uncertainty k = 0.078730
        43        41        44        46     9      180.000000        0.088785         4    ;  uncertainty k = 0.063316
        43        41        44        47     9        0.000000       -0.052485         1    ;  uncertainty k = 0.671559
        43        41        44        47     9      180.000000       -0.338974         2    ;  uncertainty k = 0.462723
        43        41        44        47     9        0.000000        0.711874         3    ;  uncertainty k = 0.078730
        43        41        44        47     9      180.000000        0.088785         4    ;  uncertainty k = 0.063316

[ dihedrals ] ; impropers
;       ai        aj        ak        al funct           phase               k        pn
         1         3         8        26     4      180.000000        1.109680         2    ;  uncertainty k = 0.271256
         1         8        26         3     4      180.000000        1.109680         2    ;  uncertainty k = 0.271256
         1        26         3         8     4      180.000000        1.109680         2    ;  uncertainty k = 0.271256
         2        13        20        21     4      180.000000       48.355208         2    ;  uncertainty k = 0.046756
         2        20        21        13     4      180.000000       48.355208         2    ;  uncertainty k = 0.046756
         2        21        13        20     4      180.000000       48.355208         2    ;  uncertainty k = 0.046756
         3         1        14        16     4      180.000000       14.318672         2    ;  uncertainty k = 0.052158
         3        14        16         1     4      180.000000       14.318672         2    ;  uncertainty k = 0.052158
         3        16         1        14     4      180.000000       14.318672         2    ;  uncertainty k = 0.052158
         4        19        22        23     4      180.000000       45.032000         2    ;  uncertainty k = 0.088305
         4        22        23        19     4      180.000000       45.032000         2    ;  uncertainty k = 0.088305
         4        23        19        22     4      180.000000       45.032000         2    ;  uncertainty k = 0.088305
         6         7        11        12     4      180.000000        3.512173         2    ;  uncertainty k = 0.581976
         6        11        12         7     4      180.000000        3.512173         2    ;  uncertainty k = 0.581976
         6        12         7        11     4      180.000000        3.512173         2    ;  uncertainty k = 0.581976
         7         6        13        27     4      180.000000        7.429066         2    ;  uncertainty k = 0.367060
         7        13        27         6     4      180.000000        7.429066         2    ;  uncertainty k = 0.367060
         7        27         6        13     4      180.000000        7.429066         2    ;  uncertainty k = 0.367060
         8         1         9        17     4      180.000000       17.110314         2    ;  uncertainty k = 0.053382
         8         9        17         1     4      180.000000       17.110314         2    ;  uncertainty k = 0.053382
         8        17         1         9     4      180.000000       17.110314         2    ;  uncertainty k = 0.053382
         9         8        10        24     4      180.000000        2.090574         2    ;  uncertainty k = 0.191083
         9        10        24         8     4      180.000000        2.090574         2    ;  uncertainty k = 0.191083
         9        24         8        10     4      180.000000        2.090574         2    ;  uncertainty k = 0.191083
        10         9        14        25     4      180.000000        3.395592         2    ;  uncertainty k = 0.158338
        10        14        25         9     4      180.000000        3.395592         2    ;  uncertainty k = 0.158338
        10        25         9        14     4      180.000000        3.395592         2    ;  uncertainty k = 0.158338
        11         6        21        22     4      180.000000       30.961915         2    ;  uncertainty k = 0.078494
        11        21        22         6     4      180.000000       30.961915         2    ;  uncertainty k = 0.078494
        11        22         6        21     4      180.000000       30.961915         2    ;  uncertainty k = 0.078494
        12         6        19        28     4      180.000000       16.808438         2    ;  uncertainty k = 0.051534
        12        19        28         6     4      180.000000       16.808438         2    ;  uncertainty k = 0.051534
        12        28         6        19     4      180.000000       16.808438         2    ;  uncertainty k = 0.051534
        13         2         7        18     4      180.000000       13.109836         2    ;  uncertainty k = 0.278814
        13         7        18         2     4      180.000000       13.109836         2    ;  uncertainty k = 0.278814
        13        18         2         7     4      180.000000       13.109836         2    ;  uncertainty k = 0.278814
        14         3        10        18     4      180.000000       11.882712         2    ;  uncertainty k = 0.189067
        14        10        18         3     4      180.000000       11.882712         2    ;  uncertainty k = 0.189067
        14        18         3        10     4      180.000000       11.882712         2    ;  uncertainty k = 0.189067
        21         2        11        15     4      180.000000        3.406360         2    ;  uncertainty k = 0.884105
        21        11        15         2     4      180.000000        3.406360         2    ;  uncertainty k = 0.884105
        21        15         2        11     4      180.000000        3.406360         2    ;  uncertainty k = 0.884105
        23         4         5        33     4      180.000000        0.772104         2    ;  uncertainty k = 0.782298
        23         5        33         4     4      180.000000        0.772104         2    ;  uncertainty k = 0.782298
        23        33         4         5     4      180.000000        0.772104         2    ;  uncertainty k = 0.782298

[ pairs ]
;       ai        aj funct
         1        10     1
         1        18     1
         1        24     1
         2         6     1
         2        14     1
         2        22     1
         2        27     1
         2        30     1
         2        31     1
         2        32     1
         3         9     1
         3        13     1
         3        17     1
         3        25     1
         4         6     1
         4        21     1
         4        28     1
         4        29     1
         4        34     1
         4        38     1
         5        19     1
         5        22     1
         5        42     1
         5        43     1
         5        44     1
         6        15     1
         6        18     1
         7        14     1
         7        19     1
         7        20     1
         7        21     1
         7        22     1
         7        28     1
         8        14     1
         8        16     1
         8        25     1
         9        18     1
         9        26     1
        10        13     1
        10        16     1
        10        17     1
        11        13     1
        11        19     1
        11        20     1
        11        23     1
        11        27     1
        11        28     1
        11        30     1
        11        31     1
        11        32     1
        12        13     1
        12        21     1
        12        22     1
        12        23     1
        12        27     1
        13        15     1
        14        24     1
        14        26     1
        15        20     1
        15        22     1
        16        18     1
        16        26     1
        17        24     1
        17        26     1
        18        20     1
        18        21     1
        18        25     1
        18        27     1
        19        33     1
        22        33     1
        23        35     1
        23        36     1
        23        37     1
        23        39     1
        23        40     1
        23        41     1
        24        25     1
        29        33     1
        29        35     1
        29        36     1
        29        37     1
        29        39     1
        29        40     1
        29        41     1
        33        34     1
        33        38     1
        34        39     1
        34        40     1
        34        41     1
        35        38     1
        36        38     1
        37        38     1
        38        45     1
        38        46     1
        38        47     1
        39        42     1
        39        43     1
        39        44     1
        40        42     1
        40        43     1
        40        44     1
        42        45     1
        42        46     1
        42        47     1
        43        45     1
        43        46     1
        43        47     1
