; ITP file created by ByteFF-joint-25, 2026-02-17 09:24:08.595323

[ atomtypes ]
;name           bonded.type        at.num        mass        charge   ptype           sigma         epsilon
 c0bf                                   6      0.0000       0.00000       A     3.31526e-01     4.13477e-01    ;  uncertainty sigma = 0.000006, epsilon = 0.000754
 c1bf                                   6      0.0000       0.00000       A     3.31559e-01     4.13635e-01    ;  uncertainty sigma = 0.000021, epsilon = 0.001225
 c2bf                                   6      0.0000       0.00000       A     3.31525e-01     4.12996e-01    ;  uncertainty sigma = 0.000006, epsilon = 0.000558
 c3bf                                   6      0.0000       0.00000       A     3.31510e-01     4.14278e-01    ;  uncertainty sigma = 0.000015, epsilon = 0.001337
 c4bf                                   6      0.0000       0.00000       A     3.39747e-01     4.51054e-01    ;  uncertainty sigma = 0.000023, epsilon = 0.001182
 c5bf                                   6      0.0000       0.00000       A     3.31556e-01     4.13424e-01    ;  uncertainty sigma = 0.000018, epsilon = 0.000830
 c6bf                                   6      0.0000       0.00000       A     3.31522e-01     4.12958e-01    ;  uncertainty sigma = 0.000012, epsilon = 0.001253
 c7bf                                   6      0.0000       0.00000       A     3.31521e-01     4.13309e-01    ;  uncertainty sigma = 0.000005, epsilon = 0.000623
 c8bf                                   6      0.0000       0.00000       A     3.31522e-01     4.13402e-01    ;  uncertainty sigma = 0.000004, epsilon = 0.000568
 c9bf                                   6      0.0000       0.00000       A     3.31532e-01     4.13487e-01    ;  uncertainty sigma = 0.000005, epsilon = 0.000789
 c10bf                                  6      0.0000       0.00000       A     3.31528e-01     4.12870e-01    ;  uncertainty sigma = 0.000017, epsilon = 0.001780
 c11bf                                  6      0.0000       0.00000       A     3.31542e-01     4.13625e-01    ;  uncertainty sigma = 0.000007, epsilon = 0.001343
 c12bf                                  6      0.0000       0.00000       A     3.31529e-01     4.13581e-01    ;  uncertainty sigma = 0.000019, epsilon = 0.001027
 c13bf                                  6      0.0000       0.00000       A     3.31544e-01     4.13185e-01    ;  uncertainty sigma = 0.000012, epsilon = 0.000998
 c14bf                                  6      0.0000       0.00000       A     3.39766e-01     4.51313e-01    ;  uncertainty sigma = 0.000006, epsilon = 0.000601
 f15bf                                  9      0.0000       0.00000       A     3.03401e-01     3.48403e-01    ;  uncertainty sigma = 0.000015, epsilon = 0.000906
 f16bf                                  9      0.0000       0.00000       A     3.03426e-01     3.47978e-01    ;  uncertainty sigma = 0.000008, epsilon = 0.000768
 o17bf                                  8      0.0000       0.00000       A     3.15661e-01     3.03543e-01    ;  uncertainty sigma = 0.000052, epsilon = 0.003674
 n18bf                                  7      0.0000       0.00000       A     3.38417e-01     3.93342e-01    ;  uncertainty sigma = 0.000020, epsilon = 0.001059
 o19bf                                  8      0.0000       0.00000       A     3.04803e-01     6.11515e-01    ;  uncertainty sigma = 0.000019, epsilon = 0.000440
 n20bf                                  7      0.0000       0.00000       A     3.18128e-01     6.83563e-01    ;  uncertainty sigma = 0.000031, epsilon = 0.001981
 n21bf                                  7      0.0000       0.00000       A     3.38435e-01     3.92801e-01    ;  uncertainty sigma = 0.000048, epsilon = 0.001401
 n22bf                                  7      0.0000       0.00000       A     3.27893e-01     6.44492e-01    ;  uncertainty sigma = 0.000029, epsilon = 0.003935
 h23bf                                  1      0.0000       0.00000       A     2.62564e-01     6.70554e-02    ;  uncertainty sigma = 0.000012, epsilon = 0.000465
 h24bf                                  1      0.0000       0.00000       A     2.62548e-01     6.71486e-02    ;  uncertainty sigma = 0.000008, epsilon = 0.000492
 h25bf                                  1      0.0000       0.00000       A     2.62562e-01     6.73680e-02    ;  uncertainty sigma = 0.000008, epsilon = 0.000365
 h26bf                                  1      0.0000       0.00000       A     2.62521e-01     6.67593e-02    ;  uncertainty sigma = 0.000018, epsilon = 0.000881
 h27bf                                  1      0.0000       0.00000       A     2.53663e-01     6.71784e-02    ;  uncertainty sigma = 0.000041, epsilon = 0.000925
 h28bf                                  1      0.0000       0.00000       A     2.42192e-01     8.71381e-02    ;  uncertainty sigma = 0.000031, epsilon = 0.000884
 h29bf                                  1      0.0000       0.00000       A     2.42206e-01     8.67702e-02    ;  uncertainty sigma = 0.000014, epsilon = 0.000617
 h30bf                                  1      0.0000       0.00000       A     2.42206e-01     8.67702e-02    ;  uncertainty sigma = 0.000014, epsilon = 0.000617
 h31bf                                  1      0.0000       0.00000       A     2.42206e-01     8.67702e-02    ;  uncertainty sigma = 0.000014, epsilon = 0.000617
 h32bf                                  1      0.0000       0.00000       A     1.10637e-01     4.10477e-02    ;  uncertainty sigma = 0.000090, epsilon = 0.000649
 c33bf                                  6      0.0000       0.00000       A     3.39768e-01     4.50547e-01    ;  uncertainty sigma = 0.000015, epsilon = 0.001034
 h34bf                                  1      0.0000       0.00000       A     2.60025e-01     8.64648e-02    ;  uncertainty sigma = 0.000014, epsilon = 0.000751
 h35bf                                  1      0.0000       0.00000       A     2.60025e-01     8.64648e-02    ;  uncertainty sigma = 0.000014, epsilon = 0.000751
 c36bf                                  6      0.0000       0.00000       A     3.39768e-01     4.50547e-01    ;  uncertainty sigma = 0.000015, epsilon = 0.001034
 h37bf                                  1      0.0000       0.00000       A     2.60025e-01     8.64649e-02    ;  uncertainty sigma = 0.000014, epsilon = 0.000751
 h38bf                                  1      0.0000       0.00000       A     2.60025e-01     8.64649e-02    ;  uncertainty sigma = 0.000014, epsilon = 0.000751
 c39bf                                  6      0.0000       0.00000       A     3.39779e-01     4.50661e-01    ;  uncertainty sigma = 0.000006, epsilon = 0.000626
 h40bf                                  1      0.0000       0.00000       A     2.42204e-01     8.62274e-02    ;  uncertainty sigma = 0.000030, epsilon = 0.000721
 h41bf                                  1      0.0000       0.00000       A     2.42204e-01     8.62274e-02    ;  uncertainty sigma = 0.000030, epsilon = 0.000721
 c42bf                                  6      0.0000       0.00000       A     3.39779e-01     4.50661e-01    ;  uncertainty sigma = 0.000006, epsilon = 0.000626
 h43bf                                  1      0.0000       0.00000       A     2.42204e-01     8.62275e-02    ;  uncertainty sigma = 0.000030, epsilon = 0.000721
 h44bf                                  1      0.0000       0.00000       A     2.42204e-01     8.62275e-02    ;  uncertainty sigma = 0.000030, epsilon = 0.000721
 o45bf                                  8      0.0000       0.00000       A     3.24309e-01     3.88568e-01    ;  uncertainty sigma = 0.000012, epsilon = 0.001574
 h46bf                                  1      0.0000       0.00000       A     5.38169e-02     1.93062e-02    ;  uncertainty sigma = 0.000108, epsilon = 0.001294
 o47bf                                  8      0.0000       0.00000       A     3.24309e-01     3.88568e-01    ;  uncertainty sigma = 0.000012, epsilon = 0.001574
 h48bf                                  1      0.0000       0.00000       A     5.38168e-02     1.93062e-02    ;  uncertainty sigma = 0.000108, epsilon = 0.001294

[ moleculetype ]
;name             nrexcl
 MOL                   3

[ atoms ]
;       nr            type      resi   res      atom      cgnr      charge          mass ; qtot
         1            c0bf         1   UNL        c0         1    -0.19164       12.0110 ; qtot   -0.192
         2            c1bf         1   UNL        c1         2     0.70215       12.0110 ; qtot    0.511
         3            c2bf         1   UNL        c2         3     0.14567       12.0110 ; qtot    0.656
         4            c3bf         1   UNL        c3         4     0.92635       12.0110 ; qtot    1.583
         5            c4bf         1   UNL        c4         5     0.25230       12.0110 ; qtot    1.835
         6            c5bf         1   UNL        c5         6    -0.40938       12.0110 ; qtot    1.425
         7            c6bf         1   UNL        c6         7    -0.04643       12.0110 ; qtot    1.379
         8            c7bf         1   UNL        c7         8     0.14413       12.0110 ; qtot    1.523
         9            c8bf         1   UNL        c8         9    -0.16248       12.0110 ; qtot    1.361
        10            c9bf         1   UNL        c9        10    -0.09069       12.0110 ; qtot    1.270
        11           c10bf         1   UNL       c10        11     0.63669       12.0110 ; qtot    1.907
        12           c11bf         1   UNL       c11        12     0.52141       12.0110 ; qtot    2.428
        13           c12bf         1   UNL       c12        13     0.00526       12.0110 ; qtot    2.433
        14           c13bf         1   UNL       c13        14     0.04787       12.0110 ; qtot    2.481
        15           c14bf         1   UNL       c14        15     0.08273       12.0110 ; qtot    2.564
        16           f15bf         1   UNL       f15        16    -0.12685       18.9980 ; qtot    2.437
        17           f16bf         1   UNL       f16        17    -0.13805       18.9980 ; qtot    2.299
        18           o17bf         1   UNL       o17        18    -0.21020       15.9990 ; qtot    2.089
        19           n18bf         1   UNL       n18        19    -0.77169       14.0070 ; qtot    1.317
        20           o19bf         1   UNL       o19        20    -0.58915       15.9990 ; qtot    0.728
        21           n20bf         1   UNL       n20        21    -0.43964       14.0070 ; qtot    0.288
        22           n21bf         1   UNL       n21        22    -0.82883       14.0070 ; qtot   -0.540
        23           n22bf         1   UNL       n22        23    -0.85855       14.0070 ; qtot   -1.399
        24           h23bf         1   UNL       h23        24     0.16075        1.0080 ; qtot   -1.238
        25           h24bf         1   UNL       h24        25     0.15721        1.0080 ; qtot   -1.081
        26           h25bf         1   UNL       h25        26     0.17297        1.0080 ; qtot   -0.908
        27           h26bf         1   UNL       h26        27     0.16397        1.0080 ; qtot   -0.744
        28           h27bf         1   UNL       h27        28     0.02899        1.0080 ; qtot   -0.715
        29           h28bf         1   UNL       h28        29     0.07094        1.0080 ; qtot   -0.644
        30           h29bf         1   UNL       h29        30     0.06256        1.0080 ; qtot   -0.582
        31           h30bf         1   UNL       h30        31     0.06256        1.0080 ; qtot   -0.519
        32           h31bf         1   UNL       h31        32     0.06256        1.0080 ; qtot   -0.457
        33           h32bf         1   UNL       h32        33     0.44577        1.0080 ; qtot   -0.011
        34           c33bf         1   UNL       c33        34    -0.11880       12.0110 ; qtot   -0.130
        35           h34bf         1   UNL       h34        35     0.05690        1.0080 ; qtot   -0.073
        36           h35bf         1   UNL       h35        36     0.05690        1.0080 ; qtot   -0.016
        37           c36bf         1   UNL       c36        37    -0.11880       12.0110 ; qtot   -0.135
        38           h37bf         1   UNL       h37        38     0.05690        1.0080 ; qtot   -0.078
        39           h38bf         1   UNL       h38        39     0.05690        1.0080 ; qtot   -0.021
        40           c39bf         1   UNL       c39        40     0.13517       12.0110 ; qtot    0.114
        41           h40bf         1   UNL       h40        41     0.03775        1.0080 ; qtot    0.152
        42           h41bf         1   UNL       h41        42     0.03775        1.0080 ; qtot    0.190
        43           c42bf         1   UNL       c42        43     0.13517       12.0110 ; qtot    0.325
        44           h43bf         1   UNL       h43        44     0.03775        1.0080 ; qtot    0.363
        45           h44bf         1   UNL       h44        45     0.03775        1.0080 ; qtot    0.401
        46           o45bf         1   UNL       o45        46    -0.60269       15.9990 ; qtot   -0.202
        47           h46bf         1   UNL       h46        47     0.40240        1.0080 ; qtot    0.200
        48           o47bf         1   UNL       o47        48    -0.60269       15.9990 ; qtot   -0.402
        49           h48bf         1   UNL       h48        49     0.40238        1.0080 ; qtot    0.000

[ bonds ]
;       ai        aj funct               r               k
         1         3     1        0.138747   361176.981592    ;  uncertainty r = 0.000032, k = 2.643588
         1         8     1        0.139007   367691.396045    ;  uncertainty r = 0.000031, k = 2.749259
         1        26     1        0.108780   338576.282275    ;  uncertainty r = 0.000013, k = 1.210229
         2        13     1        0.146503   257020.024902    ;  uncertainty r = 0.000082, k = 22.735462
         2        20     1        0.123258   653165.404492    ;  uncertainty r = 0.000088, k = 12.275804
         2        21     1        0.140996   234604.673926    ;  uncertainty r = 0.000190, k = 47.108488
         3        14     1        0.139121   358077.006348    ;  uncertainty r = 0.000040, k = 4.650811
         3        16     1        0.134764   340072.935645    ;  uncertainty r = 0.000045, k = 2.589505
         4        19     1        0.136856   533720.784961    ;  uncertainty r = 0.000085, k = 12.162807
         4        22     1        0.135732   617025.031934    ;  uncertainty r = 0.000168, k = 22.678167
         4        23     1        0.139091   548500.489160    ;  uncertainty r = 0.000245, k = 16.657864
         5        23     1        0.145950   236662.249902    ;  uncertainty r = 0.000228, k = 6.363009
         5        29     1        0.109354   304983.108691    ;  uncertainty r = 0.000032, k = 1.575305
         5        34     1        0.152663   194839.257617    ;  uncertainty r = 0.000080, k = 2.181289
         5        37     1        0.152663   194839.257617    ;  uncertainty r = 0.000080, k = 2.181297
         6         7     1        0.142625   274730.546533    ;  uncertainty r = 0.000027, k = 25.477092
         6        11     1        0.142280   412579.914014    ;  uncertainty r = 0.000160, k = 19.583953
         6        12     1        0.140432   398244.734277    ;  uncertainty r = 0.000184, k = 14.574919
         7        13     1        0.135447   409330.648828    ;  uncertainty r = 0.000069, k = 14.135384
         7        27     1        0.108670   334774.368506    ;  uncertainty r = 0.000042, k = 1.864898
         8         9     1        0.138905   362175.303809    ;  uncertainty r = 0.000027, k = 1.862514
         8        17     1        0.135460   342148.081152    ;  uncertainty r = 0.000038, k = 2.796473
         9        10     1        0.139206   376188.256299    ;  uncertainty r = 0.000034, k = 0.837546
         9        24     1        0.108734   335618.242285    ;  uncertainty r = 0.000017, k = 1.062658
        10        14     1        0.139238   351219.092236    ;  uncertainty r = 0.000057, k = 2.910415
        10        25     1        0.108702   335466.041113    ;  uncertainty r = 0.000027, k = 2.133558
        11        21     1        0.137847   263258.536426    ;  uncertainty r = 0.000203, k = 9.254046
        11        22     1        0.133977   452073.334570    ;  uncertainty r = 0.000189, k = 18.312581
        12        19     1        0.133376   406827.807812    ;  uncertainty r = 0.000075, k = 8.510505
        12        28     1        0.108932   329309.656934    ;  uncertainty r = 0.000040, k = 1.993703
        13        18     1        0.136126   317771.224805    ;  uncertainty r = 0.000057, k = 7.847699
        14        18     1        0.138160   312130.434863    ;  uncertainty r = 0.000116, k = 5.846346
        15        21     1        0.146434   260871.378516    ;  uncertainty r = 0.000086, k = 13.117202
        15        30     1        0.109141   308405.949609    ;  uncertainty r = 0.000010, k = 1.505458
        15        31     1        0.109141   308405.949609    ;  uncertainty r = 0.000010, k = 1.505458
        15        32     1        0.109141   308405.949609    ;  uncertainty r = 0.000010, k = 1.505458
        23        33     1        0.102121   438410.163867    ;  uncertainty r = 0.000080, k = 2.014073
        34        35     1        0.109713   309196.680664    ;  uncertainty r = 0.000017, k = 1.654722
        34        36     1        0.109713   309196.680664    ;  uncertainty r = 0.000017, k = 1.654722
        34        40     1        0.152822   210425.947241    ;  uncertainty r = 0.000047, k = 7.320766
        37        38     1        0.109713   309196.680664    ;  uncertainty r = 0.000017, k = 1.654730
        37        39     1        0.109713   309196.680664    ;  uncertainty r = 0.000017, k = 1.654730
        37        43     1        0.152822   210425.947241    ;  uncertainty r = 0.000047, k = 7.320777
        40        41     1        0.109819   306438.417480    ;  uncertainty r = 0.000013, k = 2.022431
        40        42     1        0.109819   306438.417480    ;  uncertainty r = 0.000013, k = 2.022431
        40        46     1        0.143156   258339.527344    ;  uncertainty r = 0.000074, k = 5.628889
        43        44     1        0.109819   306438.417480    ;  uncertainty r = 0.000013, k = 2.022439
        43        45     1        0.109819   306438.417480    ;  uncertainty r = 0.000013, k = 2.022439
        43        48     1        0.143156   258339.552881    ;  uncertainty r = 0.000074, k = 5.628904
        46        47     1        0.097003   464603.270508    ;  uncertainty r = 0.000021, k = 2.913847
        48        49     1        0.097003   464603.270508    ;  uncertainty r = 0.000021, k = 2.913844

[ angles ]
;       ai        aj        ak funct           theta             cth
         1         3        14     1      123.443153      352.584549    ;  uncertainty theta = 0.005265, k = 0.202869
         1         3        16     1      118.916702      524.557093    ;  uncertainty theta = 0.000766, k = 0.063533
         1         8         9     1      122.203163      367.950291    ;  uncertainty theta = 0.004353, k = 0.037976
         1         8        17     1      118.416054      506.109309    ;  uncertainty theta = 0.002115, k = 0.044491
         2        13         7     1      124.683006      439.719752    ;  uncertainty theta = 0.007537, k = 0.191394
         2        13        18     1      108.742836      385.835270    ;  uncertainty theta = 0.008747, k = 0.134414
         2        21        11     1      122.207535      482.934989    ;  uncertainty theta = 0.009442, k = 0.113246
         2        21        15     1      115.396751      421.229959    ;  uncertainty theta = 0.004034, k = 0.268490
         3         1         8     1      117.873718      466.681991    ;  uncertainty theta = 0.002635, k = 0.148809
         3         1        26     1      120.885605      275.043414    ;  uncertainty theta = 0.003104, k = 0.026017
         3        14        10     1      120.438950      350.580333    ;  uncertainty theta = 0.005824, k = 0.197361
         3        14        18     1      117.649757      371.496917    ;  uncertainty theta = 0.004336, k = 0.212601
         4        19        12     1      116.420517      409.303618    ;  uncertainty theta = 0.006689, k = 0.283765
         4        22        11     1      117.219383      447.368882    ;  uncertainty theta = 0.007679, k = 0.198666
         4        23         5     1      115.998558      406.190900    ;  uncertainty theta = 0.009622, k = 0.168032
         4        23        33     1      117.019852      435.134915    ;  uncertainty theta = 0.002926, k = 0.169220
         5        23        33     1      111.793236      339.738042    ;  uncertainty theta = 0.003251, k = 0.167080
         5        34        35     1      106.475403      379.509760    ;  uncertainty theta = 0.002408, k = 0.041377
         5        34        36     1      106.475403      379.509760    ;  uncertainty theta = 0.002408, k = 0.041377
         5        34        40     1      109.881348      545.455546    ;  uncertainty theta = 0.001592, k = 0.032998
         5        37        38     1      106.475403      379.509792    ;  uncertainty theta = 0.002408, k = 0.041377
         5        37        39     1      106.475403      379.509792    ;  uncertainty theta = 0.002408, k = 0.041377
         5        37        43     1      109.881348      545.455546    ;  uncertainty theta = 0.001592, k = 0.032998
         6         7        13     1      121.327866      511.776632    ;  uncertainty theta = 0.006720, k = 0.220926
         6         7        27     1      118.339821      255.619267    ;  uncertainty theta = 0.003231, k = 0.249698
         6        11        21     1      117.673546      482.361936    ;  uncertainty theta = 0.006515, k = 0.137844
         6        11        22     1      122.706726      545.902510    ;  uncertainty theta = 0.006280, k = 0.188877
         6        12        19     1      122.623978      738.053425    ;  uncertainty theta = 0.001355, k = 0.190331
         6        12        28     1      120.196472      259.335475    ;  uncertainty theta = 0.003688, k = 0.144830
         7         6        11     1      119.979813      442.754167    ;  uncertainty theta = 0.011773, k = 0.221309
         7         6        12     1      123.584717      408.523842    ;  uncertainty theta = 0.006835, k = 0.167617
         7        13        18     1      122.452477      425.672203    ;  uncertainty theta = 0.003057, k = 0.087983
         8         1        26     1      122.167213      276.182816    ;  uncertainty theta = 0.001979, k = 0.047518
         8         9        10     1      117.679276      490.002065    ;  uncertainty theta = 0.001416, k = 0.046653
         8         9        24     1      120.978439      282.379204    ;  uncertainty theta = 0.000982, k = 0.023307
         9         8        17     1      119.340736      515.983168    ;  uncertainty theta = 0.001915, k = 0.014125
         9        10        14     1      121.214966      509.817585    ;  uncertainty theta = 0.002734, k = 0.081000
         9        10        25     1      120.371567      284.922126    ;  uncertainty theta = 0.002332, k = 0.030236
        10         9        24     1      121.389076      278.892591    ;  uncertainty theta = 0.001182, k = 0.028037
        10        14        18     1      121.313034      424.254318    ;  uncertainty theta = 0.004582, k = 0.111195
        11         6        12     1      117.403275      430.396887    ;  uncertainty theta = 0.005353, k = 0.232642
        11        21        15     1      116.133522      434.404873    ;  uncertainty theta = 0.006002, k = 0.133710
        13         2        20     1      123.418716      471.104859    ;  uncertainty theta = 0.003206, k = 0.070384
        13         2        21     1      114.431885      323.457720    ;  uncertainty theta = 0.012880, k = 0.672027
        13         7        27     1      120.568748      277.351746    ;  uncertainty theta = 0.005819, k = 0.202769
        13        18        14     1      112.425293      459.717702    ;  uncertainty theta = 0.005379, k = 0.299014
        14         3        16     1      117.525742      487.064690    ;  uncertainty theta = 0.002079, k = 0.147581
        14        10        25     1      118.610428      275.458648    ;  uncertainty theta = 0.003647, k = 0.058785
        19         4        22     1      128.571930      734.386615    ;  uncertainty theta = 0.002934, k = 0.121752
        19         4        23     1      120.799217      819.667473    ;  uncertainty theta = 0.006864, k = 0.188888
        19        12        28     1      117.334389      317.977967    ;  uncertainty theta = 0.003626, k = 0.146143
        20         2        21     1      122.241714      693.873779    ;  uncertainty theta = 0.002201, k = 0.062599
        21        11        22     1      117.243813      579.971248    ;  uncertainty theta = 0.011274, k = 0.178156
        21        15        30     1      107.941574      486.865820    ;  uncertainty theta = 0.001912, k = 0.065460
        21        15        31     1      107.941574      486.865820    ;  uncertainty theta = 0.001912, k = 0.065460
        21        15        32     1      107.941574      486.865820    ;  uncertainty theta = 0.001912, k = 0.065460
        22         4        23     1      121.308304      899.669107    ;  uncertainty theta = 0.005724, k = 0.135667
        23         5        29     1      103.365761      450.974211    ;  uncertainty theta = 0.003428, k = 0.116659
        23         5        34     1      109.364182      616.118963    ;  uncertainty theta = 0.003188, k = 0.096637
        23         5        37     1      109.364182      616.118963    ;  uncertainty theta = 0.003188, k = 0.096637
        29         5        34     1      106.892868      393.691314    ;  uncertainty theta = 0.002807, k = 0.050090
        29         5        37     1      106.892868      393.691251    ;  uncertainty theta = 0.002807, k = 0.050090
        30        15        31     1      107.444313      326.050726    ;  uncertainty theta = 0.002153, k = 0.056617
        30        15        32     1      107.444313      326.050726    ;  uncertainty theta = 0.002153, k = 0.056617
        31        15        32     1      107.444313      326.050726    ;  uncertainty theta = 0.002153, k = 0.056617
        34         5        37     1      109.218483      545.215115    ;  uncertainty theta = 0.002424, k = 0.179031
        34        40        41     1      108.849937      396.629263    ;  uncertainty theta = 0.001783, k = 0.049696
        34        40        42     1      108.849937      396.629263    ;  uncertainty theta = 0.001783, k = 0.049696
        34        40        46     1      110.887375      682.795589    ;  uncertainty theta = 0.000696, k = 0.048909
        35        34        36     1      105.588852      319.469302    ;  uncertainty theta = 0.003474, k = 0.015937
        35        34        40     1      107.258743      401.419450    ;  uncertainty theta = 0.003020, k = 0.024459
        36        34        40     1      107.258743      401.419450    ;  uncertainty theta = 0.003020, k = 0.024459
        37        43        44     1      108.849937      396.629263    ;  uncertainty theta = 0.001783, k = 0.049696
        37        43        45     1      108.849937      396.629263    ;  uncertainty theta = 0.001783, k = 0.049696
        37        43        48     1      110.887375      682.795589    ;  uncertainty theta = 0.000696, k = 0.048909
        38        37        39     1      105.588852      319.469302    ;  uncertainty theta = 0.003473, k = 0.015937
        38        37        43     1      107.258728      401.419450    ;  uncertainty theta = 0.003020, k = 0.024459
        39        37        43     1      107.258728      401.419450    ;  uncertainty theta = 0.003020, k = 0.024459
        40        46        47     1      106.759644      452.667545    ;  uncertainty theta = 0.000495, k = 0.018179
        41        40        42     1      106.750893      321.166722    ;  uncertainty theta = 0.001057, k = 0.042343
        41        40        46     1      108.228134      473.581512    ;  uncertainty theta = 0.000748, k = 0.033347
        42        40        46     1      108.228134      473.581512    ;  uncertainty theta = 0.000748, k = 0.033347
        43        48        49     1      106.759644      452.667545    ;  uncertainty theta = 0.000495, k = 0.018179
        44        43        45     1      106.750893      321.166690    ;  uncertainty theta = 0.001057, k = 0.042343
        44        43        48     1      108.228134      473.581512    ;  uncertainty theta = 0.000748, k = 0.033347
        45        43        48     1      108.228134      473.581512    ;  uncertainty theta = 0.000748, k = 0.033347

[ dihedrals ] ; propers for gromacs 4.5 or higher, use funct 9
;       ai        aj        ak        al funct           phase               k        pn
         1         3        14        10     9        0.000000       -0.306313         1    ;  uncertainty k = 0.505391
         1         3        14        10     9      180.000000        5.699560         2    ;  uncertainty k = 1.071993
         1         3        14        10     9        0.000000        0.341049         3    ;  uncertainty k = 0.427163
         1         3        14        10     9      180.000000        1.286695         4    ;  uncertainty k = 0.336491
         1         3        14        18     9        0.000000        0.209707         1    ;  uncertainty k = 0.181119
         1         3        14        18     9      180.000000        8.078772         2    ;  uncertainty k = 0.443297
         1         3        14        18     9        0.000000        1.333895         3    ;  uncertainty k = 0.197684
         1         3        14        18     9      180.000000        1.703363         4    ;  uncertainty k = 0.101848
         1         8         9        10     9        0.000000        0.006656         1    ;  uncertainty k = 0.178742
         1         8         9        10     9      180.000000        9.851306         2    ;  uncertainty k = 0.487067
         1         8         9        10     9        0.000000       -0.289375         3    ;  uncertainty k = 0.510037
         1         8         9        10     9      180.000000        1.102178         4    ;  uncertainty k = 0.341530
         1         8         9        24     9        0.000000        0.058690         1    ;  uncertainty k = 0.184961
         1         8         9        24     9      180.000000        5.722279         2    ;  uncertainty k = 0.634542
         1         8         9        24     9        0.000000        1.318867         3    ;  uncertainty k = 0.348930
         1         8         9        24     9      180.000000        1.524759         4    ;  uncertainty k = 0.200416
         2        13         7         6     9        0.000000        0.274723         1    ;  uncertainty k = 0.612445
         2        13         7         6     9      180.000000       13.265960         2    ;  uncertainty k = 0.390905
         2        13         7         6     9        0.000000        1.583089         3    ;  uncertainty k = 0.153381
         2        13         7         6     9      180.000000        1.156602         4    ;  uncertainty k = 0.264713
         2        13         7        27     9        0.000000        0.232027         1    ;  uncertainty k = 0.722469
         2        13         7        27     9      180.000000       10.868764         2    ;  uncertainty k = 0.621677
         2        13         7        27     9        0.000000        1.612121         3    ;  uncertainty k = 0.474367
         2        13         7        27     9      180.000000        1.226062         4    ;  uncertainty k = 0.063655
         2        13        18        14     9        0.000000        2.823567         1    ;  uncertainty k = 2.168048
         2        13        18        14     9      180.000000        2.975857         2    ;  uncertainty k = 0.372945
         2        13        18        14     9        0.000000        1.779033         3    ;  uncertainty k = 0.305822
         2        13        18        14     9      180.000000        0.174992         4    ;  uncertainty k = 0.197831
         2        21        11         6     9        0.000000        0.292829         1    ;  uncertainty k = 2.050985
         2        21        11         6     9      180.000000        4.771235         2    ;  uncertainty k = 0.763748
         2        21        11         6     9        0.000000        0.315618         3    ;  uncertainty k = 0.485892
         2        21        11         6     9      180.000000        0.062498         4    ;  uncertainty k = 0.080087
         2        21        11        22     9        0.000000       -0.122536         1    ;  uncertainty k = 1.565057
         2        21        11        22     9      180.000000        7.549581         2    ;  uncertainty k = 0.242014
         2        21        11        22     9        0.000000        0.870759         3    ;  uncertainty k = 0.575000
         2        21        11        22     9      180.000000       -0.227016         4    ;  uncertainty k = 0.156284
         2        21        15        30     9        0.000000       -0.140292         1    ;  uncertainty k = 0.225852
         2        21        15        30     9      180.000000        0.717668         2    ;  uncertainty k = 0.271079
         2        21        15        30     9        0.000000        0.702955         3    ;  uncertainty k = 0.095742
         2        21        15        30     9      180.000000        0.500419         4    ;  uncertainty k = 0.086324
         2        21        15        31     9        0.000000       -0.140292         1    ;  uncertainty k = 0.225852
         2        21        15        31     9      180.000000        0.717668         2    ;  uncertainty k = 0.271079
         2        21        15        31     9        0.000000        0.702955         3    ;  uncertainty k = 0.095742
         2        21        15        31     9      180.000000        0.500419         4    ;  uncertainty k = 0.086324
         2        21        15        32     9        0.000000       -0.140292         1    ;  uncertainty k = 0.225852
         2        21        15        32     9      180.000000        0.717668         2    ;  uncertainty k = 0.271079
         2        21        15        32     9        0.000000        0.702955         3    ;  uncertainty k = 0.095742
         2        21        15        32     9      180.000000        0.500419         4    ;  uncertainty k = 0.086324
         3         1         8         9     9        0.000000       -0.049959         1    ;  uncertainty k = 0.238365
         3         1         8         9     9      180.000000        8.709297         2    ;  uncertainty k = 0.507640
         3         1         8         9     9        0.000000       -0.103094         3    ;  uncertainty k = 0.454333
         3         1         8         9     9      180.000000        1.263124         4    ;  uncertainty k = 0.287252
         3         1         8        17     9        0.000000        0.023050         1    ;  uncertainty k = 0.157478
         3         1         8        17     9      180.000000       12.231401         2    ;  uncertainty k = 0.567990
         3         1         8        17     9        0.000000        1.527926         3    ;  uncertainty k = 0.329456
         3         1         8        17     9      180.000000        1.522411         4    ;  uncertainty k = 0.258192
         3        14        10         9     9        0.000000        0.015776         1    ;  uncertainty k = 0.049644
         3        14        10         9     9      180.000000        9.130352         2    ;  uncertainty k = 0.496855
         3        14        10         9     9        0.000000        0.154802         3    ;  uncertainty k = 0.380221
         3        14        10         9     9      180.000000        1.321067         4    ;  uncertainty k = 0.368043
         3        14        10        25     9        0.000000        0.146476         1    ;  uncertainty k = 0.242432
         3        14        10        25     9      180.000000        6.097361         2    ;  uncertainty k = 0.718867
         3        14        10        25     9        0.000000        1.323120         3    ;  uncertainty k = 0.435541
         3        14        10        25     9      180.000000        1.565701         4    ;  uncertainty k = 0.129358
         3        14        18        13     9        0.000000        3.630851         1    ;  uncertainty k = 0.784137
         3        14        18        13     9      180.000000        2.972220         2    ;  uncertainty k = 0.332620
         3        14        18        13     9        0.000000        0.841399         3    ;  uncertainty k = 0.226489
         3        14        18        13     9      180.000000        0.049554         4    ;  uncertainty k = 0.189241
         4        19        12         6     9        0.000000       -0.238512         1    ;  uncertainty k = 0.653787
         4        19        12         6     9      180.000000       17.213751         2    ;  uncertainty k = 0.575486
         4        19        12         6     9        0.000000       -0.443861         3    ;  uncertainty k = 0.669534
         4        19        12         6     9      180.000000        1.630464         4    ;  uncertainty k = 0.626116
         4        19        12        28     9        0.000000        0.128684         1    ;  uncertainty k = 0.856300
         4        19        12        28     9      180.000000       17.786992         2    ;  uncertainty k = 0.620228
         4        19        12        28     9        0.000000        1.354517         3    ;  uncertainty k = 0.745513
         4        19        12        28     9      180.000000        1.127266         4    ;  uncertainty k = 0.436255
         4        22        11         6     9        0.000000        0.250773         1    ;  uncertainty k = 0.903977
         4        22        11         6     9      180.000000       12.624413         2    ;  uncertainty k = 0.693813
         4        22        11         6     9        0.000000        0.276974         3    ;  uncertainty k = 0.796311
         4        22        11         6     9      180.000000        0.916135         4    ;  uncertainty k = 0.474027
         4        22        11        21     9        0.000000        0.371023         1    ;  uncertainty k = 0.812010
         4        22        11        21     9      180.000000       15.669254         2    ;  uncertainty k = 1.089855
         4        22        11        21     9        0.000000        1.697734         3    ;  uncertainty k = 0.334508
         4        22        11        21     9      180.000000        1.130844         4    ;  uncertainty k = 0.458593
         4        23         5        29     9        0.000000       -0.847502         1    ;  uncertainty k = 0.526922
         4        23         5        29     9      180.000000       -0.752045         2    ;  uncertainty k = 0.394280
         4        23         5        29     9        0.000000        0.040886         3    ;  uncertainty k = 0.155645
         4        23         5        29     9      180.000000        0.361152         4    ;  uncertainty k = 0.131796
         4        23         5        34     9        0.000000       -2.882002         1    ;  uncertainty k = 0.438649
         4        23         5        34     9      180.000000        0.910432         2    ;  uncertainty k = 0.362344
         4        23         5        34     9        0.000000        0.381119         3    ;  uncertainty k = 0.200033
         4        23         5        34     9      180.000000        0.436347         4    ;  uncertainty k = 0.146182
         4        23         5        37     9        0.000000       -2.882002         1    ;  uncertainty k = 0.438649
         4        23         5        37     9      180.000000        0.910432         2    ;  uncertainty k = 0.362345
         4        23         5        37     9        0.000000        0.381119         3    ;  uncertainty k = 0.200033
         4        23         5        37     9      180.000000        0.436347         4    ;  uncertainty k = 0.146181
         5        23         4        19     9        0.000000        9.188678         1    ;  uncertainty k = 0.551966
         5        23         4        19     9      180.000000       12.594969         2    ;  uncertainty k = 0.232320
         5        23         4        19     9        0.000000        1.281734         3    ;  uncertainty k = 0.224816
         5        23         4        19     9      180.000000       -0.528894         4    ;  uncertainty k = 0.092819
         5        23         4        22     9        0.000000        9.535810         1    ;  uncertainty k = 0.451989
         5        23         4        22     9      180.000000       12.703656         2    ;  uncertainty k = 0.057742
         5        23         4        22     9        0.000000        1.099783         3    ;  uncertainty k = 0.334365
         5        23         4        22     9      180.000000       -0.553912         4    ;  uncertainty k = 0.110347
         5        34        40        41     9        0.000000       -0.819528         1    ;  uncertainty k = 0.339487
         5        34        40        41     9      180.000000       -0.596463         2    ;  uncertainty k = 0.219758
         5        34        40        41     9        0.000000        0.779432         3    ;  uncertainty k = 0.134972
         5        34        40        41     9      180.000000       -0.331359         4    ;  uncertainty k = 0.126461
         5        34        40        42     9        0.000000       -0.819528         1    ;  uncertainty k = 0.339487
         5        34        40        42     9      180.000000       -0.596463         2    ;  uncertainty k = 0.219758
         5        34        40        42     9        0.000000        0.779432         3    ;  uncertainty k = 0.134972
         5        34        40        42     9      180.000000       -0.331359         4    ;  uncertainty k = 0.126461
         5        34        40        46     9        0.000000       -4.953778         1    ;  uncertainty k = 0.551003
         5        34        40        46     9      180.000000       -1.497811         2    ;  uncertainty k = 0.135797
         5        34        40        46     9        0.000000        2.010571         3    ;  uncertainty k = 0.196227
         5        34        40        46     9      180.000000       -0.611005         4    ;  uncertainty k = 0.177147
         5        37        43        44     9        0.000000       -0.819528         1    ;  uncertainty k = 0.339486
         5        37        43        44     9      180.000000       -0.596463         2    ;  uncertainty k = 0.219758
         5        37        43        44     9        0.000000        0.779432         3    ;  uncertainty k = 0.134971
         5        37        43        44     9      180.000000       -0.331359         4    ;  uncertainty k = 0.126461
         5        37        43        45     9        0.000000       -0.819528         1    ;  uncertainty k = 0.339486
         5        37        43        45     9      180.000000       -0.596463         2    ;  uncertainty k = 0.219758
         5        37        43        45     9        0.000000        0.779432         3    ;  uncertainty k = 0.134971
         5        37        43        45     9      180.000000       -0.331359         4    ;  uncertainty k = 0.126461
         5        37        43        48     9        0.000000       -4.953777         1    ;  uncertainty k = 0.551003
         5        37        43        48     9      180.000000       -1.497810         2    ;  uncertainty k = 0.135798
         5        37        43        48     9        0.000000        2.010572         3    ;  uncertainty k = 0.196227
         5        37        43        48     9      180.000000       -0.611005         4    ;  uncertainty k = 0.177147
         6         7        13        18     9        0.000000        0.193043         1    ;  uncertainty k = 0.324392
         6         7        13        18     9      180.000000       21.054666         2    ;  uncertainty k = 0.625248
         6         7        13        18     9        0.000000        2.056948         3    ;  uncertainty k = 0.278841
         6         7        13        18     9      180.000000        0.671228         4    ;  uncertainty k = 0.565745
         6        11        21        15     9        0.000000        2.979202         1    ;  uncertainty k = 1.960722
         6        11        21        15     9      180.000000        9.028698         2    ;  uncertainty k = 0.522445
         6        11        21        15     9        0.000000        1.052222         3    ;  uncertainty k = 0.690508
         6        11        21        15     9      180.000000        0.103007         4    ;  uncertainty k = 0.317626
         7         6        11        21     9        0.000000       -0.055109         1    ;  uncertainty k = 0.358970
         7         6        11        21     9      180.000000        8.043977         2    ;  uncertainty k = 0.672672
         7         6        11        21     9        0.000000        0.286966         3    ;  uncertainty k = 0.532218
         7         6        11        21     9      180.000000        1.058111         4    ;  uncertainty k = 0.266965
         7         6        11        22     9        0.000000        0.214990         1    ;  uncertainty k = 0.910679
         7         6        11        22     9      180.000000        8.084228         2    ;  uncertainty k = 1.549906
         7         6        11        22     9        0.000000        0.010182         3    ;  uncertainty k = 0.291697
         7         6        11        22     9      180.000000        1.303603         4    ;  uncertainty k = 0.530365
         7         6        12        19     9        0.000000        0.183526         1    ;  uncertainty k = 0.472977
         7         6        12        19     9      180.000000       10.776902         2    ;  uncertainty k = 0.643703
         7         6        12        19     9        0.000000        0.296457         3    ;  uncertainty k = 0.273252
         7         6        12        19     9      180.000000        1.212243         4    ;  uncertainty k = 0.371987
         7         6        12        28     9        0.000000       -0.429825         1    ;  uncertainty k = 0.536938
         7         6        12        28     9      180.000000        5.931027         2    ;  uncertainty k = 0.523977
         7         6        12        28     9        0.000000        0.831992         3    ;  uncertainty k = 0.274468
         7         6        12        28     9      180.000000        0.681961         4    ;  uncertainty k = 0.180947
         7        13         2        20     9        0.000000       -2.736885         1    ;  uncertainty k = 0.984089
         7        13         2        20     9      180.000000        2.829386         2    ;  uncertainty k = 0.722306
         7        13         2        20     9        0.000000       -0.148850         3    ;  uncertainty k = 0.456669
         7        13         2        20     9      180.000000       -0.018089         4    ;  uncertainty k = 0.178562
         7        13         2        21     9        0.000000        1.847981         1    ;  uncertainty k = 1.695057
         7        13         2        21     9      180.000000        0.676018         2    ;  uncertainty k = 0.840437
         7        13         2        21     9        0.000000        0.412450         3    ;  uncertainty k = 0.335419
         7        13         2        21     9      180.000000        0.361110         4    ;  uncertainty k = 0.179553
         7        13        18        14     9        0.000000        6.054698         1    ;  uncertainty k = 1.057145
         7        13        18        14     9      180.000000        6.289935         2    ;  uncertainty k = 0.136203
         7        13        18        14     9        0.000000       -0.847804         3    ;  uncertainty k = 0.376269
         7        13        18        14     9      180.000000        0.116643         4    ;  uncertainty k = 0.099457
         8         1         3        14     9        0.000000       -0.028157         1    ;  uncertainty k = 0.164194
         8         1         3        14     9      180.000000        8.671004         2    ;  uncertainty k = 0.512359
         8         1         3        14     9        0.000000        0.207433         3    ;  uncertainty k = 0.509188
         8         1         3        14     9      180.000000        1.302601         4    ;  uncertainty k = 0.281851
         8         1         3        16     9        0.000000       -0.002392         1    ;  uncertainty k = 0.247129
         8         1         3        16     9      180.000000       13.084887         2    ;  uncertainty k = 0.509633
         8         1         3        16     9        0.000000        1.474366         3    ;  uncertainty k = 0.306558
         8         1         3        16     9      180.000000        1.520558         4    ;  uncertainty k = 0.243651
         8         9        10        14     9        0.000000       -0.113542         1    ;  uncertainty k = 0.211768
         8         9        10        14     9      180.000000       13.972594         2    ;  uncertainty k = 0.306737
         8         9        10        14     9        0.000000       -0.786444         3    ;  uncertainty k = 0.554355
         8         9        10        14     9      180.000000        0.930464         4    ;  uncertainty k = 0.288428
         8         9        10        25     9        0.000000       -0.003440         1    ;  uncertainty k = 0.095641
         8         9        10        25     9      180.000000        7.538138         2    ;  uncertainty k = 0.273713
         8         9        10        25     9        0.000000        1.412643         3    ;  uncertainty k = 0.270752
         8         9        10        25     9      180.000000        1.740927         4    ;  uncertainty k = 0.123790
         9         8         1        26     9        0.000000        0.138635         1    ;  uncertainty k = 0.151239
         9         8         1        26     9      180.000000        5.451074         2    ;  uncertainty k = 0.660632
         9         8         1        26     9        0.000000        1.286115         3    ;  uncertainty k = 0.294094
         9         8         1        26     9      180.000000        1.480963         4    ;  uncertainty k = 0.179055
         9        10        14        18     9        0.000000       -0.064057         1    ;  uncertainty k = 0.392115
         9        10        14        18     9      180.000000       11.007024         2    ;  uncertainty k = 0.446783
         9        10        14        18     9        0.000000        1.358780         3    ;  uncertainty k = 0.241783
         9        10        14        18     9      180.000000        1.735948         4    ;  uncertainty k = 0.120659
        10         9         8        17     9        0.000000       -0.032001         1    ;  uncertainty k = 0.254449
        10         9         8        17     9      180.000000       12.251927         2    ;  uncertainty k = 0.522356
        10         9         8        17     9        0.000000        1.414423         3    ;  uncertainty k = 0.230243
        10         9         8        17     9      180.000000        1.530094         4    ;  uncertainty k = 0.209632
        10        14         3        16     9        0.000000        0.257162         1    ;  uncertainty k = 0.251999
        10        14         3        16     9      180.000000        8.387430         2    ;  uncertainty k = 0.311300
        10        14         3        16     9        0.000000        1.426919         3    ;  uncertainty k = 0.223314
        10        14         3        16     9      180.000000        1.675064         4    ;  uncertainty k = 0.138706
        10        14        18        13     9        0.000000        4.660947         1    ;  uncertainty k = 1.076529
        10        14        18        13     9      180.000000        3.955354         2    ;  uncertainty k = 0.191196
        10        14        18        13     9        0.000000        0.367207         3    ;  uncertainty k = 0.312421
        10        14        18        13     9      180.000000        0.123949         4    ;  uncertainty k = 0.068754
        11         6         7        13     9        0.000000       -0.025372         1    ;  uncertainty k = 1.114568
        11         6         7        13     9      180.000000        6.557544         2    ;  uncertainty k = 0.948325
        11         6         7        13     9        0.000000        0.243665         3    ;  uncertainty k = 0.389255
        11         6         7        13     9      180.000000        0.542885         4    ;  uncertainty k = 0.194545
        11         6         7        27     9        0.000000        0.722138         1    ;  uncertainty k = 1.061704
        11         6         7        27     9      180.000000        6.218836         2    ;  uncertainty k = 0.684882
        11         6         7        27     9        0.000000        1.076833         3    ;  uncertainty k = 0.330266
        11         6         7        27     9      180.000000        0.199864         4    ;  uncertainty k = 0.161389
        11         6        12        19     9        0.000000        0.013381         1    ;  uncertainty k = 0.627071
        11         6        12        19     9      180.000000       12.220251         2    ;  uncertainty k = 0.441317
        11         6        12        19     9        0.000000       -1.012748         3    ;  uncertainty k = 0.867890
        11         6        12        19     9      180.000000        0.787180         4    ;  uncertainty k = 0.223470
        11         6        12        28     9        0.000000       -0.145544         1    ;  uncertainty k = 0.854535
        11         6        12        28     9      180.000000        6.545969         2    ;  uncertainty k = 0.845282
        11         6        12        28     9        0.000000        0.675850         3    ;  uncertainty k = 0.068222
        11         6        12        28     9      180.000000        0.761488         4    ;  uncertainty k = 0.210437
        11        21         2        13     9        0.000000        1.586106         1    ;  uncertainty k = 2.322553
        11        21         2        13     9      180.000000        2.518871         2    ;  uncertainty k = 0.835154
        11        21         2        13     9        0.000000        0.940113         3    ;  uncertainty k = 0.272741
        11        21         2        13     9      180.000000        0.439431         4    ;  uncertainty k = 0.211173
        11        21         2        20     9        0.000000        2.605736         1    ;  uncertainty k = 2.586638
        11        21         2        20     9      180.000000       13.826008         2    ;  uncertainty k = 0.646503
        11        21         2        20     9        0.000000        0.934382         3    ;  uncertainty k = 0.099179
        11        21         2        20     9      180.000000       -0.443053         4    ;  uncertainty k = 0.498630
        11        21        15        30     9        0.000000       -0.509601         1    ;  uncertainty k = 0.442513
        11        21        15        30     9      180.000000        1.091346         2    ;  uncertainty k = 0.166769
        11        21        15        30     9        0.000000        0.337054         3    ;  uncertainty k = 0.207896
        11        21        15        30     9      180.000000        0.466358         4    ;  uncertainty k = 0.154153
        11        21        15        31     9        0.000000       -0.509601         1    ;  uncertainty k = 0.442513
        11        21        15        31     9      180.000000        1.091346         2    ;  uncertainty k = 0.166769
        11        21        15        31     9        0.000000        0.337054         3    ;  uncertainty k = 0.207896
        11        21        15        31     9      180.000000        0.466358         4    ;  uncertainty k = 0.154153
        11        21        15        32     9        0.000000       -0.509601         1    ;  uncertainty k = 0.442513
        11        21        15        32     9      180.000000        1.091346         2    ;  uncertainty k = 0.166769
        11        21        15        32     9        0.000000        0.337054         3    ;  uncertainty k = 0.207896
        11        21        15        32     9      180.000000        0.466358         4    ;  uncertainty k = 0.154153
        11        22         4        19     9        0.000000        0.074915         1    ;  uncertainty k = 1.526084
        11        22         4        19     9      180.000000        7.399997         2    ;  uncertainty k = 0.830803
        11        22         4        19     9        0.000000        1.302165         3    ;  uncertainty k = 0.663757
        11        22         4        19     9      180.000000        0.777673         4    ;  uncertainty k = 0.265972
        11        22         4        23     9        0.000000        0.307788         1    ;  uncertainty k = 2.143808
        11        22         4        23     9      180.000000        9.421286         2    ;  uncertainty k = 0.687611
        11        22         4        23     9        0.000000        2.012790         3    ;  uncertainty k = 0.552883
        11        22         4        23     9      180.000000        1.000319         4    ;  uncertainty k = 0.213830
        12         6         7        13     9        0.000000        0.253816         1    ;  uncertainty k = 0.506818
        12         6         7        13     9      180.000000        5.236456         2    ;  uncertainty k = 1.028732
        12         6         7        13     9        0.000000        0.968778         3    ;  uncertainty k = 0.317639
        12         6         7        13     9      180.000000        0.380699         4    ;  uncertainty k = 0.231771
        12         6         7        27     9        0.000000        0.380101         1    ;  uncertainty k = 0.916982
        12         6         7        27     9      180.000000        5.440890         2    ;  uncertainty k = 0.354685
        12         6         7        27     9        0.000000        0.946698         3    ;  uncertainty k = 0.312999
        12         6         7        27     9      180.000000        0.085535         4    ;  uncertainty k = 0.135911
        12         6        11        21     9        0.000000       -0.703529         1    ;  uncertainty k = 0.833591
        12         6        11        21     9      180.000000        6.209922         2    ;  uncertainty k = 0.795831
        12         6        11        21     9        0.000000        0.121001         3    ;  uncertainty k = 0.240481
        12         6        11        21     9      180.000000        1.034220         4    ;  uncertainty k = 0.301592
        12         6        11        22     9        0.000000       -0.102436         1    ;  uncertainty k = 0.518634
        12         6        11        22     9      180.000000        7.422389         2    ;  uncertainty k = 1.093179
        12         6        11        22     9        0.000000       -0.337056         3    ;  uncertainty k = 0.315829
        12         6        11        22     9      180.000000        1.222798         4    ;  uncertainty k = 0.561501
        12        19         4        22     9        0.000000        0.059945         1    ;  uncertainty k = 1.080859
        12        19         4        22     9      180.000000        6.746259         2    ;  uncertainty k = 1.296452
        12        19         4        22     9        0.000000        0.763507         3    ;  uncertainty k = 0.554318
        12        19         4        22     9      180.000000        0.543882         4    ;  uncertainty k = 0.196483
        12        19         4        23     9        0.000000        0.582036         1    ;  uncertainty k = 1.222426
        12        19         4        23     9      180.000000        8.037146         2    ;  uncertainty k = 0.645682
        12        19         4        23     9        0.000000        1.883064         3    ;  uncertainty k = 0.614492
        12        19         4        23     9      180.000000        0.775428         4    ;  uncertainty k = 0.162225
        13         2        21        15     9        0.000000        1.056405         1    ;  uncertainty k = 2.053214
        13         2        21        15     9      180.000000        7.294411         2    ;  uncertainty k = 0.749752
        13         2        21        15     9        0.000000        1.508815         3    ;  uncertainty k = 0.227702
        13         2        21        15     9      180.000000       -0.038609         4    ;  uncertainty k = 0.195181
        14         3         1        26     9        0.000000        0.057379         1    ;  uncertainty k = 0.165911
        14         3         1        26     9      180.000000        5.716951         2    ;  uncertainty k = 0.832327
        14         3         1        26     9        0.000000        1.299980         3    ;  uncertainty k = 0.327602
        14         3         1        26     9      180.000000        1.492424         4    ;  uncertainty k = 0.176810
        14        10         9        24     9        0.000000        0.076709         1    ;  uncertainty k = 0.186984
        14        10         9        24     9      180.000000        7.523892         2    ;  uncertainty k = 0.356925
        14        10         9        24     9        0.000000        1.389232         3    ;  uncertainty k = 0.254789
        14        10         9        24     9      180.000000        1.744370         4    ;  uncertainty k = 0.166848
        15        21         2        20     9        0.000000        0.943199         1    ;  uncertainty k = 0.953019
        15        21         2        20     9      180.000000       13.405517         2    ;  uncertainty k = 0.210551
        15        21         2        20     9        0.000000        0.437924         3    ;  uncertainty k = 0.356109
        15        21         2        20     9      180.000000       -0.037170         4    ;  uncertainty k = 0.148301
        15        21        11        22     9        0.000000        1.848375         1    ;  uncertainty k = 1.520688
        15        21        11        22     9      180.000000       10.676144         2    ;  uncertainty k = 0.639732
        15        21        11        22     9        0.000000        0.899071         3    ;  uncertainty k = 0.314161
        15        21        11        22     9      180.000000        0.212436         4    ;  uncertainty k = 0.409433
        16         3         1        26     9        0.000000       -0.230980         1    ;  uncertainty k = 0.291748
        16         3         1        26     9      180.000000        9.239380         2    ;  uncertainty k = 0.341179
        16         3         1        26     9        0.000000        0.839928         3    ;  uncertainty k = 0.293710
        16         3         1        26     9      180.000000        1.043063         4    ;  uncertainty k = 0.201990
        16         3        14        18     9        0.000000       -0.105793         1    ;  uncertainty k = 0.354022
        16         3        14        18     9      180.000000       12.165824         2    ;  uncertainty k = 0.214592
        16         3        14        18     9        0.000000        1.160865         3    ;  uncertainty k = 0.370829
        16         3        14        18     9      180.000000        1.261897         4    ;  uncertainty k = 0.194088
        17         8         1        26     9        0.000000       -0.271891         1    ;  uncertainty k = 0.249928
        17         8         1        26     9      180.000000        8.500019         2    ;  uncertainty k = 0.281498
        17         8         1        26     9        0.000000        0.815708         3    ;  uncertainty k = 0.327842
        17         8         1        26     9      180.000000        0.992978         4    ;  uncertainty k = 0.194491
        17         8         9        24     9        0.000000       -0.357248         1    ;  uncertainty k = 0.222188
        17         8         9        24     9      180.000000        8.920407         2    ;  uncertainty k = 0.265967
        17         8         9        24     9        0.000000        0.818892         3    ;  uncertainty k = 0.249596
        17         8         9        24     9      180.000000        0.905586         4    ;  uncertainty k = 0.175017
        18        13         2        20     9        0.000000       -2.044631         1    ;  uncertainty k = 1.471510
        18        13         2        20     9      180.000000        9.630818         2    ;  uncertainty k = 0.607857
        18        13         2        20     9        0.000000        0.236984         3    ;  uncertainty k = 0.528742
        18        13         2        20     9      180.000000       -0.331931         4    ;  uncertainty k = 0.518325
        18        13         2        21     9        0.000000        1.503142         1    ;  uncertainty k = 1.118683
        18        13         2        21     9      180.000000        3.516108         2    ;  uncertainty k = 0.667937
        18        13         2        21     9        0.000000        0.738545         3    ;  uncertainty k = 0.316487
        18        13         2        21     9      180.000000        0.529978         4    ;  uncertainty k = 0.123665
        18        13         7        27     9        0.000000        0.176467         1    ;  uncertainty k = 0.770343
        18        13         7        27     9      180.000000       16.282668         2    ;  uncertainty k = 0.417244
        18        13         7        27     9        0.000000        1.907448         3    ;  uncertainty k = 0.070637
        18        13         7        27     9      180.000000        0.957052         4    ;  uncertainty k = 0.581336
        18        14        10        25     9        0.000000       -0.025816         1    ;  uncertainty k = 0.162969
        18        14        10        25     9      180.000000        8.757822         2    ;  uncertainty k = 0.242306
        18        14        10        25     9        0.000000        0.878698         3    ;  uncertainty k = 0.265252
        18        14        10        25     9      180.000000        1.203360         4    ;  uncertainty k = 0.152721
        19         4        23        33     9        0.000000        9.918799         1    ;  uncertainty k = 0.446619
        19         4        23        33     9      180.000000        9.885484         2    ;  uncertainty k = 0.218251
        19         4        23        33     9        0.000000        1.269417         3    ;  uncertainty k = 0.477788
        19         4        23        33     9      180.000000       -0.403110         4    ;  uncertainty k = 0.238347
        22         4        23        33     9        0.000000       12.180869         1    ;  uncertainty k = 0.526568
        22         4        23        33     9      180.000000       10.223825         2    ;  uncertainty k = 0.308831
        22         4        23        33     9        0.000000        1.233078         3    ;  uncertainty k = 0.434354
        22         4        23        33     9      180.000000       -0.460969         4    ;  uncertainty k = 0.182535
        23         5        34        35     9        0.000000       -0.740664         1    ;  uncertainty k = 0.219197
        23         5        34        35     9      180.000000       -1.057495         2    ;  uncertainty k = 0.414852
        23         5        34        35     9        0.000000        0.825630         3    ;  uncertainty k = 0.118537
        23         5        34        35     9      180.000000       -0.135670         4    ;  uncertainty k = 0.160672
        23         5        34        36     9        0.000000       -0.740664         1    ;  uncertainty k = 0.219197
        23         5        34        36     9      180.000000       -1.057495         2    ;  uncertainty k = 0.414852
        23         5        34        36     9        0.000000        0.825630         3    ;  uncertainty k = 0.118537
        23         5        34        36     9      180.000000       -0.135670         4    ;  uncertainty k = 0.160672
        23         5        34        40     9        0.000000       -5.009218         1    ;  uncertainty k = 0.567307
        23         5        34        40     9      180.000000       -0.768930         2    ;  uncertainty k = 0.309730
        23         5        34        40     9        0.000000        1.694845         3    ;  uncertainty k = 0.234495
        23         5        34        40     9      180.000000       -0.409468         4    ;  uncertainty k = 0.208742
        23         5        37        38     9        0.000000       -0.740664         1    ;  uncertainty k = 0.219197
        23         5        37        38     9      180.000000       -1.057495         2    ;  uncertainty k = 0.414852
        23         5        37        38     9        0.000000        0.825630         3    ;  uncertainty k = 0.118537
        23         5        37        38     9      180.000000       -0.135670         4    ;  uncertainty k = 0.160672
        23         5        37        39     9        0.000000       -0.740664         1    ;  uncertainty k = 0.219197
        23         5        37        39     9      180.000000       -1.057495         2    ;  uncertainty k = 0.414852
        23         5        37        39     9        0.000000        0.825630         3    ;  uncertainty k = 0.118537
        23         5        37        39     9      180.000000       -0.135670         4    ;  uncertainty k = 0.160672
        23         5        37        43     9        0.000000       -5.009219         1    ;  uncertainty k = 0.567306
        23         5        37        43     9      180.000000       -0.768930         2    ;  uncertainty k = 0.309730
        23         5        37        43     9        0.000000        1.694845         3    ;  uncertainty k = 0.234495
        23         5        37        43     9      180.000000       -0.409468         4    ;  uncertainty k = 0.208742
        24         9        10        25     9        0.000000        0.032265         1    ;  uncertainty k = 0.250069
        24         9        10        25     9      180.000000        7.287468         2    ;  uncertainty k = 0.427630
        24         9        10        25     9        0.000000       -0.295849         3    ;  uncertainty k = 0.226115
        24         9        10        25     9      180.000000        0.117549         4    ;  uncertainty k = 0.137082
        29         5        23        33     9        0.000000        2.464838         1    ;  uncertainty k = 0.786483
        29         5        23        33     9      180.000000       -1.364520         2    ;  uncertainty k = 0.365749
        29         5        23        33     9        0.000000        0.176719         3    ;  uncertainty k = 0.143013
        29         5        23        33     9      180.000000        0.089092         4    ;  uncertainty k = 0.095432
        29         5        34        35     9        0.000000        1.249885         1    ;  uncertainty k = 0.369399
        29         5        34        35     9      180.000000       -0.930131         2    ;  uncertainty k = 0.226173
        29         5        34        35     9        0.000000       -0.197646         3    ;  uncertainty k = 0.093013
        29         5        34        35     9      180.000000       -0.082142         4    ;  uncertainty k = 0.026190
        29         5        34        36     9        0.000000        1.249885         1    ;  uncertainty k = 0.369399
        29         5        34        36     9      180.000000       -0.930131         2    ;  uncertainty k = 0.226173
        29         5        34        36     9        0.000000       -0.197646         3    ;  uncertainty k = 0.093013
        29         5        34        36     9      180.000000       -0.082142         4    ;  uncertainty k = 0.026190
        29         5        34        40     9        0.000000       -1.288802         1    ;  uncertainty k = 0.616503
        29         5        34        40     9      180.000000       -0.861822         2    ;  uncertainty k = 0.279347
        29         5        34        40     9        0.000000        0.478023         3    ;  uncertainty k = 0.168971
        29         5        34        40     9      180.000000       -0.288240         4    ;  uncertainty k = 0.058123
        29         5        37        38     9        0.000000        1.249885         1    ;  uncertainty k = 0.369398
        29         5        37        38     9      180.000000       -0.930131         2    ;  uncertainty k = 0.226174
        29         5        37        38     9        0.000000       -0.197646         3    ;  uncertainty k = 0.093013
        29         5        37        38     9      180.000000       -0.082143         4    ;  uncertainty k = 0.026190
        29         5        37        39     9        0.000000        1.249885         1    ;  uncertainty k = 0.369398
        29         5        37        39     9      180.000000       -0.930131         2    ;  uncertainty k = 0.226174
        29         5        37        39     9        0.000000       -0.197646         3    ;  uncertainty k = 0.093013
        29         5        37        39     9      180.000000       -0.082143         4    ;  uncertainty k = 0.026190
        29         5        37        43     9        0.000000       -1.288802         1    ;  uncertainty k = 0.616504
        29         5        37        43     9      180.000000       -0.861821         2    ;  uncertainty k = 0.279347
        29         5        37        43     9        0.000000        0.478023         3    ;  uncertainty k = 0.168971
        29         5        37        43     9      180.000000       -0.288240         4    ;  uncertainty k = 0.058123
        33        23         5        34     9        0.000000        3.501913         1    ;  uncertainty k = 0.864878
        33        23         5        34     9      180.000000       -1.205838         2    ;  uncertainty k = 0.239015
        33        23         5        34     9        0.000000        0.406221         3    ;  uncertainty k = 0.119781
        33        23         5        34     9      180.000000        0.119752         4    ;  uncertainty k = 0.046491
        33        23         5        37     9        0.000000        3.501913         1    ;  uncertainty k = 0.864879
        33        23         5        37     9      180.000000       -1.205838         2    ;  uncertainty k = 0.239015
        33        23         5        37     9        0.000000        0.406222         3    ;  uncertainty k = 0.119781
        33        23         5        37     9      180.000000        0.119753         4    ;  uncertainty k = 0.046491
        34         5        37        38     9        0.000000       -1.192959         1    ;  uncertainty k = 0.206252
        34         5        37        38     9      180.000000       -0.260721         2    ;  uncertainty k = 0.208762
        34         5        37        38     9        0.000000        0.420465         3    ;  uncertainty k = 0.174798
        34         5        37        38     9      180.000000       -0.234128         4    ;  uncertainty k = 0.038846
        34         5        37        39     9        0.000000       -1.192959         1    ;  uncertainty k = 0.206252
        34         5        37        39     9      180.000000       -0.260721         2    ;  uncertainty k = 0.208762
        34         5        37        39     9        0.000000        0.420465         3    ;  uncertainty k = 0.174798
        34         5        37        39     9      180.000000       -0.234128         4    ;  uncertainty k = 0.038846
        34         5        37        43     9        0.000000       -4.808276         1    ;  uncertainty k = 0.528581
        34         5        37        43     9      180.000000        0.025648         2    ;  uncertainty k = 0.189298
        34         5        37        43     9        0.000000        1.109178         3    ;  uncertainty k = 0.115004
        34         5        37        43     9      180.000000       -0.506264         4    ;  uncertainty k = 0.071640
        34        40        46        47     9        0.000000       12.865294         1    ;  uncertainty k = 0.116668
        34        40        46        47     9      180.000000       -2.724928         2    ;  uncertainty k = 0.251451
        34        40        46        47     9        0.000000        1.156498         3    ;  uncertainty k = 0.125738
        34        40        46        47     9      180.000000        0.331265         4    ;  uncertainty k = 0.115197
        35        34         5        37     9        0.000000       -1.192959         1    ;  uncertainty k = 0.206252
        35        34         5        37     9      180.000000       -0.260721         2    ;  uncertainty k = 0.208763
        35        34         5        37     9        0.000000        0.420465         3    ;  uncertainty k = 0.174798
        35        34         5        37     9      180.000000       -0.234128         4    ;  uncertainty k = 0.038846
        35        34        40        41     9        0.000000        0.516573         1    ;  uncertainty k = 0.210176
        35        34        40        41     9      180.000000       -0.272518         2    ;  uncertainty k = 0.201310
        35        34        40        41     9        0.000000        0.070239         3    ;  uncertainty k = 0.041642
        35        34        40        41     9      180.000000       -0.087272         4    ;  uncertainty k = 0.074687
        35        34        40        42     9        0.000000        0.516573         1    ;  uncertainty k = 0.210176
        35        34        40        42     9      180.000000       -0.272518         2    ;  uncertainty k = 0.201310
        35        34        40        42     9        0.000000        0.070239         3    ;  uncertainty k = 0.041642
        35        34        40        42     9      180.000000       -0.087272         4    ;  uncertainty k = 0.074687
        35        34        40        46     9        0.000000       -1.542858         1    ;  uncertainty k = 0.403724
        35        34        40        46     9      180.000000       -0.866891         2    ;  uncertainty k = 0.377957
        35        34        40        46     9        0.000000        1.404628         3    ;  uncertainty k = 0.087171
        35        34        40        46     9      180.000000       -0.027315         4    ;  uncertainty k = 0.103327
        36        34         5        37     9        0.000000       -1.192959         1    ;  uncertainty k = 0.206252
        36        34         5        37     9      180.000000       -0.260721         2    ;  uncertainty k = 0.208763
        36        34         5        37     9        0.000000        0.420465         3    ;  uncertainty k = 0.174798
        36        34         5        37     9      180.000000       -0.234128         4    ;  uncertainty k = 0.038846
        36        34        40        41     9        0.000000        0.516573         1    ;  uncertainty k = 0.210176
        36        34        40        41     9      180.000000       -0.272518         2    ;  uncertainty k = 0.201310
        36        34        40        41     9        0.000000        0.070239         3    ;  uncertainty k = 0.041642
        36        34        40        41     9      180.000000       -0.087272         4    ;  uncertainty k = 0.074687
        36        34        40        42     9        0.000000        0.516573         1    ;  uncertainty k = 0.210176
        36        34        40        42     9      180.000000       -0.272518         2    ;  uncertainty k = 0.201310
        36        34        40        42     9        0.000000        0.070239         3    ;  uncertainty k = 0.041642
        36        34        40        42     9      180.000000       -0.087272         4    ;  uncertainty k = 0.074687
        36        34        40        46     9        0.000000       -1.542858         1    ;  uncertainty k = 0.403724
        36        34        40        46     9      180.000000       -0.866891         2    ;  uncertainty k = 0.377957
        36        34        40        46     9        0.000000        1.404628         3    ;  uncertainty k = 0.087171
        36        34        40        46     9      180.000000       -0.027315         4    ;  uncertainty k = 0.103327
        37         5        34        40     9        0.000000       -4.808276         1    ;  uncertainty k = 0.528581
        37         5        34        40     9      180.000000        0.025648         2    ;  uncertainty k = 0.189298
        37         5        34        40     9        0.000000        1.109178         3    ;  uncertainty k = 0.115005
        37         5        34        40     9      180.000000       -0.506264         4    ;  uncertainty k = 0.071640
        37        43        48        49     9        0.000000       12.865294         1    ;  uncertainty k = 0.116668
        37        43        48        49     9      180.000000       -2.724929         2    ;  uncertainty k = 0.251449
        37        43        48        49     9        0.000000        1.156498         3    ;  uncertainty k = 0.125739
        37        43        48        49     9      180.000000        0.331265         4    ;  uncertainty k = 0.115196
        38        37        43        44     9        0.000000        0.516573         1    ;  uncertainty k = 0.210176
        38        37        43        44     9      180.000000       -0.272518         2    ;  uncertainty k = 0.201310
        38        37        43        44     9        0.000000        0.070239         3    ;  uncertainty k = 0.041642
        38        37        43        44     9      180.000000       -0.087273         4    ;  uncertainty k = 0.074687
        38        37        43        45     9        0.000000        0.516573         1    ;  uncertainty k = 0.210176
        38        37        43        45     9      180.000000       -0.272518         2    ;  uncertainty k = 0.201310
        38        37        43        45     9        0.000000        0.070239         3    ;  uncertainty k = 0.041642
        38        37        43        45     9      180.000000       -0.087273         4    ;  uncertainty k = 0.074687
        38        37        43        48     9        0.000000       -1.542857         1    ;  uncertainty k = 0.403724
        38        37        43        48     9      180.000000       -0.866890         2    ;  uncertainty k = 0.377958
        38        37        43        48     9        0.000000        1.404628         3    ;  uncertainty k = 0.087170
        38        37        43        48     9      180.000000       -0.027315         4    ;  uncertainty k = 0.103326
        39        37        43        44     9        0.000000        0.516573         1    ;  uncertainty k = 0.210176
        39        37        43        44     9      180.000000       -0.272518         2    ;  uncertainty k = 0.201310
        39        37        43        44     9        0.000000        0.070239         3    ;  uncertainty k = 0.041642
        39        37        43        44     9      180.000000       -0.087273         4    ;  uncertainty k = 0.074687
        39        37        43        45     9        0.000000        0.516573         1    ;  uncertainty k = 0.210176
        39        37        43        45     9      180.000000       -0.272518         2    ;  uncertainty k = 0.201310
        39        37        43        45     9        0.000000        0.070239         3    ;  uncertainty k = 0.041642
        39        37        43        45     9      180.000000       -0.087273         4    ;  uncertainty k = 0.074687
        39        37        43        48     9        0.000000       -1.542857         1    ;  uncertainty k = 0.403724
        39        37        43        48     9      180.000000       -0.866890         2    ;  uncertainty k = 0.377958
        39        37        43        48     9        0.000000        1.404628         3    ;  uncertainty k = 0.087170
        39        37        43        48     9      180.000000       -0.027315         4    ;  uncertainty k = 0.103326
        41        40        46        47     9        0.000000       10.078281         1    ;  uncertainty k = 0.182758
        41        40        46        47     9      180.000000       -2.179099         2    ;  uncertainty k = 0.187943
        41        40        46        47     9        0.000000        0.757405         3    ;  uncertainty k = 0.074226
        41        40        46        47     9      180.000000        0.091959         4    ;  uncertainty k = 0.045471
        42        40        46        47     9        0.000000       10.078281         1    ;  uncertainty k = 0.182758
        42        40        46        47     9      180.000000       -2.179099         2    ;  uncertainty k = 0.187943
        42        40        46        47     9        0.000000        0.757405         3    ;  uncertainty k = 0.074226
        42        40        46        47     9      180.000000        0.091959         4    ;  uncertainty k = 0.045471
        44        43        48        49     9        0.000000       10.078282         1    ;  uncertainty k = 0.182757
        44        43        48        49     9      180.000000       -2.179099         2    ;  uncertainty k = 0.187942
        44        43        48        49     9        0.000000        0.757406         3    ;  uncertainty k = 0.074226
        44        43        48        49     9      180.000000        0.091960         4    ;  uncertainty k = 0.045471
        45        43        48        49     9        0.000000       10.078282         1    ;  uncertainty k = 0.182757
        45        43        48        49     9      180.000000       -2.179099         2    ;  uncertainty k = 0.187942
        45        43        48        49     9        0.000000        0.757406         3    ;  uncertainty k = 0.074226
        45        43        48        49     9      180.000000        0.091960         4    ;  uncertainty k = 0.045471

[ dihedrals ] ; impropers
;       ai        aj        ak        al funct           phase               k        pn
         1         3         8        26     4      180.000000        1.109680         2    ;  uncertainty k = 0.271256
         1         8        26         3     4      180.000000        1.109680         2    ;  uncertainty k = 0.271256
         1        26         3         8     4      180.000000        1.109680         2    ;  uncertainty k = 0.271256
         2        13        20        21     4      180.000000       48.355208         2    ;  uncertainty k = 0.046756
         2        20        21        13     4      180.000000       48.355208         2    ;  uncertainty k = 0.046756
         2        21        13        20     4      180.000000       48.355208         2    ;  uncertainty k = 0.046756
         3         1        14        16     4      180.000000       14.318672         2    ;  uncertainty k = 0.052158
         3        14        16         1     4      180.000000       14.318672         2    ;  uncertainty k = 0.052158
         3        16         1        14     4      180.000000       14.318672         2    ;  uncertainty k = 0.052158
         4        19        22        23     4      180.000000       45.116736         2    ;  uncertainty k = 0.089522
         4        22        23        19     4      180.000000       45.116736         2    ;  uncertainty k = 0.089522
         4        23        19        22     4      180.000000       45.116736         2    ;  uncertainty k = 0.089522
         6         7        11        12     4      180.000000        3.512173         2    ;  uncertainty k = 0.581976
         6        11        12         7     4      180.000000        3.512173         2    ;  uncertainty k = 0.581976
         6        12         7        11     4      180.000000        3.512173         2    ;  uncertainty k = 0.581976
         7         6        13        27     4      180.000000        7.429066         2    ;  uncertainty k = 0.367060
         7        13        27         6     4      180.000000        7.429066         2    ;  uncertainty k = 0.367060
         7        27         6        13     4      180.000000        7.429066         2    ;  uncertainty k = 0.367060
         8         1         9        17     4      180.000000       17.110314         2    ;  uncertainty k = 0.053382
         8         9        17         1     4      180.000000       17.110314         2    ;  uncertainty k = 0.053382
         8        17         1         9     4      180.000000       17.110314         2    ;  uncertainty k = 0.053382
         9         8        10        24     4      180.000000        2.090574         2    ;  uncertainty k = 0.191083
         9        10        24         8     4      180.000000        2.090574         2    ;  uncertainty k = 0.191083
         9        24         8        10     4      180.000000        2.090574         2    ;  uncertainty k = 0.191083
        10         9        14        25     4      180.000000        3.395592         2    ;  uncertainty k = 0.158338
        10        14        25         9     4      180.000000        3.395592         2    ;  uncertainty k = 0.158338
        10        25         9        14     4      180.000000        3.395592         2    ;  uncertainty k = 0.158338
        11         6        21        22     4      180.000000       30.961915         2    ;  uncertainty k = 0.078494
        11        21        22         6     4      180.000000       30.961915         2    ;  uncertainty k = 0.078494
        11        22         6        21     4      180.000000       30.961915         2    ;  uncertainty k = 0.078494
        12         6        19        28     4      180.000000       16.808438         2    ;  uncertainty k = 0.051534
        12        19        28         6     4      180.000000       16.808438         2    ;  uncertainty k = 0.051534
        12        28         6        19     4      180.000000       16.808438         2    ;  uncertainty k = 0.051534
        13         2         7        18     4      180.000000       13.109836         2    ;  uncertainty k = 0.278814
        13         7        18         2     4      180.000000       13.109836         2    ;  uncertainty k = 0.278814
        13        18         2         7     4      180.000000       13.109836         2    ;  uncertainty k = 0.278814
        14         3        10        18     4      180.000000       11.882712         2    ;  uncertainty k = 0.189067
        14        10        18         3     4      180.000000       11.882712         2    ;  uncertainty k = 0.189067
        14        18         3        10     4      180.000000       11.882712         2    ;  uncertainty k = 0.189067
        21         2        11        15     4      180.000000        3.406360         2    ;  uncertainty k = 0.884105
        21        11        15         2     4      180.000000        3.406360         2    ;  uncertainty k = 0.884105
        21        15         2        11     4      180.000000        3.406360         2    ;  uncertainty k = 0.884105
        23         4         5        33     4      180.000000        0.856555         2    ;  uncertainty k = 0.837579
        23         5        33         4     4      180.000000        0.856555         2    ;  uncertainty k = 0.837579
        23        33         4         5     4      180.000000        0.856555         2    ;  uncertainty k = 0.837579

[ pairs ]
;       ai        aj funct
         1        10     1
         1        18     1
         1        24     1
         2         6     1
         2        14     1
         2        22     1
         2        27     1
         2        30     1
         2        31     1
         2        32     1
         3         9     1
         3        13     1
         3        17     1
         3        25     1
         4         6     1
         4        21     1
         4        28     1
         4        29     1
         4        34     1
         4        37     1
         5        19     1
         5        22     1
         5        41     1
         5        42     1
         5        44     1
         5        45     1
         5        46     1
         5        48     1
         6        15     1
         6        18     1
         7        14     1
         7        19     1
         7        20     1
         7        21     1
         7        22     1
         7        28     1
         8        14     1
         8        16     1
         8        25     1
         9        18     1
         9        26     1
        10        13     1
        10        16     1
        10        17     1
        11        13     1
        11        19     1
        11        20     1
        11        23     1
        11        27     1
        11        28     1
        11        30     1
        11        31     1
        11        32     1
        12        13     1
        12        21     1
        12        22     1
        12        23     1
        12        27     1
        13        15     1
        14        24     1
        14        26     1
        15        20     1
        15        22     1
        16        18     1
        16        26     1
        17        24     1
        17        26     1
        18        20     1
        18        21     1
        18        25     1
        18        27     1
        19        33     1
        22        33     1
        23        35     1
        23        36     1
        23        38     1
        23        39     1
        23        40     1
        23        43     1
        24        25     1
        29        33     1
        29        35     1
        29        36     1
        29        38     1
        29        39     1
        29        40     1
        29        43     1
        33        34     1
        33        37     1
        34        38     1
        34        39     1
        34        43     1
        34        47     1
        35        37     1
        35        41     1
        35        42     1
        35        46     1
        36        37     1
        36        41     1
        36        42     1
        36        46     1
        37        40     1
        37        49     1
        38        44     1
        38        45     1
        38        48     1
        39        44     1
        39        45     1
        39        48     1
        41        47     1
        42        47     1
        44        49     1
        45        49     1
