; ITP file created by ByteFF-joint-25, 2026-02-18 03:11:28.498995

[ atomtypes ]
;name           bonded.type        at.num        mass        charge   ptype           sigma         epsilon
 c0bf                                   6      0.0000       0.00000       A     3.31532e-01     4.13480e-01    ;  uncertainty sigma = 0.000015, epsilon = 0.000570
 c1bf                                   6      0.0000       0.00000       A     3.31515e-01     4.13133e-01    ;  uncertainty sigma = 0.000010, epsilon = 0.000674
 c2bf                                   6      0.0000       0.00000       A     3.39746e-01     4.50473e-01    ;  uncertainty sigma = 0.000018, epsilon = 0.001024
 c3bf                                   6      0.0000       0.00000       A     3.39768e-01     4.51022e-01    ;  uncertainty sigma = 0.000006, epsilon = 0.000645
 c4bf                                   6      0.0000       0.00000       A     3.39777e-01     4.50895e-01    ;  uncertainty sigma = 0.000002, epsilon = 0.000606
 c5bf                                   6      0.0000       0.00000       A     3.39768e-01     4.50841e-01    ;  uncertainty sigma = 0.000004, epsilon = 0.000577
 c6bf                                   6      0.0000       0.00000       A     3.39768e-01     4.50847e-01    ;  uncertainty sigma = 0.000004, epsilon = 0.000550
 c7bf                                   6      0.0000       0.00000       A     3.39768e-01     4.50841e-01    ;  uncertainty sigma = 0.000004, epsilon = 0.000577
 c8bf                                   6      0.0000       0.00000       A     3.39777e-01     4.50895e-01    ;  uncertainty sigma = 0.000002, epsilon = 0.000606
 c9bf                                   6      0.0000       0.00000       A     3.31541e-01     4.13316e-01    ;  uncertainty sigma = 0.000007, epsilon = 0.000595
 c10bf                                  6      0.0000       0.00000       A     3.31518e-01     4.13154e-01    ;  uncertainty sigma = 0.000005, epsilon = 0.000494
 c11bf                                  6      0.0000       0.00000       A     3.31521e-01     4.13530e-01    ;  uncertainty sigma = 0.000002, epsilon = 0.000560
 c12bf                                  6      0.0000       0.00000       A     3.31525e-01     4.13356e-01    ;  uncertainty sigma = 0.000006, epsilon = 0.000616
 n13bf                                  7      0.0000       0.00000       A     3.38454e-01     3.93128e-01    ;  uncertainty sigma = 0.000014, epsilon = 0.001611
 c14bf                                  6      0.0000       0.00000       A     3.31555e-01     4.13691e-01    ;  uncertainty sigma = 0.000019, epsilon = 0.001615
 o15bf                                  8      0.0000       0.00000       A     3.15563e-01     3.02719e-01    ;  uncertainty sigma = 0.000043, epsilon = 0.000667
 c16bf                                  6      0.0000       0.00000       A     3.31535e-01     4.13137e-01    ;  uncertainty sigma = 0.000017, epsilon = 0.001511
 n17bf                                  7      0.0000       0.00000       A     3.38417e-01     3.93071e-01    ;  uncertainty sigma = 0.000022, epsilon = 0.000674
 n18bf                                  7      0.0000       0.00000       A     3.20668e-01     8.53150e-01    ;  uncertainty sigma = 0.000013, epsilon = 0.002761
 c19bf                                  6      0.0000       0.00000       A     3.31502e-01     4.13357e-01    ;  uncertainty sigma = 0.000016, epsilon = 0.001431
 n20bf                                  7      0.0000       0.00000       A     3.38400e-01     3.93907e-01    ;  uncertainty sigma = 0.000032, epsilon = 0.000830
 n21bf                                  7      0.0000       0.00000       A     3.27847e-01     6.46587e-01    ;  uncertainty sigma = 0.000027, epsilon = 0.002422
 c22bf                                  6      0.0000       0.00000       A     3.31537e-01     4.13314e-01    ;  uncertainty sigma = 0.000015, epsilon = 0.000461
 c23bf                                  6      0.0000       0.00000       A     3.31521e-01     4.13329e-01    ;  uncertainty sigma = 0.000009, epsilon = 0.000631
 h24bf                                  1      0.0000       0.00000       A     2.44744e-01     6.72455e-02    ;  uncertainty sigma = 0.000032, epsilon = 0.000726
 h25bf                                  1      0.0000       0.00000       A     2.42151e-01     8.65744e-02    ;  uncertainty sigma = 0.000032, epsilon = 0.000680
 h26bf                                  1      0.0000       0.00000       A     2.42151e-01     8.65744e-02    ;  uncertainty sigma = 0.000032, epsilon = 0.000680
 h27bf                                  1      0.0000       0.00000       A     2.60029e-01     8.68866e-02    ;  uncertainty sigma = 0.000020, epsilon = 0.001012
 h28bf                                  1      0.0000       0.00000       A     2.60022e-01     8.68135e-02    ;  uncertainty sigma = 0.000005, epsilon = 0.000610
 h29bf                                  1      0.0000       0.00000       A     2.60022e-01     8.68135e-02    ;  uncertainty sigma = 0.000005, epsilon = 0.000610
 h30bf                                  1      0.0000       0.00000       A     2.60037e-01     8.67480e-02    ;  uncertainty sigma = 0.000010, epsilon = 0.000549
 h31bf                                  1      0.0000       0.00000       A     2.60037e-01     8.67480e-02    ;  uncertainty sigma = 0.000010, epsilon = 0.000549
 h32bf                                  1      0.0000       0.00000       A     2.60038e-01     8.68003e-02    ;  uncertainty sigma = 0.000010, epsilon = 0.000496
 h33bf                                  1      0.0000       0.00000       A     2.60038e-01     8.68003e-02    ;  uncertainty sigma = 0.000010, epsilon = 0.000496
 h34bf                                  1      0.0000       0.00000       A     2.60037e-01     8.67480e-02    ;  uncertainty sigma = 0.000010, epsilon = 0.000549
 h35bf                                  1      0.0000       0.00000       A     2.60037e-01     8.67480e-02    ;  uncertainty sigma = 0.000010, epsilon = 0.000549
 h36bf                                  1      0.0000       0.00000       A     2.60022e-01     8.68135e-02    ;  uncertainty sigma = 0.000005, epsilon = 0.000610
 h37bf                                  1      0.0000       0.00000       A     2.60022e-01     8.68135e-02    ;  uncertainty sigma = 0.000005, epsilon = 0.000610
 h38bf                                  1      0.0000       0.00000       A     2.62563e-01     6.71135e-02    ;  uncertainty sigma = 0.000005, epsilon = 0.000529
 h39bf                                  1      0.0000       0.00000       A     2.62562e-01     6.69925e-02    ;  uncertainty sigma = 0.000011, epsilon = 0.000440
 h40bf                                  1      0.0000       0.00000       A     2.62556e-01     6.70451e-02    ;  uncertainty sigma = 0.000012, epsilon = 0.000463
 h41bf                                  1      0.0000       0.00000       A     1.10659e-01     4.13535e-02    ;  uncertainty sigma = 0.000077, epsilon = 0.001060
 h42bf                                  1      0.0000       0.00000       A     1.10636e-01     4.13049e-02    ;  uncertainty sigma = 0.000070, epsilon = 0.000395
 h43bf                                  1      0.0000       0.00000       A     2.62548e-01     6.70084e-02    ;  uncertainty sigma = 0.000008, epsilon = 0.000631
 c44bf                                  6      0.0000       0.00000       A     3.39790e-01     4.50443e-01    ;  uncertainty sigma = 0.000026, epsilon = 0.000815
 h45bf                                  1      0.0000       0.00000       A     2.42231e-01     8.66487e-02    ;  uncertainty sigma = 0.000024, epsilon = 0.000818
 o46bf                                  8      0.0000       0.00000       A     3.24306e-01     3.88599e-01    ;  uncertainty sigma = 0.000018, epsilon = 0.001697
 h47bf                                  1      0.0000       0.00000       A     2.42231e-01     8.66487e-02    ;  uncertainty sigma = 0.000024, epsilon = 0.000818
 h48bf                                  1      0.0000       0.00000       A     5.37902e-02     1.92606e-02    ;  uncertainty sigma = 0.000133, epsilon = 0.000842

[ moleculetype ]
;name             nrexcl
 MOL                   3

[ atoms ]
;       nr            type      resi   res      atom      cgnr      charge          mass ; qtot
         1            c0bf         1   UNL        c0         1     0.95643       12.0110 ; qtot    0.956
         2            c1bf         1   UNL        c1         2     0.41068       12.0110 ; qtot    1.367
         3            c2bf         1   UNL        c2         3     0.14743       12.0110 ; qtot    1.515
         4            c3bf         1   UNL        c3         4    -0.07357       12.0110 ; qtot    1.441
         5            c4bf         1   UNL        c4         5    -0.07055       12.0110 ; qtot    1.370
         6            c5bf         1   UNL        c5         6    -0.07454       12.0110 ; qtot    1.296
         7            c6bf         1   UNL        c6         7    -0.07568       12.0110 ; qtot    1.220
         8            c7bf         1   UNL        c7         8    -0.07454       12.0110 ; qtot    1.146
         9            c8bf         1   UNL        c8         9    -0.07055       12.0110 ; qtot    1.075
        10            c9bf         1   UNL        c9        10    -0.09176       12.0110 ; qtot    0.983
        11           c10bf         1   UNL       c10        11    -0.13985       12.0110 ; qtot    0.844
        12           c11bf         1   UNL       c11        12    -0.10157       12.0110 ; qtot    0.742
        13           c12bf         1   UNL       c12        13    -0.16580       12.0110 ; qtot    0.576
        14           n13bf         1   UNL       n13        14    -0.85541       14.0070 ; qtot   -0.279
        15           c14bf         1   UNL       c14        15     0.76711       12.0110 ; qtot    0.488
        16           o15bf         1   UNL       o15        16    -0.41736       15.9990 ; qtot    0.070
        17           c16bf         1   UNL       c16        17    -0.22388       12.0110 ; qtot   -0.153
        18           n17bf         1   UNL       n17        18    -0.51902       14.0070 ; qtot   -0.672
        19           n18bf         1   UNL       n18        19    -0.38521       14.0070 ; qtot   -1.058
        20           c19bf         1   UNL       c19        20     0.49592       12.0110 ; qtot   -0.562
        21           n20bf         1   UNL       n20        21    -0.78034       14.0070 ; qtot   -1.342
        22           n21bf         1   UNL       n21        22    -0.74084       14.0070 ; qtot   -2.083
        23           c22bf         1   UNL       c22        23     0.17499       12.0110 ; qtot   -1.908
        24           c23bf         1   UNL       c23        24    -0.15515       12.0110 ; qtot   -2.063
        25           h24bf         1   UNL       h24        25     0.07138        1.0080 ; qtot   -1.992
        26           h25bf         1   UNL       h25        26     0.05737        1.0080 ; qtot   -1.934
        27           h26bf         1   UNL       h26        27     0.05737        1.0080 ; qtot   -1.877
        28           h27bf         1   UNL       h27        28     0.05674        1.0080 ; qtot   -1.820
        29           h28bf         1   UNL       h28        29     0.04108        1.0080 ; qtot   -1.779
        30           h29bf         1   UNL       h29        30     0.04108        1.0080 ; qtot   -1.738
        31           h30bf         1   UNL       h30        31     0.03886        1.0080 ; qtot   -1.699
        32           h31bf         1   UNL       h31        32     0.03886        1.0080 ; qtot   -1.660
        33           h32bf         1   UNL       h32        33     0.03826        1.0080 ; qtot   -1.622
        34           h33bf         1   UNL       h33        34     0.03826        1.0080 ; qtot   -1.584
        35           h34bf         1   UNL       h34        35     0.03886        1.0080 ; qtot   -1.545
        36           h35bf         1   UNL       h35        36     0.03886        1.0080 ; qtot   -1.506
        37           h36bf         1   UNL       h36        37     0.04108        1.0080 ; qtot   -1.465
        38           h37bf         1   UNL       h37        38     0.04108        1.0080 ; qtot   -1.424
        39           h38bf         1   UNL       h38        39     0.13816        1.0080 ; qtot   -1.286
        40           h39bf         1   UNL       h39        40     0.13365        1.0080 ; qtot   -1.152
        41           h40bf         1   UNL       h40        41     0.14837        1.0080 ; qtot   -1.004
        42           h41bf         1   UNL       h41        42     0.32141        1.0080 ; qtot   -0.682
        43           h42bf         1   UNL       h42        43     0.45611        1.0080 ; qtot   -0.226
        44           h43bf         1   UNL       h43        44     0.14999        1.0080 ; qtot   -0.076
        45           c44bf         1   UNL       c44        45     0.18037       12.0110 ; qtot    0.104
        46           h45bf         1   UNL       h45        46     0.04452        1.0080 ; qtot    0.149
        47           o46bf         1   UNL       o46        47    -0.59830       15.9990 ; qtot   -0.450
        48           h47bf         1   UNL       h47        48     0.04452        1.0080 ; qtot   -0.405
        49           h48bf         1   UNL       h48        49     0.40512        1.0080 ; qtot   -0.000

[ bonds ]
;       ai        aj funct               r               k
         1        14     1        0.137692   563792.212402    ;  uncertainty r = 0.000197, k = 15.011635
         1        21     1        0.135717   497270.596191    ;  uncertainty r = 0.000139, k = 6.796764
         1        22     1        0.140059   572008.470898    ;  uncertainty r = 0.000230, k = 15.482159
         2        18     1        0.131489   458656.699219    ;  uncertainty r = 0.000037, k = 5.835382
         2        19     1        0.139342   329079.414355    ;  uncertainty r = 0.000043, k = 9.668559
         2        25     1        0.108332   339946.501416    ;  uncertainty r = 0.000011, k = 1.564861
         3         4     1        0.152057   199736.687842    ;  uncertainty r = 0.000061, k = 5.790512
         3        16     1        0.143315   239169.610986    ;  uncertainty r = 0.000097, k = 7.333188
         3        26     1        0.109496   307818.647168    ;  uncertainty r = 0.000046, k = 1.114744
         3        27     1        0.109496   307818.647168    ;  uncertainty r = 0.000046, k = 1.114744
         4         5     1        0.153587   205328.599756    ;  uncertainty r = 0.000046, k = 2.392583
         4         9     1        0.153587   205328.599756    ;  uncertainty r = 0.000046, k = 2.392583
         4        28     1        0.109837   304071.280664    ;  uncertainty r = 0.000031, k = 1.439771
         5         6     1        0.153586   210762.322046    ;  uncertainty r = 0.000027, k = 3.760745
         5        29     1        0.109775   307348.917578    ;  uncertainty r = 0.000003, k = 1.364875
         5        30     1        0.109775   307348.917578    ;  uncertainty r = 0.000003, k = 1.364875
         6         7     1        0.153619   211447.099634    ;  uncertainty r = 0.000025, k = 2.144177
         6        31     1        0.109778   306677.214990    ;  uncertainty r = 0.000007, k = 1.120477
         6        32     1        0.109778   306677.214990    ;  uncertainty r = 0.000007, k = 1.120477
         7         8     1        0.153619   211447.099634    ;  uncertainty r = 0.000025, k = 2.144177
         7        33     1        0.109791   306489.006494    ;  uncertainty r = 0.000014, k = 1.016736
         7        34     1        0.109791   306489.006494    ;  uncertainty r = 0.000014, k = 1.016736
         8         9     1        0.153586   210762.322046    ;  uncertainty r = 0.000027, k = 3.760745
         8        35     1        0.109778   306677.214990    ;  uncertainty r = 0.000007, k = 1.120477
         8        36     1        0.109778   306677.214990    ;  uncertainty r = 0.000007, k = 1.120477
         9        37     1        0.109775   307348.917578    ;  uncertainty r = 0.000003, k = 1.364875
         9        38     1        0.109775   307348.917578    ;  uncertainty r = 0.000003, k = 1.364875
        10        11     1        0.139714   355906.658496    ;  uncertainty r = 0.000026, k = 2.304763
        10        24     1        0.139286   351071.921875    ;  uncertainty r = 0.000048, k = 4.376401
        10        45     1        0.151475   231705.292676    ;  uncertainty r = 0.000058, k = 8.513885
        11        12     1        0.139613   368592.345264    ;  uncertainty r = 0.000022, k = 1.474198
        11        39     1        0.108843   333911.086523    ;  uncertainty r = 0.000014, k = 0.612707
        12        13     1        0.139375   369953.090137    ;  uncertainty r = 0.000019, k = 1.950537
        12        40     1        0.108788   332972.546680    ;  uncertainty r = 0.000013, k = 1.566307
        13        23     1        0.140286   352012.300391    ;  uncertainty r = 0.000060, k = 3.539749
        13        41     1        0.108745   336461.503174    ;  uncertainty r = 0.000029, k = 2.483126
        14        15     1        0.133977   398017.785986    ;  uncertainty r = 0.000160, k = 21.625405
        15        16     1        0.133486   312483.919531    ;  uncertainty r = 0.000114, k = 9.032125
        15        17     1        0.140565   391002.895264    ;  uncertainty r = 0.000249, k = 16.686578
        17        18     1        0.138948   295428.858887    ;  uncertainty r = 0.000129, k = 8.760058
        17        20     1        0.141391   511113.445996    ;  uncertainty r = 0.000118, k = 11.674714
        19        20     1        0.138394   420661.438721    ;  uncertainty r = 0.000137, k = 16.534878
        19        42     1        0.101710   428654.783789    ;  uncertainty r = 0.000066, k = 2.300302
        20        21     1        0.134317   482282.713477    ;  uncertainty r = 0.000062, k = 12.474368
        22        23     1        0.140966   335643.421875    ;  uncertainty r = 0.000088, k = 5.423428
        22        43     1        0.102392   457997.382129    ;  uncertainty r = 0.000064, k = 9.715984
        23        24     1        0.140247   349513.953906    ;  uncertainty r = 0.000083, k = 3.908159
        24        44     1        0.108858   334349.303320    ;  uncertainty r = 0.000051, k = 2.312519
        45        46     1        0.109778   304905.833398    ;  uncertainty r = 0.000024, k = 1.221378
        45        47     1        0.143214   273210.296875    ;  uncertainty r = 0.000051, k = 9.576141
        45        48     1        0.109778   304905.833398    ;  uncertainty r = 0.000024, k = 1.221378
        47        49     1        0.097094   469511.809375    ;  uncertainty r = 0.000028, k = 4.349144

[ angles ]
;       ai        aj        ak funct           theta             cth
         1        14        15     1      126.742821      406.753291    ;  uncertainty theta = 0.002818, k = 0.376100
         1        21        20     1      109.784683      447.969004    ;  uncertainty theta = 0.006143, k = 0.312790
         1        22        23     1      116.381836      379.689126    ;  uncertainty theta = 0.002973, k = 0.119486
         1        22        43     1      117.573387      461.364080    ;  uncertainty theta = 0.005223, k = 0.074396
         2        18        17     1      106.111351      853.549407    ;  uncertainty theta = 0.003794, k = 0.182834
         2        19        20     1      102.354355      897.551379    ;  uncertainty theta = 0.005127, k = 0.150610
         2        19        42     1      117.932297      277.348969    ;  uncertainty theta = 0.004851, k = 0.101165
         3         4         5     1      109.370621      534.546189    ;  uncertainty theta = 0.000881, k = 0.079597
         3         4         9     1      109.370621      534.546189    ;  uncertainty theta = 0.000881, k = 0.079597
         3         4        28     1      104.519203      390.668774    ;  uncertainty theta = 0.001871, k = 0.051672
         3        16        15     1      109.298241      487.255900    ;  uncertainty theta = 0.006273, k = 0.134319
         4         3        16     1      108.360596      589.984285    ;  uncertainty theta = 0.002151, k = 0.068728
         4         3        26     1      110.388329      401.234498    ;  uncertainty theta = 0.001434, k = 0.050678
         4         3        27     1      110.388329      401.234498    ;  uncertainty theta = 0.001434, k = 0.050678
         4         5         6     1      109.808632      579.430436    ;  uncertainty theta = 0.001205, k = 0.063369
         4         5        29     1      108.107224      391.796365    ;  uncertainty theta = 0.000562, k = 0.017913
         4         5        30     1      108.107224      391.796365    ;  uncertainty theta = 0.000562, k = 0.017913
         4         9         8     1      109.808632      579.430436    ;  uncertainty theta = 0.001205, k = 0.063369
         4         9        37     1      108.107224      391.796365    ;  uncertainty theta = 0.000562, k = 0.017913
         4         9        38     1      108.107224      391.796365    ;  uncertainty theta = 0.000562, k = 0.017913
         5         4         9     1      109.660385      590.498730    ;  uncertainty theta = 0.000773, k = 0.120988
         5         4        28     1      107.825272      400.301755    ;  uncertainty theta = 0.001267, k = 0.020179
         5         6         7     1      109.478188      613.671677    ;  uncertainty theta = 0.000704, k = 0.027802
         5         6        31     1      108.525650      399.342996    ;  uncertainty theta = 0.001032, k = 0.020585
         5         6        32     1      108.525650      399.342996    ;  uncertainty theta = 0.001032, k = 0.020585
         6         5        29     1      108.752831      406.358231    ;  uncertainty theta = 0.000546, k = 0.018181
         6         5        30     1      108.752831      406.358231    ;  uncertainty theta = 0.000546, k = 0.018181
         6         7         8     1      108.993248      613.337461    ;  uncertainty theta = 0.001325, k = 0.034156
         6         7        33     1      108.795181      401.635590    ;  uncertainty theta = 0.001133, k = 0.009890
         6         7        34     1      108.795181      401.635590    ;  uncertainty theta = 0.001133, k = 0.009890
         7         6        31     1      108.826157      401.626844    ;  uncertainty theta = 0.001001, k = 0.013174
         7         6        32     1      108.826157      401.626844    ;  uncertainty theta = 0.001001, k = 0.013174
         7         8         9     1      109.478188      613.671677    ;  uncertainty theta = 0.000704, k = 0.027802
         7         8        35     1      108.826157      401.626844    ;  uncertainty theta = 0.001001, k = 0.013174
         7         8        36     1      108.826157      401.626844    ;  uncertainty theta = 0.001001, k = 0.013174
         8         7        33     1      108.795181      401.635590    ;  uncertainty theta = 0.001133, k = 0.009890
         8         7        34     1      108.795181      401.635590    ;  uncertainty theta = 0.001133, k = 0.009890
         8         9        37     1      108.752831      406.358231    ;  uncertainty theta = 0.000546, k = 0.018181
         8         9        38     1      108.752831      406.358231    ;  uncertainty theta = 0.000546, k = 0.018181
         9         4        28     1      107.825272      400.301755    ;  uncertainty theta = 0.001267, k = 0.020179
         9         8        35     1      108.525650      399.342996    ;  uncertainty theta = 0.001032, k = 0.020585
         9         8        36     1      108.525650      399.342996    ;  uncertainty theta = 0.001032, k = 0.020585
        10        11        12     1      119.482483      517.300373    ;  uncertainty theta = 0.001314, k = 0.078960
        10        11        39     1      119.297035      269.573749    ;  uncertainty theta = 0.001645, k = 0.051679
        10        24        23     1      120.536972      522.918856    ;  uncertainty theta = 0.004626, k = 0.058062
        10        24        44     1      119.616348      282.614497    ;  uncertainty theta = 0.002114, k = 0.080881
        10        45        46     1      108.608398      412.342087    ;  uncertainty theta = 0.002304, k = 0.068401
        10        45        47     1      112.610802      712.641958    ;  uncertainty theta = 0.001983, k = 0.157795
        10        45        48     1      108.608398      412.342087    ;  uncertainty theta = 0.002304, k = 0.068401
        11        10        24     1      120.716881      453.884420    ;  uncertainty theta = 0.002996, k = 0.143264
        11        10        45     1      120.569046      417.141116    ;  uncertainty theta = 0.001435, k = 0.065521
        11        12        13     1      120.762894      501.775757    ;  uncertainty theta = 0.002081, k = 0.065687
        11        12        40     1      120.312790      283.588706    ;  uncertainty theta = 0.001183, k = 0.054040
        12        11        39     1      120.682335      291.525193    ;  uncertainty theta = 0.002113, k = 0.042887
        12        13        23     1      118.882469      516.216897    ;  uncertainty theta = 0.002286, k = 0.091840
        12        13        41     1      121.186974      313.565537    ;  uncertainty theta = 0.001776, k = 0.032539
        13        12        40     1      119.813065      279.807554    ;  uncertainty theta = 0.001210, k = 0.046756
        13        23        22     1      119.841599      573.740130    ;  uncertainty theta = 0.003649, k = 0.077406
        13        23        24     1      120.273148      367.342636    ;  uncertainty theta = 0.006109, k = 0.089477
        14         1        21     1      129.092941      757.787864    ;  uncertainty theta = 0.006481, k = 0.120442
        14         1        22     1      120.659889      870.408368    ;  uncertainty theta = 0.004856, k = 0.122894
        14        15        16     1      118.935570      616.218302    ;  uncertainty theta = 0.007793, k = 0.186676
        14        15        17     1      121.320839      502.911839    ;  uncertainty theta = 0.004217, k = 0.154158
        15        17        18     1      125.572182      337.569367    ;  uncertainty theta = 0.011808, k = 0.247348
        15        17        20     1      115.411545      389.079632    ;  uncertainty theta = 0.002296, k = 0.591650
        16         3        26     1      105.912796      425.655923    ;  uncertainty theta = 0.002429, k = 0.021585
        16         3        27     1      105.912796      425.655923    ;  uncertainty theta = 0.002429, k = 0.021585
        16        15        17     1      120.841599      418.373761    ;  uncertainty theta = 0.012439, k = 0.222946
        17        20        19     1      106.195297      652.909446    ;  uncertainty theta = 0.002633, k = 0.118945
        17        20        21     1      124.131241      528.955701    ;  uncertainty theta = 0.002054, k = 0.262938
        18         2        19     1      113.227966      928.193356    ;  uncertainty theta = 0.003566, k = 0.156145
        18         2        25     1      123.515884      268.877032    ;  uncertainty theta = 0.002962, k = 0.132496
        18        17        20     1      111.612305      768.764927    ;  uncertainty theta = 0.003022, k = 0.071308
        19         2        25     1      119.012375      282.043838    ;  uncertainty theta = 0.003618, k = 0.085884
        19        20        21     1      130.784073      493.318920    ;  uncertainty theta = 0.002562, k = 0.208672
        20        19        42     1      119.864441      316.787906    ;  uncertainty theta = 0.004484, k = 0.091289
        21         1        22     1      120.505859      821.138219    ;  uncertainty theta = 0.005498, k = 0.115055
        22        23        24     1      119.407211      570.941198    ;  uncertainty theta = 0.004101, k = 0.041607
        23        13        41     1      119.181473      273.708015    ;  uncertainty theta = 0.001790, k = 0.037863
        23        22        43     1      113.609543      343.349308    ;  uncertainty theta = 0.005275, k = 0.127186
        23        24        44     1      119.176453      275.011621    ;  uncertainty theta = 0.001722, k = 0.060584
        24        10        45     1      119.554115      402.430305    ;  uncertainty theta = 0.001736, k = 0.156172
        26         3        27     1      107.711685      332.413967    ;  uncertainty theta = 0.002533, k = 0.071911
        29         5        30     1      104.326004      317.253224    ;  uncertainty theta = 0.001073, k = 0.013630
        31         6        32     1      104.066360      312.019042    ;  uncertainty theta = 0.001961, k = 0.032491
        33         7        34     1      103.945633      313.844913    ;  uncertainty theta = 0.001747, k = 0.045918
        35         8        36     1      104.066360      312.019042    ;  uncertainty theta = 0.001961, k = 0.032491
        37         9        38     1      104.326004      317.253224    ;  uncertainty theta = 0.001073, k = 0.013630
        45        47        49     1      107.104736      462.376020    ;  uncertainty theta = 0.001422, k = 0.061372
        46        45        47     1      107.570580      478.144482    ;  uncertainty theta = 0.001890, k = 0.034940
        46        45        48     1      106.696106      312.582231    ;  uncertainty theta = 0.003760, k = 0.016392
        47        45        48     1      107.570580      478.144482    ;  uncertainty theta = 0.001890, k = 0.034940

[ dihedrals ] ; propers for gromacs 4.5 or higher, use funct 9
;       ai        aj        ak        al funct           phase               k        pn
         1        14        15        16     9        0.000000        0.439457         1    ;  uncertainty k = 1.483412
         1        14        15        16     9      180.000000       14.711091         2    ;  uncertainty k = 0.661713
         1        14        15        16     9        0.000000        2.434957         3    ;  uncertainty k = 0.461929
         1        14        15        16     9      180.000000        1.704861         4    ;  uncertainty k = 0.321312
         1        14        15        17     9        0.000000       -0.025149         1    ;  uncertainty k = 1.002386
         1        14        15        17     9      180.000000       13.567653         2    ;  uncertainty k = 0.282700
         1        14        15        17     9        0.000000        0.983280         3    ;  uncertainty k = 0.510106
         1        14        15        17     9      180.000000        1.341124         4    ;  uncertainty k = 0.375485
         1        21        20        17     9        0.000000       -0.017905         1    ;  uncertainty k = 1.073337
         1        21        20        17     9      180.000000       12.505613         2    ;  uncertainty k = 0.302253
         1        21        20        17     9        0.000000       -1.162332         3    ;  uncertainty k = 0.668118
         1        21        20        17     9      180.000000        1.142664         4    ;  uncertainty k = 0.203257
         1        21        20        19     9        0.000000       -0.620344         1    ;  uncertainty k = 0.818592
         1        21        20        19     9      180.000000       16.881254         2    ;  uncertainty k = 0.563329
         1        21        20        19     9        0.000000        1.129661         3    ;  uncertainty k = 0.402579
         1        21        20        19     9      180.000000        1.161579         4    ;  uncertainty k = 0.378875
         1        22        23        13     9        0.000000        0.274712         1    ;  uncertainty k = 0.360215
         1        22        23        13     9      180.000000        6.474002         2    ;  uncertainty k = 0.105410
         1        22        23        13     9        0.000000        0.958233         3    ;  uncertainty k = 0.251494
         1        22        23        13     9      180.000000        0.092724         4    ;  uncertainty k = 0.073584
         1        22        23        24     9        0.000000        0.157656         1    ;  uncertainty k = 0.511983
         1        22        23        24     9      180.000000        6.536466         2    ;  uncertainty k = 0.127651
         1        22        23        24     9        0.000000        0.917083         3    ;  uncertainty k = 0.264868
         1        22        23        24     9      180.000000        0.095437         4    ;  uncertainty k = 0.072348
         2        18        17        15     9        0.000000        0.735464         1    ;  uncertainty k = 0.750680
         2        18        17        15     9      180.000000        7.847477         2    ;  uncertainty k = 0.940977
         2        18        17        15     9        0.000000        0.398428         3    ;  uncertainty k = 0.869847
         2        18        17        15     9      180.000000        0.957178         4    ;  uncertainty k = 0.474924
         2        18        17        20     9        0.000000        0.121290         1    ;  uncertainty k = 1.156313
         2        18        17        20     9      180.000000       12.718757         2    ;  uncertainty k = 0.701871
         2        18        17        20     9        0.000000       -8.821906         3    ;  uncertainty k = 1.315956
         2        18        17        20     9      180.000000        2.424357         4    ;  uncertainty k = 0.269865
         2        19        20        17     9        0.000000        0.489619         1    ;  uncertainty k = 1.421474
         2        19        20        17     9      180.000000       13.059893         2    ;  uncertainty k = 1.109382
         2        19        20        17     9        0.000000       -9.373226         3    ;  uncertainty k = 1.895988
         2        19        20        17     9      180.000000        0.964849         4    ;  uncertainty k = 0.536529
         2        19        20        21     9        0.000000        0.801167         1    ;  uncertainty k = 2.152286
         2        19        20        21     9      180.000000        8.204403         2    ;  uncertainty k = 1.378239
         2        19        20        21     9        0.000000       -0.096554         3    ;  uncertainty k = 1.003206
         2        19        20        21     9      180.000000        0.365154         4    ;  uncertainty k = 0.210995
         3         4         5         6     9        0.000000       -4.769153         1    ;  uncertainty k = 0.573785
         3         4         5         6     9      180.000000        0.472126         2    ;  uncertainty k = 0.225074
         3         4         5         6     9        0.000000        0.768371         3    ;  uncertainty k = 0.170758
         3         4         5         6     9      180.000000       -0.381064         4    ;  uncertainty k = 0.118636
         3         4         5        29     9        0.000000        0.009695         1    ;  uncertainty k = 0.581490
         3         4         5        29     9      180.000000       -1.004637         2    ;  uncertainty k = 0.232678
         3         4         5        29     9        0.000000        0.571898         3    ;  uncertainty k = 0.095316
         3         4         5        29     9      180.000000       -0.185725         4    ;  uncertainty k = 0.080856
         3         4         5        30     9        0.000000        0.009695         1    ;  uncertainty k = 0.581490
         3         4         5        30     9      180.000000       -1.004637         2    ;  uncertainty k = 0.232678
         3         4         5        30     9        0.000000        0.571898         3    ;  uncertainty k = 0.095316
         3         4         5        30     9      180.000000       -0.185725         4    ;  uncertainty k = 0.080856
         3         4         9         8     9        0.000000       -4.769153         1    ;  uncertainty k = 0.573785
         3         4         9         8     9      180.000000        0.472126         2    ;  uncertainty k = 0.225074
         3         4         9         8     9        0.000000        0.768371         3    ;  uncertainty k = 0.170758
         3         4         9         8     9      180.000000       -0.381064         4    ;  uncertainty k = 0.118636
         3         4         9        37     9        0.000000        0.009695         1    ;  uncertainty k = 0.581490
         3         4         9        37     9      180.000000       -1.004637         2    ;  uncertainty k = 0.232678
         3         4         9        37     9        0.000000        0.571898         3    ;  uncertainty k = 0.095316
         3         4         9        37     9      180.000000       -0.185725         4    ;  uncertainty k = 0.080856
         3         4         9        38     9        0.000000        0.009695         1    ;  uncertainty k = 0.581490
         3         4         9        38     9      180.000000       -1.004637         2    ;  uncertainty k = 0.232678
         3         4         9        38     9        0.000000        0.571898         3    ;  uncertainty k = 0.095316
         3         4         9        38     9      180.000000       -0.185725         4    ;  uncertainty k = 0.080856
         3        16        15        14     9        0.000000        2.721736         1    ;  uncertainty k = 0.811251
         3        16        15        14     9      180.000000       12.314511         2    ;  uncertainty k = 0.053075
         3        16        15        14     9        0.000000        0.338905         3    ;  uncertainty k = 0.487919
         3        16        15        14     9      180.000000       -0.125844         4    ;  uncertainty k = 0.142563
         3        16        15        17     9        0.000000        5.661143         1    ;  uncertainty k = 0.811650
         3        16        15        17     9      180.000000        8.863071         2    ;  uncertainty k = 0.136950
         3        16        15        17     9        0.000000        0.973975         3    ;  uncertainty k = 0.244529
         3        16        15        17     9      180.000000       -0.213801         4    ;  uncertainty k = 0.237973
         4         3        16        15     9        0.000000       -5.993674         1    ;  uncertainty k = 0.554920
         4         3        16        15     9      180.000000        2.437510         2    ;  uncertainty k = 0.256287
         4         3        16        15     9        0.000000       -0.392327         3    ;  uncertainty k = 0.154757
         4         3        16        15     9      180.000000        0.858750         4    ;  uncertainty k = 0.086246
         4         5         6         7     9        0.000000       -7.967758         1    ;  uncertainty k = 1.187860
         4         5         6         7     9      180.000000        0.435463         2    ;  uncertainty k = 0.589253
         4         5         6         7     9        0.000000        1.944962         3    ;  uncertainty k = 0.175085
         4         5         6         7     9      180.000000       -1.434840         4    ;  uncertainty k = 0.216045
         4         5         6        31     9        0.000000       -1.697203         1    ;  uncertainty k = 0.467163
         4         5         6        31     9      180.000000       -0.356805         2    ;  uncertainty k = 0.119858
         4         5         6        31     9        0.000000        0.557954         3    ;  uncertainty k = 0.133654
         4         5         6        31     9      180.000000       -0.075956         4    ;  uncertainty k = 0.059799
         4         5         6        32     9        0.000000       -1.697203         1    ;  uncertainty k = 0.467163
         4         5         6        32     9      180.000000       -0.356805         2    ;  uncertainty k = 0.119858
         4         5         6        32     9        0.000000        0.557954         3    ;  uncertainty k = 0.133654
         4         5         6        32     9      180.000000       -0.075956         4    ;  uncertainty k = 0.059799
         4         9         8         7     9        0.000000       -7.967758         1    ;  uncertainty k = 1.187860
         4         9         8         7     9      180.000000        0.435463         2    ;  uncertainty k = 0.589253
         4         9         8         7     9        0.000000        1.944962         3    ;  uncertainty k = 0.175085
         4         9         8         7     9      180.000000       -1.434840         4    ;  uncertainty k = 0.216045
         4         9         8        35     9        0.000000       -1.697203         1    ;  uncertainty k = 0.467163
         4         9         8        35     9      180.000000       -0.356805         2    ;  uncertainty k = 0.119858
         4         9         8        35     9        0.000000        0.557954         3    ;  uncertainty k = 0.133654
         4         9         8        35     9      180.000000       -0.075956         4    ;  uncertainty k = 0.059799
         4         9         8        36     9        0.000000       -1.697203         1    ;  uncertainty k = 0.467163
         4         9         8        36     9      180.000000       -0.356805         2    ;  uncertainty k = 0.119858
         4         9         8        36     9        0.000000        0.557954         3    ;  uncertainty k = 0.133654
         4         9         8        36     9      180.000000       -0.075956         4    ;  uncertainty k = 0.059799
         5         4         3        16     9        0.000000       -1.401577         1    ;  uncertainty k = 0.555176
         5         4         3        16     9      180.000000       -1.846835         2    ;  uncertainty k = 0.534491
         5         4         3        16     9        0.000000        1.469365         3    ;  uncertainty k = 0.148457
         5         4         3        16     9      180.000000       -0.236568         4    ;  uncertainty k = 0.117513
         5         4         3        26     9        0.000000       -1.410245         1    ;  uncertainty k = 0.488994
         5         4         3        26     9      180.000000        0.149401         2    ;  uncertainty k = 0.184667
         5         4         3        26     9        0.000000        0.583306         3    ;  uncertainty k = 0.096375
         5         4         3        26     9      180.000000       -0.287185         4    ;  uncertainty k = 0.096275
         5         4         3        27     9        0.000000       -1.410245         1    ;  uncertainty k = 0.488994
         5         4         3        27     9      180.000000        0.149401         2    ;  uncertainty k = 0.184667
         5         4         3        27     9        0.000000        0.583306         3    ;  uncertainty k = 0.096375
         5         4         3        27     9      180.000000       -0.287185         4    ;  uncertainty k = 0.096275
         5         4         9         8     9        0.000000       -6.763638         1    ;  uncertainty k = 1.108795
         5         4         9         8     9      180.000000        0.639021         2    ;  uncertainty k = 0.390934
         5         4         9         8     9        0.000000        1.564762         3    ;  uncertainty k = 0.124122
         5         4         9         8     9      180.000000       -1.411959         4    ;  uncertainty k = 0.153360
         5         4         9        37     9        0.000000       -1.777372         1    ;  uncertainty k = 0.316771
         5         4         9        37     9      180.000000       -0.204743         2    ;  uncertainty k = 0.095816
         5         4         9        37     9        0.000000        0.391228         3    ;  uncertainty k = 0.135576
         5         4         9        37     9      180.000000       -0.085357         4    ;  uncertainty k = 0.038271
         5         4         9        38     9        0.000000       -1.777372         1    ;  uncertainty k = 0.316771
         5         4         9        38     9      180.000000       -0.204743         2    ;  uncertainty k = 0.095816
         5         4         9        38     9        0.000000        0.391228         3    ;  uncertainty k = 0.135576
         5         4         9        38     9      180.000000       -0.085357         4    ;  uncertainty k = 0.038271
         5         6         7         8     9        0.000000       -9.813552         1    ;  uncertainty k = 1.916609
         5         6         7         8     9      180.000000        1.261717         2    ;  uncertainty k = 0.612102
         5         6         7         8     9        0.000000        2.075019         3    ;  uncertainty k = 0.183645
         5         6         7         8     9      180.000000       -1.433814         4    ;  uncertainty k = 0.229907
         5         6         7        33     9        0.000000       -2.162965         1    ;  uncertainty k = 0.320424
         5         6         7        33     9      180.000000       -0.102975         2    ;  uncertainty k = 0.120033
         5         6         7        33     9        0.000000        0.610676         3    ;  uncertainty k = 0.139255
         5         6         7        33     9      180.000000       -0.086954         4    ;  uncertainty k = 0.029985
         5         6         7        34     9        0.000000       -2.162965         1    ;  uncertainty k = 0.320424
         5         6         7        34     9      180.000000       -0.102975         2    ;  uncertainty k = 0.120033
         5         6         7        34     9        0.000000        0.610676         3    ;  uncertainty k = 0.139255
         5         6         7        34     9      180.000000       -0.086954         4    ;  uncertainty k = 0.029985
         6         5         4         9     9        0.000000       -6.763638         1    ;  uncertainty k = 1.108795
         6         5         4         9     9      180.000000        0.639021         2    ;  uncertainty k = 0.390934
         6         5         4         9     9        0.000000        1.564762         3    ;  uncertainty k = 0.124122
         6         5         4         9     9      180.000000       -1.411959         4    ;  uncertainty k = 0.153360
         6         5         4        28     9        0.000000       -2.441010         1    ;  uncertainty k = 0.394227
         6         5         4        28     9      180.000000        0.168377         2    ;  uncertainty k = 0.037109
         6         5         4        28     9        0.000000        0.147084         3    ;  uncertainty k = 0.161746
         6         5         4        28     9      180.000000       -0.164065         4    ;  uncertainty k = 0.097547
         6         7         8         9     9        0.000000       -9.813552         1    ;  uncertainty k = 1.916609
         6         7         8         9     9      180.000000        1.261717         2    ;  uncertainty k = 0.612102
         6         7         8         9     9        0.000000        2.075019         3    ;  uncertainty k = 0.183645
         6         7         8         9     9      180.000000       -1.433814         4    ;  uncertainty k = 0.229907
         6         7         8        35     9        0.000000       -1.979013         1    ;  uncertainty k = 0.475575
         6         7         8        35     9      180.000000       -0.219552         2    ;  uncertainty k = 0.116376
         6         7         8        35     9        0.000000        0.575670         3    ;  uncertainty k = 0.105417
         6         7         8        35     9      180.000000       -0.051905         4    ;  uncertainty k = 0.014676
         6         7         8        36     9        0.000000       -1.979013         1    ;  uncertainty k = 0.475575
         6         7         8        36     9      180.000000       -0.219552         2    ;  uncertainty k = 0.116376
         6         7         8        36     9        0.000000        0.575670         3    ;  uncertainty k = 0.105417
         6         7         8        36     9      180.000000       -0.051905         4    ;  uncertainty k = 0.014676
         7         6         5        29     9        0.000000       -2.065110         1    ;  uncertainty k = 0.419468
         7         6         5        29     9      180.000000       -0.158572         2    ;  uncertainty k = 0.106512
         7         6         5        29     9        0.000000        0.592907         3    ;  uncertainty k = 0.115944
         7         6         5        29     9      180.000000       -0.058625         4    ;  uncertainty k = 0.041390
         7         6         5        30     9        0.000000       -2.065110         1    ;  uncertainty k = 0.419468
         7         6         5        30     9      180.000000       -0.158572         2    ;  uncertainty k = 0.106512
         7         6         5        30     9        0.000000        0.592907         3    ;  uncertainty k = 0.115944
         7         6         5        30     9      180.000000       -0.058625         4    ;  uncertainty k = 0.041390
         7         8         9        37     9        0.000000       -2.065110         1    ;  uncertainty k = 0.419468
         7         8         9        37     9      180.000000       -0.158572         2    ;  uncertainty k = 0.106512
         7         8         9        37     9        0.000000        0.592907         3    ;  uncertainty k = 0.115944
         7         8         9        37     9      180.000000       -0.058625         4    ;  uncertainty k = 0.041390
         7         8         9        38     9        0.000000       -2.065110         1    ;  uncertainty k = 0.419468
         7         8         9        38     9      180.000000       -0.158572         2    ;  uncertainty k = 0.106512
         7         8         9        38     9        0.000000        0.592907         3    ;  uncertainty k = 0.115944
         7         8         9        38     9      180.000000       -0.058625         4    ;  uncertainty k = 0.041390
         8         7         6        31     9        0.000000       -1.979013         1    ;  uncertainty k = 0.475575
         8         7         6        31     9      180.000000       -0.219552         2    ;  uncertainty k = 0.116376
         8         7         6        31     9        0.000000        0.575670         3    ;  uncertainty k = 0.105417
         8         7         6        31     9      180.000000       -0.051905         4    ;  uncertainty k = 0.014676
         8         7         6        32     9        0.000000       -1.979013         1    ;  uncertainty k = 0.475575
         8         7         6        32     9      180.000000       -0.219552         2    ;  uncertainty k = 0.116376
         8         7         6        32     9        0.000000        0.575670         3    ;  uncertainty k = 0.105417
         8         7         6        32     9      180.000000       -0.051905         4    ;  uncertainty k = 0.014676
         8         9         4        28     9        0.000000       -2.441010         1    ;  uncertainty k = 0.394227
         8         9         4        28     9      180.000000        0.168377         2    ;  uncertainty k = 0.037109
         8         9         4        28     9        0.000000        0.147084         3    ;  uncertainty k = 0.161746
         8         9         4        28     9      180.000000       -0.164065         4    ;  uncertainty k = 0.097547
         9         4         3        16     9        0.000000       -1.401577         1    ;  uncertainty k = 0.555176
         9         4         3        16     9      180.000000       -1.846835         2    ;  uncertainty k = 0.534491
         9         4         3        16     9        0.000000        1.469365         3    ;  uncertainty k = 0.148457
         9         4         3        16     9      180.000000       -0.236568         4    ;  uncertainty k = 0.117513
         9         4         3        26     9        0.000000       -1.410245         1    ;  uncertainty k = 0.488994
         9         4         3        26     9      180.000000        0.149401         2    ;  uncertainty k = 0.184667
         9         4         3        26     9        0.000000        0.583306         3    ;  uncertainty k = 0.096375
         9         4         3        26     9      180.000000       -0.287185         4    ;  uncertainty k = 0.096275
         9         4         3        27     9        0.000000       -1.410245         1    ;  uncertainty k = 0.488994
         9         4         3        27     9      180.000000        0.149401         2    ;  uncertainty k = 0.184667
         9         4         3        27     9        0.000000        0.583306         3    ;  uncertainty k = 0.096375
         9         4         3        27     9      180.000000       -0.287185         4    ;  uncertainty k = 0.096275
         9         4         5        29     9        0.000000       -1.777372         1    ;  uncertainty k = 0.316771
         9         4         5        29     9      180.000000       -0.204743         2    ;  uncertainty k = 0.095816
         9         4         5        29     9        0.000000        0.391228         3    ;  uncertainty k = 0.135576
         9         4         5        29     9      180.000000       -0.085357         4    ;  uncertainty k = 0.038271
         9         4         5        30     9        0.000000       -1.777372         1    ;  uncertainty k = 0.316771
         9         4         5        30     9      180.000000       -0.204743         2    ;  uncertainty k = 0.095816
         9         4         5        30     9        0.000000        0.391228         3    ;  uncertainty k = 0.135576
         9         4         5        30     9      180.000000       -0.085357         4    ;  uncertainty k = 0.038271
         9         8         7        33     9        0.000000       -2.162965         1    ;  uncertainty k = 0.320424
         9         8         7        33     9      180.000000       -0.102975         2    ;  uncertainty k = 0.120033
         9         8         7        33     9        0.000000        0.610676         3    ;  uncertainty k = 0.139255
         9         8         7        33     9      180.000000       -0.086954         4    ;  uncertainty k = 0.029985
         9         8         7        34     9        0.000000       -2.162965         1    ;  uncertainty k = 0.320424
         9         8         7        34     9      180.000000       -0.102975         2    ;  uncertainty k = 0.120033
         9         8         7        34     9        0.000000        0.610676         3    ;  uncertainty k = 0.139255
         9         8         7        34     9      180.000000       -0.086954         4    ;  uncertainty k = 0.029985
        10        11        12        13     9        0.000000       -0.185562         1    ;  uncertainty k = 0.210122
        10        11        12        13     9      180.000000       14.031907         2    ;  uncertainty k = 0.409815
        10        11        12        13     9        0.000000       -1.050485         3    ;  uncertainty k = 0.407925
        10        11        12        13     9      180.000000        0.655542         4    ;  uncertainty k = 0.306293
        10        11        12        40     9        0.000000        0.096602         1    ;  uncertainty k = 0.177593
        10        11        12        40     9      180.000000        7.428483         2    ;  uncertainty k = 0.348127
        10        11        12        40     9        0.000000        1.445869         3    ;  uncertainty k = 0.284914
        10        11        12        40     9      180.000000        1.746688         4    ;  uncertainty k = 0.132744
        10        24        23        13     9        0.000000        0.096973         1    ;  uncertainty k = 0.195564
        10        24        23        13     9      180.000000        8.118844         2    ;  uncertainty k = 0.546736
        10        24        23        13     9        0.000000        0.223049         3    ;  uncertainty k = 0.278266
        10        24        23        13     9      180.000000        1.365090         4    ;  uncertainty k = 0.233750
        10        24        23        22     9        0.000000        0.087952         1    ;  uncertainty k = 0.428246
        10        24        23        22     9      180.000000        9.471474         2    ;  uncertainty k = 0.378151
        10        24        23        22     9        0.000000        1.003193         3    ;  uncertainty k = 0.206554
        10        24        23        22     9      180.000000        1.540628         4    ;  uncertainty k = 0.092972
        10        45        47        49     9        0.000000       12.864638         1    ;  uncertainty k = 0.124717
        10        45        47        49     9      180.000000       -3.345674         2    ;  uncertainty k = 0.217473
        10        45        47        49     9        0.000000        1.158792         3    ;  uncertainty k = 0.176946
        10        45        47        49     9      180.000000        0.061394         4    ;  uncertainty k = 0.075137
        11        10        24        23     9        0.000000       -0.258622         1    ;  uncertainty k = 0.204794
        11        10        24        23     9      180.000000       11.977410         2    ;  uncertainty k = 0.152186
        11        10        24        23     9        0.000000       -0.285537         3    ;  uncertainty k = 0.295608
        11        10        24        23     9      180.000000        0.901769         4    ;  uncertainty k = 0.337182
        11        10        24        44     9        0.000000        0.190793         1    ;  uncertainty k = 0.137084
        11        10        24        44     9      180.000000        7.825129         2    ;  uncertainty k = 0.405184
        11        10        24        44     9        0.000000        1.437459         3    ;  uncertainty k = 0.391110
        11        10        24        44     9      180.000000        1.727626         4    ;  uncertainty k = 0.147889
        11        10        45        46     9        0.000000       -0.418909         1    ;  uncertainty k = 0.330237
        11        10        45        46     9      180.000000        2.350036         2    ;  uncertainty k = 0.190642
        11        10        45        46     9        0.000000        0.552013         3    ;  uncertainty k = 0.087268
        11        10        45        46     9      180.000000        0.158967         4    ;  uncertainty k = 0.043303
        11        10        45        47     9        0.000000       -1.467750         1    ;  uncertainty k = 0.416193
        11        10        45        47     9      180.000000        2.722337         2    ;  uncertainty k = 0.245765
        11        10        45        47     9        0.000000        0.777946         3    ;  uncertainty k = 0.140180
        11        10        45        47     9      180.000000        0.445015         4    ;  uncertainty k = 0.037174
        11        10        45        48     9        0.000000       -0.418909         1    ;  uncertainty k = 0.330237
        11        10        45        48     9      180.000000        2.350036         2    ;  uncertainty k = 0.190642
        11        10        45        48     9        0.000000        0.552013         3    ;  uncertainty k = 0.087268
        11        10        45        48     9      180.000000        0.158967         4    ;  uncertainty k = 0.043303
        11        12        13        23     9        0.000000       -0.260467         1    ;  uncertainty k = 0.242821
        11        12        13        23     9      180.000000       14.211960         2    ;  uncertainty k = 0.188936
        11        12        13        23     9        0.000000       -0.830636         3    ;  uncertainty k = 0.337939
        11        12        13        23     9      180.000000        0.754528         4    ;  uncertainty k = 0.239480
        11        12        13        41     9        0.000000        0.068143         1    ;  uncertainty k = 0.043337
        11        12        13        41     9      180.000000        8.045068         2    ;  uncertainty k = 0.362600
        11        12        13        41     9        0.000000        1.440678         3    ;  uncertainty k = 0.298465
        11        12        13        41     9      180.000000        1.862509         4    ;  uncertainty k = 0.204730
        12        11        10        24     9        0.000000       -0.225860         1    ;  uncertainty k = 0.187338
        12        11        10        24     9      180.000000       12.187583         2    ;  uncertainty k = 0.408982
        12        11        10        24     9        0.000000       -0.544546         3    ;  uncertainty k = 0.414022
        12        11        10        24     9      180.000000        0.778734         4    ;  uncertainty k = 0.354735
        12        11        10        45     9        0.000000        0.196604         1    ;  uncertainty k = 0.309356
        12        11        10        45     9      180.000000        9.418387         2    ;  uncertainty k = 0.509762
        12        11        10        45     9        0.000000        1.283155         3    ;  uncertainty k = 0.220446
        12        11        10        45     9      180.000000        1.832350         4    ;  uncertainty k = 0.176544
        12        13        23        22     9        0.000000        0.047608         1    ;  uncertainty k = 0.383461
        12        13        23        22     9      180.000000        9.508846         2    ;  uncertainty k = 0.450374
        12        13        23        22     9        0.000000        0.958714         3    ;  uncertainty k = 0.212355
        12        13        23        22     9      180.000000        1.588593         4    ;  uncertainty k = 0.143619
        12        13        23        24     9        0.000000       -0.089292         1    ;  uncertainty k = 0.096862
        12        13        23        24     9      180.000000        8.752346         2    ;  uncertainty k = 0.424116
        12        13        23        24     9        0.000000        0.071778         3    ;  uncertainty k = 0.187135
        12        13        23        24     9      180.000000        1.286770         4    ;  uncertainty k = 0.262489
        13        12        11        39     9        0.000000        0.139958         1    ;  uncertainty k = 0.245215
        13        12        11        39     9      180.000000        7.730097         2    ;  uncertainty k = 0.246886
        13        12        11        39     9        0.000000        1.430498         3    ;  uncertainty k = 0.310020
        13        12        11        39     9      180.000000        1.826207         4    ;  uncertainty k = 0.124534
        13        23        22        43     9        0.000000        2.555560         1    ;  uncertainty k = 0.216776
        13        23        22        43     9      180.000000        4.267095         2    ;  uncertainty k = 0.089877
        13        23        22        43     9        0.000000        0.676275         3    ;  uncertainty k = 0.140271
        13        23        22        43     9      180.000000        0.355558         4    ;  uncertainty k = 0.074280
        13        23        24        44     9        0.000000        0.315941         1    ;  uncertainty k = 0.449779
        13        23        24        44     9      180.000000        6.665295         2    ;  uncertainty k = 0.593761
        13        23        24        44     9        0.000000        1.352693         3    ;  uncertainty k = 0.260894
        13        23        24        44     9      180.000000        1.554671         4    ;  uncertainty k = 0.128693
        14         1        21        20     9        0.000000       -0.569211         1    ;  uncertainty k = 1.198436
        14         1        21        20     9      180.000000       11.705623         2    ;  uncertainty k = 0.201703
        14         1        21        20     9        0.000000        1.549284         3    ;  uncertainty k = 0.327469
        14         1        21        20     9      180.000000        1.034972         4    ;  uncertainty k = 0.274565
        14         1        22        23     9        0.000000        6.138273         1    ;  uncertainty k = 0.659571
        14         1        22        23     9      180.000000       10.314888         2    ;  uncertainty k = 0.096132
        14         1        22        23     9        0.000000        1.022545         3    ;  uncertainty k = 0.141101
        14         1        22        23     9      180.000000       -0.618793         4    ;  uncertainty k = 0.118200
        14         1        22        43     9        0.000000       10.969159         1    ;  uncertainty k = 0.676723
        14         1        22        43     9      180.000000        7.974139         2    ;  uncertainty k = 0.367328
        14         1        22        43     9        0.000000        1.826784         3    ;  uncertainty k = 0.483361
        14         1        22        43     9      180.000000       -0.185976         4    ;  uncertainty k = 0.186833
        14        15        17        18     9        0.000000       -0.731058         1    ;  uncertainty k = 0.864379
        14        15        17        18     9      180.000000        6.125128         2    ;  uncertainty k = 1.039238
        14        15        17        18     9        0.000000        0.476608         3    ;  uncertainty k = 0.307824
        14        15        17        18     9      180.000000        0.809778         4    ;  uncertainty k = 0.340764
        14        15        17        20     9        0.000000       -0.966331         1    ;  uncertainty k = 1.162075
        14        15        17        20     9      180.000000        7.460241         2    ;  uncertainty k = 1.086916
        14        15        17        20     9        0.000000       -1.612651         3    ;  uncertainty k = 0.450811
        14        15        17        20     9      180.000000        0.938826         4    ;  uncertainty k = 0.404342
        15        14         1        21     9        0.000000       -0.669008         1    ;  uncertainty k = 0.721813
        15        14         1        21     9      180.000000        8.795149         2    ;  uncertainty k = 0.627345
        15        14         1        21     9        0.000000        0.717881         3    ;  uncertainty k = 0.557557
        15        14         1        21     9      180.000000        0.880531         4    ;  uncertainty k = 0.186606
        15        14         1        22     9        0.000000        0.223825         1    ;  uncertainty k = 0.656139
        15        14         1        22     9      180.000000        9.262750         2    ;  uncertainty k = 0.444944
        15        14         1        22     9        0.000000        1.563308         3    ;  uncertainty k = 0.399132
        15        14         1        22     9      180.000000        0.936310         4    ;  uncertainty k = 0.323846
        15        16         3        26     9        0.000000        2.789968         1    ;  uncertainty k = 0.641542
        15        16         3        26     9      180.000000       -0.102846         2    ;  uncertainty k = 0.488013
        15        16         3        26     9        0.000000       -0.110985         3    ;  uncertainty k = 0.163330
        15        16         3        26     9      180.000000        0.362110         4    ;  uncertainty k = 0.079581
        15        16         3        27     9        0.000000        2.789968         1    ;  uncertainty k = 0.641542
        15        16         3        27     9      180.000000       -0.102846         2    ;  uncertainty k = 0.488013
        15        16         3        27     9        0.000000       -0.110985         3    ;  uncertainty k = 0.163330
        15        16         3        27     9      180.000000        0.362110         4    ;  uncertainty k = 0.079581
        15        17        20        19     9        0.000000       -0.201800         1    ;  uncertainty k = 1.093354
        15        17        20        19     9      180.000000        5.944362         2    ;  uncertainty k = 0.590805
        15        17        20        19     9        0.000000       -1.126909         3    ;  uncertainty k = 0.876721
        15        17        20        19     9      180.000000        1.089007         4    ;  uncertainty k = 0.496862
        15        17        20        21     9        0.000000       -0.664820         1    ;  uncertainty k = 0.925139
        15        17        20        21     9      180.000000        8.335492         2    ;  uncertainty k = 0.426544
        15        17        20        21     9        0.000000       -0.968838         3    ;  uncertainty k = 0.383142
        15        17        20        21     9      180.000000        1.088374         4    ;  uncertainty k = 0.430231
        16         3         4        28     9        0.000000        0.836449         1    ;  uncertainty k = 0.754872
        16         3         4        28     9      180.000000       -2.904885         2    ;  uncertainty k = 0.496428
        16         3         4        28     9        0.000000        0.974953         3    ;  uncertainty k = 0.324588
        16         3         4        28     9      180.000000        0.006211         4    ;  uncertainty k = 0.094009
        16        15        17        18     9        0.000000       -0.571554         1    ;  uncertainty k = 1.227049
        16        15        17        18     9      180.000000        5.455057         2    ;  uncertainty k = 0.843928
        16        15        17        18     9        0.000000        1.073310         3    ;  uncertainty k = 0.409656
        16        15        17        18     9      180.000000        0.755817         4    ;  uncertainty k = 0.377782
        16        15        17        20     9        0.000000       -0.294054         1    ;  uncertainty k = 0.910090
        16        15        17        20     9      180.000000        6.067322         2    ;  uncertainty k = 0.469502
        16        15        17        20     9        0.000000        0.254823         3    ;  uncertainty k = 0.175682
        16        15        17        20     9      180.000000        0.779851         4    ;  uncertainty k = 0.188373
        17        18         2        19     9        0.000000       -0.251459         1    ;  uncertainty k = 0.772105
        17        18         2        19     9      180.000000       26.332435         2    ;  uncertainty k = 0.164446
        17        18         2        19     9        0.000000       -7.592141         3    ;  uncertainty k = 1.555684
        17        18         2        19     9      180.000000        2.162582         4    ;  uncertainty k = 0.347843
        17        18         2        25     9        0.000000       -0.441891         1    ;  uncertainty k = 0.932204
        17        18         2        25     9      180.000000       19.605513         2    ;  uncertainty k = 0.577464
        17        18         2        25     9        0.000000        1.174875         3    ;  uncertainty k = 0.321243
        17        18         2        25     9      180.000000        1.181780         4    ;  uncertainty k = 0.376203
        17        20        19        42     9        0.000000        5.220849         1    ;  uncertainty k = 2.806861
        17        20        19        42     9      180.000000        7.905035         2    ;  uncertainty k = 1.212591
        17        20        19        42     9        0.000000        0.998820         3    ;  uncertainty k = 0.342826
        17        20        19        42     9      180.000000        0.111169         4    ;  uncertainty k = 0.367643
        18         2        19        20     9        0.000000       -0.294456         1    ;  uncertainty k = 0.809873
        18         2        19        20     9      180.000000       15.938010         2    ;  uncertainty k = 0.725656
        18         2        19        20     9        0.000000       -8.760846         3    ;  uncertainty k = 1.693059
        18         2        19        20     9      180.000000        1.176542         4    ;  uncertainty k = 0.635383
        18         2        19        42     9        0.000000        4.604604         1    ;  uncertainty k = 2.184798
        18         2        19        42     9      180.000000       13.438023         2    ;  uncertainty k = 0.671989
        18         2        19        42     9        0.000000        1.978624         3    ;  uncertainty k = 0.675906
        18         2        19        42     9      180.000000       -0.476904         4    ;  uncertainty k = 0.383926
        18        17        20        19     9        0.000000       -0.119814         1    ;  uncertainty k = 0.866797
        18        17        20        19     9      180.000000       12.283409         2    ;  uncertainty k = 1.047799
        18        17        20        19     9        0.000000       -4.968661         3    ;  uncertainty k = 1.102648
        18        17        20        19     9      180.000000        1.733553         4    ;  uncertainty k = 0.757939
        18        17        20        21     9        0.000000       -0.138727         1    ;  uncertainty k = 1.007199
        18        17        20        21     9      180.000000       10.890369         2    ;  uncertainty k = 0.487032
        18        17        20        21     9        0.000000       -1.550200         3    ;  uncertainty k = 0.500552
        18        17        20        21     9      180.000000        1.331306         4    ;  uncertainty k = 0.391157
        20        19         2        25     9        0.000000        1.548072         1    ;  uncertainty k = 1.691717
        20        19         2        25     9      180.000000        7.211242         2    ;  uncertainty k = 0.764056
        20        19         2        25     9        0.000000        1.238367         3    ;  uncertainty k = 0.228369
        20        19         2        25     9      180.000000        0.084909         4    ;  uncertainty k = 0.180500
        20        21         1        22     9        0.000000        1.210257         1    ;  uncertainty k = 1.101114
        20        21         1        22     9      180.000000       12.773223         2    ;  uncertainty k = 0.672587
        20        21         1        22     9        0.000000        1.772389         3    ;  uncertainty k = 0.680205
        20        21         1        22     9      180.000000        1.266384         4    ;  uncertainty k = 0.395094
        21         1        22        23     9        0.000000        5.570687         1    ;  uncertainty k = 0.386646
        21         1        22        23     9      180.000000        9.775042         2    ;  uncertainty k = 0.249639
        21         1        22        23     9        0.000000        0.842733         3    ;  uncertainty k = 0.206289
        21         1        22        23     9      180.000000       -0.505091         4    ;  uncertainty k = 0.069479
        21         1        22        43     9        0.000000        9.754197         1    ;  uncertainty k = 0.840881
        21         1        22        43     9      180.000000        7.390618         2    ;  uncertainty k = 0.246845
        21         1        22        43     9        0.000000        1.593478         3    ;  uncertainty k = 0.358512
        21         1        22        43     9      180.000000       -0.115492         4    ;  uncertainty k = 0.144370
        21        20        19        42     9        0.000000        5.475291         1    ;  uncertainty k = 1.041200
        21        20        19        42     9      180.000000        3.993478         2    ;  uncertainty k = 0.889662
        21        20        19        42     9        0.000000        1.468016         3    ;  uncertainty k = 0.489444
        21        20        19        42     9      180.000000        0.136727         4    ;  uncertainty k = 0.127968
        22        23        13        41     9        0.000000       -0.102106         1    ;  uncertainty k = 0.298586
        22        23        13        41     9      180.000000        7.994255         2    ;  uncertainty k = 0.292236
        22        23        13        41     9        0.000000        0.878656         3    ;  uncertainty k = 0.172305
        22        23        13        41     9      180.000000        1.039443         4    ;  uncertainty k = 0.051407
        22        23        24        44     9        0.000000       -0.071235         1    ;  uncertainty k = 0.281446
        22        23        24        44     9      180.000000        8.177986         2    ;  uncertainty k = 0.326184
        22        23        24        44     9        0.000000        0.882292         3    ;  uncertainty k = 0.180242
        22        23        24        44     9      180.000000        1.033795         4    ;  uncertainty k = 0.090355
        23        13        12        40     9        0.000000       -0.067459         1    ;  uncertainty k = 0.116787
        23        13        12        40     9      180.000000        7.970579         2    ;  uncertainty k = 0.508538
        23        13        12        40     9        0.000000        1.274898         3    ;  uncertainty k = 0.256507
        23        13        12        40     9      180.000000        1.661713         4    ;  uncertainty k = 0.153255
        23        24        10        45     9        0.000000        0.113874         1    ;  uncertainty k = 0.183432
        23        24        10        45     9      180.000000        9.160441         2    ;  uncertainty k = 0.568297
        23        24        10        45     9        0.000000        1.392380         3    ;  uncertainty k = 0.253058
        23        24        10        45     9      180.000000        1.897284         4    ;  uncertainty k = 0.297355
        24        10        11        39     9        0.000000        0.053265         1    ;  uncertainty k = 0.379294
        24        10        11        39     9      180.000000        7.203555         2    ;  uncertainty k = 0.550636
        24        10        11        39     9        0.000000        1.399367         3    ;  uncertainty k = 0.400257
        24        10        11        39     9      180.000000        1.627893         4    ;  uncertainty k = 0.107516
        24        10        45        46     9        0.000000       -0.057002         1    ;  uncertainty k = 0.332196
        24        10        45        46     9      180.000000        2.233014         2    ;  uncertainty k = 0.154604
        24        10        45        46     9        0.000000        0.485219         3    ;  uncertainty k = 0.120493
        24        10        45        46     9      180.000000        0.137344         4    ;  uncertainty k = 0.049066
        24        10        45        47     9        0.000000       -1.722837         1    ;  uncertainty k = 0.647524
        24        10        45        47     9      180.000000        2.822934         2    ;  uncertainty k = 0.173199
        24        10        45        47     9        0.000000        0.700117         3    ;  uncertainty k = 0.178811
        24        10        45        47     9      180.000000        0.455408         4    ;  uncertainty k = 0.012900
        24        10        45        48     9        0.000000       -0.057002         1    ;  uncertainty k = 0.332196
        24        10        45        48     9      180.000000        2.233014         2    ;  uncertainty k = 0.154604
        24        10        45        48     9        0.000000        0.485219         3    ;  uncertainty k = 0.120493
        24        10        45        48     9      180.000000        0.137344         4    ;  uncertainty k = 0.049066
        24        23        13        41     9        0.000000        0.185869         1    ;  uncertainty k = 0.307618
        24        23        13        41     9      180.000000        6.593719         2    ;  uncertainty k = 0.703634
        24        23        13        41     9        0.000000        1.319658         3    ;  uncertainty k = 0.265707
        24        23        13        41     9      180.000000        1.544303         4    ;  uncertainty k = 0.140381
        24        23        22        43     9        0.000000        3.220294         1    ;  uncertainty k = 0.373585
        24        23        22        43     9      180.000000        4.308315         2    ;  uncertainty k = 0.112261
        24        23        22        43     9        0.000000        0.689381         3    ;  uncertainty k = 0.099995
        24        23        22        43     9      180.000000        0.344194         4    ;  uncertainty k = 0.058819
        25         2        19        42     9        0.000000       -1.075218         1    ;  uncertainty k = 1.539051
        25         2        19        42     9      180.000000        1.573146         2    ;  uncertainty k = 0.351370
        25         2        19        42     9        0.000000        1.047946         3    ;  uncertainty k = 0.426121
        25         2        19        42     9      180.000000        0.027943         4    ;  uncertainty k = 0.247597
        26         3         4        28     9        0.000000        0.575094         1    ;  uncertainty k = 0.340548
        26         3         4        28     9      180.000000       -0.369163         2    ;  uncertainty k = 0.323255
        26         3         4        28     9        0.000000       -0.053194         3    ;  uncertainty k = 0.111182
        26         3         4        28     9      180.000000       -0.140807         4    ;  uncertainty k = 0.050348
        27         3         4        28     9        0.000000        0.575094         1    ;  uncertainty k = 0.340548
        27         3         4        28     9      180.000000       -0.369163         2    ;  uncertainty k = 0.323255
        27         3         4        28     9        0.000000       -0.053194         3    ;  uncertainty k = 0.111182
        27         3         4        28     9      180.000000       -0.140807         4    ;  uncertainty k = 0.050348
        28         4         5        29     9        0.000000        1.964323         1    ;  uncertainty k = 0.351664
        28         4         5        29     9      180.000000       -0.244446         2    ;  uncertainty k = 0.102497
        28         4         5        29     9        0.000000       -0.215725         3    ;  uncertainty k = 0.065198
        28         4         5        29     9      180.000000        0.079359         4    ;  uncertainty k = 0.074606
        28         4         5        30     9        0.000000        1.964323         1    ;  uncertainty k = 0.351664
        28         4         5        30     9      180.000000       -0.244446         2    ;  uncertainty k = 0.102497
        28         4         5        30     9        0.000000       -0.215725         3    ;  uncertainty k = 0.065198
        28         4         5        30     9      180.000000        0.079359         4    ;  uncertainty k = 0.074606
        28         4         9        37     9        0.000000        1.964323         1    ;  uncertainty k = 0.351664
        28         4         9        37     9      180.000000       -0.244446         2    ;  uncertainty k = 0.102497
        28         4         9        37     9        0.000000       -0.215725         3    ;  uncertainty k = 0.065198
        28         4         9        37     9      180.000000        0.079359         4    ;  uncertainty k = 0.074606
        28         4         9        38     9        0.000000        1.964323         1    ;  uncertainty k = 0.351664
        28         4         9        38     9      180.000000       -0.244446         2    ;  uncertainty k = 0.102497
        28         4         9        38     9        0.000000       -0.215725         3    ;  uncertainty k = 0.065198
        28         4         9        38     9      180.000000        0.079359         4    ;  uncertainty k = 0.074606
        29         5         6        31     9        0.000000        2.637306         1    ;  uncertainty k = 0.495157
        29         5         6        31     9      180.000000       -0.245820         2    ;  uncertainty k = 0.127404
        29         5         6        31     9        0.000000        0.285027         3    ;  uncertainty k = 0.084986
        29         5         6        31     9      180.000000        0.124395         4    ;  uncertainty k = 0.052420
        29         5         6        32     9        0.000000        2.637306         1    ;  uncertainty k = 0.495157
        29         5         6        32     9      180.000000       -0.245820         2    ;  uncertainty k = 0.127404
        29         5         6        32     9        0.000000        0.285027         3    ;  uncertainty k = 0.084986
        29         5         6        32     9      180.000000        0.124395         4    ;  uncertainty k = 0.052420
        30         5         6        31     9        0.000000        2.637306         1    ;  uncertainty k = 0.495157
        30         5         6        31     9      180.000000       -0.245820         2    ;  uncertainty k = 0.127404
        30         5         6        31     9        0.000000        0.285027         3    ;  uncertainty k = 0.084986
        30         5         6        31     9      180.000000        0.124395         4    ;  uncertainty k = 0.052420
        30         5         6        32     9        0.000000        2.637306         1    ;  uncertainty k = 0.495157
        30         5         6        32     9      180.000000       -0.245820         2    ;  uncertainty k = 0.127404
        30         5         6        32     9        0.000000        0.285027         3    ;  uncertainty k = 0.084986
        30         5         6        32     9      180.000000        0.124395         4    ;  uncertainty k = 0.052420
        31         6         7        33     9        0.000000        2.708906         1    ;  uncertainty k = 0.481339
        31         6         7        33     9      180.000000       -0.259314         2    ;  uncertainty k = 0.129327
        31         6         7        33     9        0.000000        0.271004         3    ;  uncertainty k = 0.083131
        31         6         7        33     9      180.000000        0.111025         4    ;  uncertainty k = 0.048932
        31         6         7        34     9        0.000000        2.708906         1    ;  uncertainty k = 0.481339
        31         6         7        34     9      180.000000       -0.259314         2    ;  uncertainty k = 0.129327
        31         6         7        34     9        0.000000        0.271004         3    ;  uncertainty k = 0.083131
        31         6         7        34     9      180.000000        0.111025         4    ;  uncertainty k = 0.048932
        32         6         7        33     9        0.000000        2.708906         1    ;  uncertainty k = 0.481339
        32         6         7        33     9      180.000000       -0.259314         2    ;  uncertainty k = 0.129327
        32         6         7        33     9        0.000000        0.271004         3    ;  uncertainty k = 0.083131
        32         6         7        33     9      180.000000        0.111025         4    ;  uncertainty k = 0.048932
        32         6         7        34     9        0.000000        2.708906         1    ;  uncertainty k = 0.481339
        32         6         7        34     9      180.000000       -0.259314         2    ;  uncertainty k = 0.129327
        32         6         7        34     9        0.000000        0.271004         3    ;  uncertainty k = 0.083131
        32         6         7        34     9      180.000000        0.111025         4    ;  uncertainty k = 0.048932
        33         7         8        35     9        0.000000        2.708906         1    ;  uncertainty k = 0.481339
        33         7         8        35     9      180.000000       -0.259314         2    ;  uncertainty k = 0.129327
        33         7         8        35     9        0.000000        0.271004         3    ;  uncertainty k = 0.083131
        33         7         8        35     9      180.000000        0.111025         4    ;  uncertainty k = 0.048932
        33         7         8        36     9        0.000000        2.708906         1    ;  uncertainty k = 0.481339
        33         7         8        36     9      180.000000       -0.259314         2    ;  uncertainty k = 0.129327
        33         7         8        36     9        0.000000        0.271004         3    ;  uncertainty k = 0.083131
        33         7         8        36     9      180.000000        0.111025         4    ;  uncertainty k = 0.048932
        34         7         8        35     9        0.000000        2.708906         1    ;  uncertainty k = 0.481339
        34         7         8        35     9      180.000000       -0.259314         2    ;  uncertainty k = 0.129327
        34         7         8        35     9        0.000000        0.271004         3    ;  uncertainty k = 0.083131
        34         7         8        35     9      180.000000        0.111025         4    ;  uncertainty k = 0.048932
        34         7         8        36     9        0.000000        2.708906         1    ;  uncertainty k = 0.481339
        34         7         8        36     9      180.000000       -0.259314         2    ;  uncertainty k = 0.129327
        34         7         8        36     9        0.000000        0.271004         3    ;  uncertainty k = 0.083131
        34         7         8        36     9      180.000000        0.111025         4    ;  uncertainty k = 0.048932
        35         8         9        37     9        0.000000        2.637306         1    ;  uncertainty k = 0.495157
        35         8         9        37     9      180.000000       -0.245820         2    ;  uncertainty k = 0.127404
        35         8         9        37     9        0.000000        0.285027         3    ;  uncertainty k = 0.084986
        35         8         9        37     9      180.000000        0.124395         4    ;  uncertainty k = 0.052420
        35         8         9        38     9        0.000000        2.637306         1    ;  uncertainty k = 0.495157
        35         8         9        38     9      180.000000       -0.245820         2    ;  uncertainty k = 0.127404
        35         8         9        38     9        0.000000        0.285027         3    ;  uncertainty k = 0.084986
        35         8         9        38     9      180.000000        0.124395         4    ;  uncertainty k = 0.052420
        36         8         9        37     9        0.000000        2.637306         1    ;  uncertainty k = 0.495157
        36         8         9        37     9      180.000000       -0.245820         2    ;  uncertainty k = 0.127404
        36         8         9        37     9        0.000000        0.285027         3    ;  uncertainty k = 0.084986
        36         8         9        37     9      180.000000        0.124395         4    ;  uncertainty k = 0.052420
        36         8         9        38     9        0.000000        2.637306         1    ;  uncertainty k = 0.495157
        36         8         9        38     9      180.000000       -0.245820         2    ;  uncertainty k = 0.127404
        36         8         9        38     9        0.000000        0.285027         3    ;  uncertainty k = 0.084986
        36         8         9        38     9      180.000000        0.124395         4    ;  uncertainty k = 0.052420
        39        11        10        45     9        0.000000       -0.154052         1    ;  uncertainty k = 0.482245
        39        11        10        45     9      180.000000        7.389340         2    ;  uncertainty k = 0.108023
        39        11        10        45     9        0.000000        0.653165         3    ;  uncertainty k = 0.309895
        39        11        10        45     9      180.000000        1.003234         4    ;  uncertainty k = 0.163476
        39        11        12        40     9        0.000000       -0.015957         1    ;  uncertainty k = 0.244346
        39        11        12        40     9      180.000000        7.398606         2    ;  uncertainty k = 0.340513
        39        11        12        40     9        0.000000       -0.398581         3    ;  uncertainty k = 0.282713
        39        11        12        40     9      180.000000        0.072155         4    ;  uncertainty k = 0.111712
        40        12        13        41     9        0.000000       -0.152825         1    ;  uncertainty k = 0.345640
        40        12        13        41     9      180.000000        7.697117         2    ;  uncertainty k = 0.407395
        40        12        13        41     9        0.000000       -0.423344         3    ;  uncertainty k = 0.315919
        40        12        13        41     9      180.000000        0.216410         4    ;  uncertainty k = 0.145849
        44        24        10        45     9        0.000000       -0.087882         1    ;  uncertainty k = 0.447390
        44        24        10        45     9      180.000000        7.731449         2    ;  uncertainty k = 0.173974
        44        24        10        45     9        0.000000        0.578525         3    ;  uncertainty k = 0.269664
        44        24        10        45     9      180.000000        1.101688         4    ;  uncertainty k = 0.070140
        46        45        47        49     9        0.000000        9.419028         1    ;  uncertainty k = 0.138335
        46        45        47        49     9      180.000000       -2.027160         2    ;  uncertainty k = 0.213417
        46        45        47        49     9        0.000000        0.841712         3    ;  uncertainty k = 0.067065
        46        45        47        49     9      180.000000        0.011279         4    ;  uncertainty k = 0.054096
        48        45        47        49     9        0.000000        9.419029         1    ;  uncertainty k = 0.138335
        48        45        47        49     9      180.000000       -2.027160         2    ;  uncertainty k = 0.213417
        48        45        47        49     9        0.000000        0.841712         3    ;  uncertainty k = 0.067065
        48        45        47        49     9      180.000000        0.011279         4    ;  uncertainty k = 0.054096

[ dihedrals ] ; impropers
;       ai        aj        ak        al funct           phase               k        pn
         1        14        21        22     4      180.000000       42.357206         2    ;  uncertainty k = 0.109669
         1        21        22        14     4      180.000000       42.357206         2    ;  uncertainty k = 0.109669
         1        22        14        21     4      180.000000       42.357206         2    ;  uncertainty k = 0.109669
         2        18        19        25     4      180.000000        5.131234         2    ;  uncertainty k = 0.308430
         2        19        25        18     4      180.000000        5.131234         2    ;  uncertainty k = 0.308430
         2        25        18        19     4      180.000000        5.131234         2    ;  uncertainty k = 0.308430
        10        11        24        45     4      180.000000       12.981034         2    ;  uncertainty k = 0.091053
        10        24        45        11     4      180.000000       12.981034         2    ;  uncertainty k = 0.091053
        10        45        11        24     4      180.000000       12.981034         2    ;  uncertainty k = 0.091053
        11        10        12        39     4      180.000000        3.334355         2    ;  uncertainty k = 0.182921
        11        12        39        10     4      180.000000        3.334355         2    ;  uncertainty k = 0.182921
        11        39        10        12     4      180.000000        3.334355         2    ;  uncertainty k = 0.182921
        12        11        13        40     4      180.000000        4.035409         2    ;  uncertainty k = 0.188043
        12        13        40        11     4      180.000000        4.035409         2    ;  uncertainty k = 0.188043
        12        40        11        13     4      180.000000        4.035409         2    ;  uncertainty k = 0.188043
        13        12        23        41     4      180.000000        2.959344         2    ;  uncertainty k = 0.299867
        13        23        41        12     4      180.000000        2.959344         2    ;  uncertainty k = 0.299867
        13        41        12        23     4      180.000000        2.959344         2    ;  uncertainty k = 0.299867
        15        14        16        17     4      180.000000       31.628471         2    ;  uncertainty k = 0.047312
        15        16        17        14     4      180.000000       31.628471         2    ;  uncertainty k = 0.047312
        15        17        14        16     4      180.000000       31.628471         2    ;  uncertainty k = 0.047312
        20        17        19        21     4      180.000000        9.434930         2    ;  uncertainty k = 0.065995
        20        19        21        17     4      180.000000        9.434930         2    ;  uncertainty k = 0.065995
        20        21        17        19     4      180.000000        9.434930         2    ;  uncertainty k = 0.065995
        22         1        23        43     4      180.000000        0.815873         2    ;  uncertainty k = 0.464623
        22        23        43         1     4      180.000000        0.815873         2    ;  uncertainty k = 0.464623
        22        43         1        23     4      180.000000        0.815873         2    ;  uncertainty k = 0.464623
        23        13        22        24     4      180.000000       19.450024         2    ;  uncertainty k = 0.070278
        23        22        24        13     4      180.000000       19.450024         2    ;  uncertainty k = 0.070278
        23        24        13        22     4      180.000000       19.450024         2    ;  uncertainty k = 0.070278
        24        10        23        44     4      180.000000        3.415008         2    ;  uncertainty k = 0.403505
        24        23        44        10     4      180.000000        3.415008         2    ;  uncertainty k = 0.403505
        24        44        10        23     4      180.000000        3.415008         2    ;  uncertainty k = 0.403505

[ pairs ]
;       ai        aj funct
         1        13     1
         1        16     1
         1        17     1
         1        19     1
         1        24     1
         2        15     1
         2        21     1
         3         6     1
         3         8     1
         3        14     1
         3        17     1
         3        29     1
         3        30     1
         3        37     1
         3        38     1
         4         7     1
         4        15     1
         4        31     1
         4        32     1
         4        35     1
         4        36     1
         5         8     1
         5        16     1
         5        26     1
         5        27     1
         5        33     1
         5        34     1
         5        37     1
         5        38     1
         6         9     1
         6        28     1
         6        35     1
         6        36     1
         7        29     1
         7        30     1
         7        37     1
         7        38     1
         8        28     1
         8        31     1
         8        32     1
         9        16     1
         9        26     1
         9        27     1
         9        29     1
         9        30     1
         9        33     1
         9        34     1
        10        13     1
        10        22     1
        10        40     1
        10        49     1
        11        23     1
        11        41     1
        11        44     1
        11        46     1
        11        47     1
        11        48     1
        12        22     1
        12        24     1
        12        45     1
        13        39     1
        13        43     1
        13        44     1
        14        18     1
        14        20     1
        14        23     1
        14        43     1
        15        19     1
        15        21     1
        15        22     1
        15        26     1
        15        27     1
        16        18     1
        16        20     1
        16        28     1
        17        25     1
        17        42     1
        18        21     1
        18        42     1
        20        22     1
        20        25     1
        21        23     1
        21        42     1
        21        43     1
        22        41     1
        22        44     1
        23        40     1
        23        45     1
        24        39     1
        24        41     1
        24        43     1
        24        46     1
        24        47     1
        24        48     1
        25        42     1
        26        28     1
        27        28     1
        28        29     1
        28        30     1
        28        37     1
        28        38     1
        29        31     1
        29        32     1
        30        31     1
        30        32     1
        31        33     1
        31        34     1
        32        33     1
        32        34     1
        33        35     1
        33        36     1
        34        35     1
        34        36     1
        35        37     1
        35        38     1
        36        37     1
        36        38     1
        39        40     1
        39        45     1
        40        41     1
        44        45     1
        46        49     1
        48        49     1
