; ITP file created by ByteFF-joint-25, 2026-02-18 03:14:20.898289

[ atomtypes ]
;name           bonded.type        at.num        mass        charge   ptype           sigma         epsilon
 c0bf                                   6      0.0000       0.00000       A     3.31532e-01     4.13480e-01    ;  uncertainty sigma = 0.000015, epsilon = 0.000570
 c1bf                                   6      0.0000       0.00000       A     3.31515e-01     4.13133e-01    ;  uncertainty sigma = 0.000010, epsilon = 0.000674
 c2bf                                   6      0.0000       0.00000       A     3.39746e-01     4.50473e-01    ;  uncertainty sigma = 0.000018, epsilon = 0.001024
 c3bf                                   6      0.0000       0.00000       A     3.39768e-01     4.51022e-01    ;  uncertainty sigma = 0.000006, epsilon = 0.000645
 c4bf                                   6      0.0000       0.00000       A     3.39777e-01     4.50895e-01    ;  uncertainty sigma = 0.000002, epsilon = 0.000606
 c5bf                                   6      0.0000       0.00000       A     3.39768e-01     4.50841e-01    ;  uncertainty sigma = 0.000004, epsilon = 0.000577
 c6bf                                   6      0.0000       0.00000       A     3.39768e-01     4.50847e-01    ;  uncertainty sigma = 0.000004, epsilon = 0.000550
 c7bf                                   6      0.0000       0.00000       A     3.39768e-01     4.50841e-01    ;  uncertainty sigma = 0.000004, epsilon = 0.000577
 c8bf                                   6      0.0000       0.00000       A     3.39777e-01     4.50895e-01    ;  uncertainty sigma = 0.000002, epsilon = 0.000606
 c9bf                                   6      0.0000       0.00000       A     3.31536e-01     4.13642e-01    ;  uncertainty sigma = 0.000005, epsilon = 0.000619
 c10bf                                  6      0.0000       0.00000       A     3.31513e-01     4.13299e-01    ;  uncertainty sigma = 0.000002, epsilon = 0.000722
 c11bf                                  6      0.0000       0.00000       A     3.31526e-01     4.13632e-01    ;  uncertainty sigma = 0.000004, epsilon = 0.000629
 c12bf                                  6      0.0000       0.00000       A     3.31521e-01     4.13453e-01    ;  uncertainty sigma = 0.000006, epsilon = 0.000586
 n13bf                                  7      0.0000       0.00000       A     3.38454e-01     3.93128e-01    ;  uncertainty sigma = 0.000014, epsilon = 0.001611
 c14bf                                  6      0.0000       0.00000       A     3.31555e-01     4.13691e-01    ;  uncertainty sigma = 0.000019, epsilon = 0.001615
 o15bf                                  8      0.0000       0.00000       A     3.15563e-01     3.02719e-01    ;  uncertainty sigma = 0.000043, epsilon = 0.000667
 c16bf                                  6      0.0000       0.00000       A     3.31535e-01     4.13137e-01    ;  uncertainty sigma = 0.000017, epsilon = 0.001511
 n17bf                                  7      0.0000       0.00000       A     3.38417e-01     3.93071e-01    ;  uncertainty sigma = 0.000022, epsilon = 0.000674
 n18bf                                  7      0.0000       0.00000       A     3.20668e-01     8.53150e-01    ;  uncertainty sigma = 0.000013, epsilon = 0.002761
 c19bf                                  6      0.0000       0.00000       A     3.31502e-01     4.13357e-01    ;  uncertainty sigma = 0.000016, epsilon = 0.001431
 n20bf                                  7      0.0000       0.00000       A     3.38400e-01     3.93907e-01    ;  uncertainty sigma = 0.000032, epsilon = 0.000830
 n21bf                                  7      0.0000       0.00000       A     3.27850e-01     6.46412e-01    ;  uncertainty sigma = 0.000026, epsilon = 0.002331
 c22bf                                  6      0.0000       0.00000       A     3.31532e-01     4.13330e-01    ;  uncertainty sigma = 0.000012, epsilon = 0.000681
 c23bf                                  6      0.0000       0.00000       A     3.31517e-01     4.13005e-01    ;  uncertainty sigma = 0.000014, epsilon = 0.000995
 h24bf                                  1      0.0000       0.00000       A     2.44744e-01     6.72455e-02    ;  uncertainty sigma = 0.000032, epsilon = 0.000726
 h25bf                                  1      0.0000       0.00000       A     2.42151e-01     8.65744e-02    ;  uncertainty sigma = 0.000032, epsilon = 0.000680
 h26bf                                  1      0.0000       0.00000       A     2.42151e-01     8.65744e-02    ;  uncertainty sigma = 0.000032, epsilon = 0.000680
 h27bf                                  1      0.0000       0.00000       A     2.60029e-01     8.68866e-02    ;  uncertainty sigma = 0.000020, epsilon = 0.001012
 h28bf                                  1      0.0000       0.00000       A     2.60022e-01     8.68135e-02    ;  uncertainty sigma = 0.000005, epsilon = 0.000610
 h29bf                                  1      0.0000       0.00000       A     2.60022e-01     8.68135e-02    ;  uncertainty sigma = 0.000005, epsilon = 0.000610
 h30bf                                  1      0.0000       0.00000       A     2.60037e-01     8.67480e-02    ;  uncertainty sigma = 0.000010, epsilon = 0.000549
 h31bf                                  1      0.0000       0.00000       A     2.60037e-01     8.67480e-02    ;  uncertainty sigma = 0.000010, epsilon = 0.000549
 h32bf                                  1      0.0000       0.00000       A     2.60038e-01     8.68003e-02    ;  uncertainty sigma = 0.000010, epsilon = 0.000496
 h33bf                                  1      0.0000       0.00000       A     2.60038e-01     8.68003e-02    ;  uncertainty sigma = 0.000010, epsilon = 0.000496
 h34bf                                  1      0.0000       0.00000       A     2.60037e-01     8.67480e-02    ;  uncertainty sigma = 0.000010, epsilon = 0.000549
 h35bf                                  1      0.0000       0.00000       A     2.60037e-01     8.67480e-02    ;  uncertainty sigma = 0.000010, epsilon = 0.000549
 h36bf                                  1      0.0000       0.00000       A     2.60022e-01     8.68135e-02    ;  uncertainty sigma = 0.000005, epsilon = 0.000610
 h37bf                                  1      0.0000       0.00000       A     2.60022e-01     8.68135e-02    ;  uncertainty sigma = 0.000005, epsilon = 0.000610
 o38bf                                  8      0.0000       0.00000       A     3.15644e-01     3.02858e-01    ;  uncertainty sigma = 0.000024, epsilon = 0.000768
 h39bf                                  1      0.0000       0.00000       A     2.62564e-01     6.71214e-02    ;  uncertainty sigma = 0.000006, epsilon = 0.000469
 h40bf                                  1      0.0000       0.00000       A     2.62569e-01     6.69807e-02    ;  uncertainty sigma = 0.000013, epsilon = 0.000463
 h41bf                                  1      0.0000       0.00000       A     2.62556e-01     6.70451e-02    ;  uncertainty sigma = 0.000012, epsilon = 0.000463
 h42bf                                  1      0.0000       0.00000       A     1.10659e-01     4.13535e-02    ;  uncertainty sigma = 0.000077, epsilon = 0.001060
 h43bf                                  1      0.0000       0.00000       A     1.10636e-01     4.13049e-02    ;  uncertainty sigma = 0.000070, epsilon = 0.000395
 h44bf                                  1      0.0000       0.00000       A     2.62545e-01     6.71147e-02    ;  uncertainty sigma = 0.000015, epsilon = 0.000671
 c45bf                                  6      0.0000       0.00000       A     3.39790e-01     4.50985e-01    ;  uncertainty sigma = 0.000004, epsilon = 0.000763
 h46bf                                  1      0.0000       0.00000       A     2.42205e-01     8.67538e-02    ;  uncertainty sigma = 0.000015, epsilon = 0.000624
 h47bf                                  1      0.0000       0.00000       A     2.42205e-01     8.67538e-02    ;  uncertainty sigma = 0.000015, epsilon = 0.000624
 h48bf                                  1      0.0000       0.00000       A     2.42205e-01     8.67539e-02    ;  uncertainty sigma = 0.000015, epsilon = 0.000624

[ moleculetype ]
;name             nrexcl
 MOL                   3

[ atoms ]
;       nr            type      resi   res      atom      cgnr      charge          mass ; qtot
         1            c0bf         1   UNL        c0         1     0.95663       12.0110 ; qtot    0.957
         2            c1bf         1   UNL        c1         2     0.41068       12.0110 ; qtot    1.367
         3            c2bf         1   UNL        c2         3     0.14743       12.0110 ; qtot    1.515
         4            c3bf         1   UNL        c3         4    -0.07357       12.0110 ; qtot    1.441
         5            c4bf         1   UNL        c4         5    -0.07055       12.0110 ; qtot    1.371
         6            c5bf         1   UNL        c5         6    -0.07454       12.0110 ; qtot    1.296
         7            c6bf         1   UNL        c6         7    -0.07568       12.0110 ; qtot    1.220
         8            c7bf         1   UNL        c7         8    -0.07454       12.0110 ; qtot    1.146
         9            c8bf         1   UNL        c8         9    -0.07055       12.0110 ; qtot    1.075
        10            c9bf         1   UNL        c9        10     0.15383       12.0110 ; qtot    1.229
        11           c10bf         1   UNL       c10        11    -0.21458       12.0110 ; qtot    1.015
        12           c11bf         1   UNL       c11        12    -0.06799       12.0110 ; qtot    0.947
        13           c12bf         1   UNL       c12        13    -0.18957       12.0110 ; qtot    0.757
        14           n13bf         1   UNL       n13        14    -0.85541       14.0070 ; qtot   -0.098
        15           c14bf         1   UNL       c14        15     0.76711       12.0110 ; qtot    0.669
        16           o15bf         1   UNL       o15        16    -0.41736       15.9990 ; qtot    0.251
        17           c16bf         1   UNL       c16        17    -0.22388       12.0110 ; qtot    0.027
        18           n17bf         1   UNL       n17        18    -0.51902       14.0070 ; qtot   -0.492
        19           n18bf         1   UNL       n18        19    -0.38521       14.0070 ; qtot   -0.877
        20           c19bf         1   UNL       c19        20     0.49592       12.0110 ; qtot   -0.381
        21           n20bf         1   UNL       n20        21    -0.78034       14.0070 ; qtot   -1.161
        22           n21bf         1   UNL       n21        22    -0.74053       14.0070 ; qtot   -1.902
        23           c22bf         1   UNL       c22        23     0.20700       12.0110 ; qtot   -1.695
        24           c23bf         1   UNL       c23        24    -0.22921       12.0110 ; qtot   -1.924
        25           h24bf         1   UNL       h24        25     0.07138        1.0080 ; qtot   -1.853
        26           h25bf         1   UNL       h25        26     0.05737        1.0080 ; qtot   -1.795
        27           h26bf         1   UNL       h26        27     0.05737        1.0080 ; qtot   -1.738
        28           h27bf         1   UNL       h27        28     0.05674        1.0080 ; qtot   -1.681
        29           h28bf         1   UNL       h28        29     0.04108        1.0080 ; qtot   -1.640
        30           h29bf         1   UNL       h29        30     0.04108        1.0080 ; qtot   -1.599
        31           h30bf         1   UNL       h30        31     0.03886        1.0080 ; qtot   -1.560
        32           h31bf         1   UNL       h31        32     0.03886        1.0080 ; qtot   -1.521
        33           h32bf         1   UNL       h32        33     0.03826        1.0080 ; qtot   -1.483
        34           h33bf         1   UNL       h33        34     0.03826        1.0080 ; qtot   -1.445
        35           h34bf         1   UNL       h34        35     0.03886        1.0080 ; qtot   -1.406
        36           h35bf         1   UNL       h35        36     0.03886        1.0080 ; qtot   -1.367
        37           h36bf         1   UNL       h36        37     0.04108        1.0080 ; qtot   -1.326
        38           h37bf         1   UNL       h37        38     0.04108        1.0080 ; qtot   -1.285
        39           o38bf         1   UNL       o38        39    -0.32634       15.9990 ; qtot   -1.611
        40           h39bf         1   UNL       h39        40     0.14208        1.0080 ; qtot   -1.469
        41           h40bf         1   UNL       h40        41     0.13536        1.0080 ; qtot   -1.334
        42           h41bf         1   UNL       h41        42     0.15084        1.0080 ; qtot   -1.183
        43           h42bf         1   UNL       h42        43     0.32141        1.0080 ; qtot   -0.861
        44           h43bf         1   UNL       h43        44     0.45698        1.0080 ; qtot   -0.404
        45           h44bf         1   UNL       h44        45     0.15536        1.0080 ; qtot   -0.249
        46           c45bf         1   UNL       c45        46     0.12120       12.0110 ; qtot   -0.128
        47           h46bf         1   UNL       h46        47     0.04263        1.0080 ; qtot   -0.085
        48           h47bf         1   UNL       h47        48     0.04263        1.0080 ; qtot   -0.043
        49           h48bf         1   UNL       h48        49     0.04264        1.0080 ; qtot   -0.000

[ bonds ]
;       ai        aj funct               r               k
         1        14     1        0.137692   563792.212402    ;  uncertainty r = 0.000197, k = 15.011635
         1        21     1        0.135717   497270.596191    ;  uncertainty r = 0.000139, k = 6.796764
         1        22     1        0.140137   572144.992285    ;  uncertainty r = 0.000218, k = 16.793912
         2        18     1        0.131489   458656.699219    ;  uncertainty r = 0.000037, k = 5.835382
         2        19     1        0.139342   329079.414355    ;  uncertainty r = 0.000043, k = 9.668559
         2        25     1        0.108332   339946.501416    ;  uncertainty r = 0.000011, k = 1.564861
         3         4     1        0.152057   199736.687842    ;  uncertainty r = 0.000061, k = 5.790512
         3        16     1        0.143315   239169.610986    ;  uncertainty r = 0.000097, k = 7.333188
         3        26     1        0.109496   307818.647168    ;  uncertainty r = 0.000046, k = 1.114744
         3        27     1        0.109496   307818.647168    ;  uncertainty r = 0.000046, k = 1.114744
         4         5     1        0.153587   205328.599756    ;  uncertainty r = 0.000046, k = 2.392583
         4         9     1        0.153587   205328.599756    ;  uncertainty r = 0.000046, k = 2.392583
         4        28     1        0.109837   304071.280664    ;  uncertainty r = 0.000031, k = 1.439771
         5         6     1        0.153586   210762.322046    ;  uncertainty r = 0.000027, k = 3.760745
         5        29     1        0.109775   307348.917578    ;  uncertainty r = 0.000003, k = 1.364875
         5        30     1        0.109775   307348.917578    ;  uncertainty r = 0.000003, k = 1.364875
         6         7     1        0.153619   211447.099634    ;  uncertainty r = 0.000025, k = 2.144177
         6        31     1        0.109778   306677.214990    ;  uncertainty r = 0.000007, k = 1.120477
         6        32     1        0.109778   306677.214990    ;  uncertainty r = 0.000007, k = 1.120477
         7         8     1        0.153619   211447.099634    ;  uncertainty r = 0.000025, k = 2.144177
         7        33     1        0.109791   306489.006494    ;  uncertainty r = 0.000014, k = 1.016736
         7        34     1        0.109791   306489.006494    ;  uncertainty r = 0.000014, k = 1.016736
         8         9     1        0.153586   210762.322046    ;  uncertainty r = 0.000027, k = 3.760745
         8        35     1        0.109778   306677.214990    ;  uncertainty r = 0.000007, k = 1.120477
         8        36     1        0.109778   306677.214990    ;  uncertainty r = 0.000007, k = 1.120477
         9        37     1        0.109775   307348.917578    ;  uncertainty r = 0.000003, k = 1.364875
         9        38     1        0.109775   307348.917578    ;  uncertainty r = 0.000003, k = 1.364875
        10        11     1        0.139943   360750.843848    ;  uncertainty r = 0.000027, k = 2.985228
        10        24     1        0.139681   358846.516064    ;  uncertainty r = 0.000042, k = 6.453571
        10        39     1        0.136507   323816.905615    ;  uncertainty r = 0.000050, k = 4.075295
        11        12     1        0.139569   368431.359326    ;  uncertainty r = 0.000023, k = 2.148665
        11        40     1        0.108779   337840.966748    ;  uncertainty r = 0.000017, k = 0.683429
        12        13     1        0.139375   368236.664404    ;  uncertainty r = 0.000032, k = 1.600851
        12        41     1        0.108736   332092.767725    ;  uncertainty r = 0.000014, k = 1.815037
        13        23     1        0.140294   351812.549121    ;  uncertainty r = 0.000055, k = 3.303251
        13        42     1        0.108732   336752.549609    ;  uncertainty r = 0.000026, k = 2.301445
        14        15     1        0.133977   398017.785986    ;  uncertainty r = 0.000160, k = 21.625405
        15        16     1        0.133486   312483.919531    ;  uncertainty r = 0.000114, k = 9.032125
        15        17     1        0.140565   391002.895264    ;  uncertainty r = 0.000249, k = 16.686578
        17        18     1        0.138948   295428.858887    ;  uncertainty r = 0.000129, k = 8.760058
        17        20     1        0.141391   511113.445996    ;  uncertainty r = 0.000118, k = 11.674714
        19        20     1        0.138394   420661.438721    ;  uncertainty r = 0.000137, k = 16.534878
        19        43     1        0.101710   428654.783789    ;  uncertainty r = 0.000066, k = 2.300302
        20        21     1        0.134317   482282.713477    ;  uncertainty r = 0.000062, k = 12.474368
        22        23     1        0.140977   338678.507324    ;  uncertainty r = 0.000105, k = 6.827378
        22        44     1        0.102412   458651.540723    ;  uncertainty r = 0.000064, k = 10.180097
        23        24     1        0.140291   355325.255127    ;  uncertainty r = 0.000036, k = 5.673245
        24        45     1        0.108813   339183.401514    ;  uncertainty r = 0.000046, k = 4.103221
        39        46     1        0.141862   253678.826123    ;  uncertainty r = 0.000014, k = 2.155186
        46        47     1        0.109623   311224.914502    ;  uncertainty r = 0.000009, k = 1.869778
        46        48     1        0.109623   311224.914502    ;  uncertainty r = 0.000009, k = 1.869778
        46        49     1        0.109623   311224.888965    ;  uncertainty r = 0.000009, k = 1.869775

[ angles ]
;       ai        aj        ak funct           theta             cth
         1        14        15     1      126.742821      406.753291    ;  uncertainty theta = 0.002818, k = 0.376100
         1        21        20     1      109.784683      447.969004    ;  uncertainty theta = 0.006143, k = 0.312790
         1        22        23     1      116.383438      379.407675    ;  uncertainty theta = 0.002797, k = 0.118468
         1        22        44     1      117.661514      462.146920    ;  uncertainty theta = 0.005189, k = 0.078690
         2        18        17     1      106.111351      853.549407    ;  uncertainty theta = 0.003794, k = 0.182834
         2        19        20     1      102.354355      897.551379    ;  uncertainty theta = 0.005127, k = 0.150610
         2        19        43     1      117.932297      277.348969    ;  uncertainty theta = 0.004851, k = 0.101165
         3         4         5     1      109.370621      534.546189    ;  uncertainty theta = 0.000881, k = 0.079597
         3         4         9     1      109.370621      534.546189    ;  uncertainty theta = 0.000881, k = 0.079597
         3         4        28     1      104.519203      390.668774    ;  uncertainty theta = 0.001871, k = 0.051672
         3        16        15     1      109.298241      487.255900    ;  uncertainty theta = 0.006273, k = 0.134319
         4         3        16     1      108.360596      589.984285    ;  uncertainty theta = 0.002151, k = 0.068728
         4         3        26     1      110.388329      401.234498    ;  uncertainty theta = 0.001434, k = 0.050678
         4         3        27     1      110.388329      401.234498    ;  uncertainty theta = 0.001434, k = 0.050678
         4         5         6     1      109.808632      579.430436    ;  uncertainty theta = 0.001205, k = 0.063369
         4         5        29     1      108.107224      391.796365    ;  uncertainty theta = 0.000562, k = 0.017913
         4         5        30     1      108.107224      391.796365    ;  uncertainty theta = 0.000562, k = 0.017913
         4         9         8     1      109.808632      579.430436    ;  uncertainty theta = 0.001205, k = 0.063369
         4         9        37     1      108.107224      391.796365    ;  uncertainty theta = 0.000562, k = 0.017913
         4         9        38     1      108.107224      391.796365    ;  uncertainty theta = 0.000562, k = 0.017913
         5         4         9     1      109.660385      590.498730    ;  uncertainty theta = 0.000773, k = 0.120988
         5         4        28     1      107.825272      400.301755    ;  uncertainty theta = 0.001267, k = 0.020179
         5         6         7     1      109.478188      613.671677    ;  uncertainty theta = 0.000704, k = 0.027802
         5         6        31     1      108.525650      399.342996    ;  uncertainty theta = 0.001032, k = 0.020585
         5         6        32     1      108.525650      399.342996    ;  uncertainty theta = 0.001032, k = 0.020585
         6         5        29     1      108.752831      406.358231    ;  uncertainty theta = 0.000546, k = 0.018181
         6         5        30     1      108.752831      406.358231    ;  uncertainty theta = 0.000546, k = 0.018181
         6         7         8     1      108.993248      613.337461    ;  uncertainty theta = 0.001325, k = 0.034156
         6         7        33     1      108.795181      401.635590    ;  uncertainty theta = 0.001133, k = 0.009890
         6         7        34     1      108.795181      401.635590    ;  uncertainty theta = 0.001133, k = 0.009890
         7         6        31     1      108.826157      401.626844    ;  uncertainty theta = 0.001001, k = 0.013174
         7         6        32     1      108.826157      401.626844    ;  uncertainty theta = 0.001001, k = 0.013174
         7         8         9     1      109.478188      613.671677    ;  uncertainty theta = 0.000704, k = 0.027802
         7         8        35     1      108.826157      401.626844    ;  uncertainty theta = 0.001001, k = 0.013174
         7         8        36     1      108.826157      401.626844    ;  uncertainty theta = 0.001001, k = 0.013174
         8         7        33     1      108.795181      401.635590    ;  uncertainty theta = 0.001133, k = 0.009890
         8         7        34     1      108.795181      401.635590    ;  uncertainty theta = 0.001133, k = 0.009890
         8         9        37     1      108.752831      406.358231    ;  uncertainty theta = 0.000546, k = 0.018181
         8         9        38     1      108.752831      406.358231    ;  uncertainty theta = 0.000546, k = 0.018181
         9         4        28     1      107.825272      400.301755    ;  uncertainty theta = 0.001267, k = 0.020179
         9         8        35     1      108.525650      399.342996    ;  uncertainty theta = 0.001032, k = 0.020585
         9         8        36     1      108.525650      399.342996    ;  uncertainty theta = 0.001032, k = 0.020585
        10        11        12     1      117.835938      525.539346    ;  uncertainty theta = 0.002750, k = 0.034132
        10        11        40     1      119.962692      271.354834    ;  uncertainty theta = 0.002856, k = 0.050288
        10        24        23     1      119.095909      513.095336    ;  uncertainty theta = 0.005642, k = 0.101551
        10        24        45     1      120.433289      277.037224    ;  uncertainty theta = 0.001028, k = 0.089872
        10        39        46     1      109.660721      517.702997    ;  uncertainty theta = 0.000964, k = 0.067873
        11        10        24     1      121.441849      371.128736    ;  uncertainty theta = 0.007000, k = 0.070830
        11        10        39     1      119.910095      425.462447    ;  uncertainty theta = 0.003914, k = 0.051572
        11        12        13     1      121.737099      507.217492    ;  uncertainty theta = 0.002665, k = 0.062765
        11        12        41     1      119.983032      279.390533    ;  uncertainty theta = 0.000866, k = 0.060714
        12        11        40     1      121.259277      286.038289    ;  uncertainty theta = 0.002551, k = 0.013076
        12        13        23     1      118.488441      516.368587    ;  uncertainty theta = 0.002572, k = 0.099610
        12        13        42     1      121.223732      313.407686    ;  uncertainty theta = 0.001932, k = 0.048820
        13        12        41     1      119.761864      277.811829    ;  uncertainty theta = 0.001462, k = 0.052434
        13        23        22     1      119.861488      576.984236    ;  uncertainty theta = 0.003864, k = 0.054015
        13        23        24     1      120.626694      369.553319    ;  uncertainty theta = 0.006763, k = 0.077267
        14         1        21     1      129.092941      757.787864    ;  uncertainty theta = 0.006481, k = 0.120442
        14         1        22     1      120.655128      870.336864    ;  uncertainty theta = 0.004983, k = 0.128823
        14        15        16     1      118.935570      616.218302    ;  uncertainty theta = 0.007793, k = 0.186676
        14        15        17     1      121.320839      502.911839    ;  uncertainty theta = 0.004217, k = 0.154158
        15        17        18     1      125.572182      337.569367    ;  uncertainty theta = 0.011808, k = 0.247348
        15        17        20     1      115.411545      389.079632    ;  uncertainty theta = 0.002296, k = 0.591650
        16         3        26     1      105.912796      425.655923    ;  uncertainty theta = 0.002429, k = 0.021585
        16         3        27     1      105.912796      425.655923    ;  uncertainty theta = 0.002429, k = 0.021585
        16        15        17     1      120.841599      418.373761    ;  uncertainty theta = 0.012439, k = 0.222946
        17        20        19     1      106.195297      652.909446    ;  uncertainty theta = 0.002633, k = 0.118945
        17        20        21     1      124.131241      528.955701    ;  uncertainty theta = 0.002054, k = 0.262938
        18         2        19     1      113.227966      928.193356    ;  uncertainty theta = 0.003566, k = 0.156145
        18         2        25     1      123.515884      268.877032    ;  uncertainty theta = 0.002962, k = 0.132496
        18        17        20     1      111.612305      768.764927    ;  uncertainty theta = 0.003022, k = 0.071308
        19         2        25     1      119.012375      282.043838    ;  uncertainty theta = 0.003618, k = 0.085884
        19        20        21     1      130.784073      493.318920    ;  uncertainty theta = 0.002562, k = 0.208672
        20        19        43     1      119.864441      316.787906    ;  uncertainty theta = 0.004484, k = 0.091289
        21         1        22     1      120.506004      820.778656    ;  uncertainty theta = 0.005459, k = 0.118759
        22        23        24     1      119.378380      587.140664    ;  uncertainty theta = 0.002336, k = 0.121150
        23        13        42     1      119.239914      273.827273    ;  uncertainty theta = 0.001602, k = 0.053303
        23        22        44     1      113.551025      344.098408    ;  uncertainty theta = 0.005544, k = 0.141502
        23        24        45     1      119.664574      273.059947    ;  uncertainty theta = 0.003998, k = 0.068188
        24        10        39     1      118.628685      440.355881    ;  uncertainty theta = 0.003587, k = 0.101412
        26         3        27     1      107.711685      332.413967    ;  uncertainty theta = 0.002533, k = 0.071911
        29         5        30     1      104.326004      317.253224    ;  uncertainty theta = 0.001073, k = 0.013630
        31         6        32     1      104.066360      312.019042    ;  uncertainty theta = 0.001961, k = 0.032491
        33         7        34     1      103.945633      313.844913    ;  uncertainty theta = 0.001747, k = 0.045918
        35         8        36     1      104.066360      312.019042    ;  uncertainty theta = 0.001961, k = 0.032491
        37         9        38     1      104.326004      317.253224    ;  uncertainty theta = 0.001073, k = 0.013630
        39        46        47     1      108.786850      447.111564    ;  uncertainty theta = 0.001320, k = 0.026820
        39        46        48     1      108.786850      447.111564    ;  uncertainty theta = 0.001320, k = 0.026820
        39        46        49     1      108.786850      447.111564    ;  uncertainty theta = 0.001320, k = 0.026820
        47        46        48     1      109.081810      330.154348    ;  uncertainty theta = 0.001818, k = 0.013785
        47        46        49     1      109.081810      330.154412    ;  uncertainty theta = 0.001818, k = 0.013785
        48        46        49     1      109.081810      330.154412    ;  uncertainty theta = 0.001818, k = 0.013785

[ dihedrals ] ; propers for gromacs 4.5 or higher, use funct 9
;       ai        aj        ak        al funct           phase               k        pn
         1        14        15        16     9        0.000000        0.439457         1    ;  uncertainty k = 1.483412
         1        14        15        16     9      180.000000       14.711091         2    ;  uncertainty k = 0.661713
         1        14        15        16     9        0.000000        2.434957         3    ;  uncertainty k = 0.461929
         1        14        15        16     9      180.000000        1.704861         4    ;  uncertainty k = 0.321312
         1        14        15        17     9        0.000000       -0.025149         1    ;  uncertainty k = 1.002386
         1        14        15        17     9      180.000000       13.567653         2    ;  uncertainty k = 0.282700
         1        14        15        17     9        0.000000        0.983280         3    ;  uncertainty k = 0.510106
         1        14        15        17     9      180.000000        1.341124         4    ;  uncertainty k = 0.375485
         1        21        20        17     9        0.000000       -0.017905         1    ;  uncertainty k = 1.073337
         1        21        20        17     9      180.000000       12.505613         2    ;  uncertainty k = 0.302253
         1        21        20        17     9        0.000000       -1.162332         3    ;  uncertainty k = 0.668118
         1        21        20        17     9      180.000000        1.142664         4    ;  uncertainty k = 0.203257
         1        21        20        19     9        0.000000       -0.620344         1    ;  uncertainty k = 0.818592
         1        21        20        19     9      180.000000       16.881254         2    ;  uncertainty k = 0.563329
         1        21        20        19     9        0.000000        1.129661         3    ;  uncertainty k = 0.402579
         1        21        20        19     9      180.000000        1.161579         4    ;  uncertainty k = 0.378875
         1        22        23        13     9        0.000000        0.190108         1    ;  uncertainty k = 0.360300
         1        22        23        13     9      180.000000        6.704511         2    ;  uncertainty k = 0.097288
         1        22        23        13     9        0.000000        0.953860         3    ;  uncertainty k = 0.249742
         1        22        23        13     9      180.000000        0.070960         4    ;  uncertainty k = 0.057451
         1        22        23        24     9        0.000000       -0.203564         1    ;  uncertainty k = 0.405541
         1        22        23        24     9      180.000000        6.649202         2    ;  uncertainty k = 0.154951
         1        22        23        24     9        0.000000        0.905030         3    ;  uncertainty k = 0.230498
         1        22        23        24     9      180.000000        0.106496         4    ;  uncertainty k = 0.031977
         2        18        17        15     9        0.000000        0.735464         1    ;  uncertainty k = 0.750680
         2        18        17        15     9      180.000000        7.847477         2    ;  uncertainty k = 0.940977
         2        18        17        15     9        0.000000        0.398428         3    ;  uncertainty k = 0.869847
         2        18        17        15     9      180.000000        0.957178         4    ;  uncertainty k = 0.474924
         2        18        17        20     9        0.000000        0.121290         1    ;  uncertainty k = 1.156313
         2        18        17        20     9      180.000000       12.718757         2    ;  uncertainty k = 0.701871
         2        18        17        20     9        0.000000       -8.821906         3    ;  uncertainty k = 1.315956
         2        18        17        20     9      180.000000        2.424357         4    ;  uncertainty k = 0.269865
         2        19        20        17     9        0.000000        0.489619         1    ;  uncertainty k = 1.421474
         2        19        20        17     9      180.000000       13.059893         2    ;  uncertainty k = 1.109382
         2        19        20        17     9        0.000000       -9.373226         3    ;  uncertainty k = 1.895988
         2        19        20        17     9      180.000000        0.964849         4    ;  uncertainty k = 0.536529
         2        19        20        21     9        0.000000        0.801167         1    ;  uncertainty k = 2.152286
         2        19        20        21     9      180.000000        8.204403         2    ;  uncertainty k = 1.378239
         2        19        20        21     9        0.000000       -0.096554         3    ;  uncertainty k = 1.003206
         2        19        20        21     9      180.000000        0.365154         4    ;  uncertainty k = 0.210995
         3         4         5         6     9        0.000000       -4.769153         1    ;  uncertainty k = 0.573785
         3         4         5         6     9      180.000000        0.472126         2    ;  uncertainty k = 0.225074
         3         4         5         6     9        0.000000        0.768371         3    ;  uncertainty k = 0.170758
         3         4         5         6     9      180.000000       -0.381064         4    ;  uncertainty k = 0.118636
         3         4         5        29     9        0.000000        0.009695         1    ;  uncertainty k = 0.581490
         3         4         5        29     9      180.000000       -1.004637         2    ;  uncertainty k = 0.232678
         3         4         5        29     9        0.000000        0.571898         3    ;  uncertainty k = 0.095316
         3         4         5        29     9      180.000000       -0.185725         4    ;  uncertainty k = 0.080856
         3         4         5        30     9        0.000000        0.009695         1    ;  uncertainty k = 0.581490
         3         4         5        30     9      180.000000       -1.004637         2    ;  uncertainty k = 0.232678
         3         4         5        30     9        0.000000        0.571898         3    ;  uncertainty k = 0.095316
         3         4         5        30     9      180.000000       -0.185725         4    ;  uncertainty k = 0.080856
         3         4         9         8     9        0.000000       -4.769153         1    ;  uncertainty k = 0.573785
         3         4         9         8     9      180.000000        0.472126         2    ;  uncertainty k = 0.225074
         3         4         9         8     9        0.000000        0.768371         3    ;  uncertainty k = 0.170758
         3         4         9         8     9      180.000000       -0.381064         4    ;  uncertainty k = 0.118636
         3         4         9        37     9        0.000000        0.009695         1    ;  uncertainty k = 0.581490
         3         4         9        37     9      180.000000       -1.004637         2    ;  uncertainty k = 0.232678
         3         4         9        37     9        0.000000        0.571898         3    ;  uncertainty k = 0.095316
         3         4         9        37     9      180.000000       -0.185725         4    ;  uncertainty k = 0.080856
         3         4         9        38     9        0.000000        0.009695         1    ;  uncertainty k = 0.581490
         3         4         9        38     9      180.000000       -1.004637         2    ;  uncertainty k = 0.232678
         3         4         9        38     9        0.000000        0.571898         3    ;  uncertainty k = 0.095316
         3         4         9        38     9      180.000000       -0.185725         4    ;  uncertainty k = 0.080856
         3        16        15        14     9        0.000000        2.721736         1    ;  uncertainty k = 0.811251
         3        16        15        14     9      180.000000       12.314511         2    ;  uncertainty k = 0.053075
         3        16        15        14     9        0.000000        0.338905         3    ;  uncertainty k = 0.487919
         3        16        15        14     9      180.000000       -0.125844         4    ;  uncertainty k = 0.142563
         3        16        15        17     9        0.000000        5.661143         1    ;  uncertainty k = 0.811650
         3        16        15        17     9      180.000000        8.863071         2    ;  uncertainty k = 0.136950
         3        16        15        17     9        0.000000        0.973975         3    ;  uncertainty k = 0.244529
         3        16        15        17     9      180.000000       -0.213801         4    ;  uncertainty k = 0.237973
         4         3        16        15     9        0.000000       -5.993674         1    ;  uncertainty k = 0.554920
         4         3        16        15     9      180.000000        2.437510         2    ;  uncertainty k = 0.256287
         4         3        16        15     9        0.000000       -0.392327         3    ;  uncertainty k = 0.154757
         4         3        16        15     9      180.000000        0.858750         4    ;  uncertainty k = 0.086246
         4         5         6         7     9        0.000000       -7.967758         1    ;  uncertainty k = 1.187860
         4         5         6         7     9      180.000000        0.435463         2    ;  uncertainty k = 0.589253
         4         5         6         7     9        0.000000        1.944962         3    ;  uncertainty k = 0.175085
         4         5         6         7     9      180.000000       -1.434840         4    ;  uncertainty k = 0.216045
         4         5         6        31     9        0.000000       -1.697203         1    ;  uncertainty k = 0.467163
         4         5         6        31     9      180.000000       -0.356805         2    ;  uncertainty k = 0.119858
         4         5         6        31     9        0.000000        0.557954         3    ;  uncertainty k = 0.133654
         4         5         6        31     9      180.000000       -0.075956         4    ;  uncertainty k = 0.059799
         4         5         6        32     9        0.000000       -1.697203         1    ;  uncertainty k = 0.467163
         4         5         6        32     9      180.000000       -0.356805         2    ;  uncertainty k = 0.119858
         4         5         6        32     9        0.000000        0.557954         3    ;  uncertainty k = 0.133654
         4         5         6        32     9      180.000000       -0.075956         4    ;  uncertainty k = 0.059799
         4         9         8         7     9        0.000000       -7.967758         1    ;  uncertainty k = 1.187860
         4         9         8         7     9      180.000000        0.435463         2    ;  uncertainty k = 0.589253
         4         9         8         7     9        0.000000        1.944962         3    ;  uncertainty k = 0.175085
         4         9         8         7     9      180.000000       -1.434840         4    ;  uncertainty k = 0.216045
         4         9         8        35     9        0.000000       -1.697203         1    ;  uncertainty k = 0.467163
         4         9         8        35     9      180.000000       -0.356805         2    ;  uncertainty k = 0.119858
         4         9         8        35     9        0.000000        0.557954         3    ;  uncertainty k = 0.133654
         4         9         8        35     9      180.000000       -0.075956         4    ;  uncertainty k = 0.059799
         4         9         8        36     9        0.000000       -1.697203         1    ;  uncertainty k = 0.467163
         4         9         8        36     9      180.000000       -0.356805         2    ;  uncertainty k = 0.119858
         4         9         8        36     9        0.000000        0.557954         3    ;  uncertainty k = 0.133654
         4         9         8        36     9      180.000000       -0.075956         4    ;  uncertainty k = 0.059799
         5         4         3        16     9        0.000000       -1.401577         1    ;  uncertainty k = 0.555176
         5         4         3        16     9      180.000000       -1.846835         2    ;  uncertainty k = 0.534491
         5         4         3        16     9        0.000000        1.469365         3    ;  uncertainty k = 0.148457
         5         4         3        16     9      180.000000       -0.236568         4    ;  uncertainty k = 0.117513
         5         4         3        26     9        0.000000       -1.410245         1    ;  uncertainty k = 0.488994
         5         4         3        26     9      180.000000        0.149401         2    ;  uncertainty k = 0.184667
         5         4         3        26     9        0.000000        0.583306         3    ;  uncertainty k = 0.096375
         5         4         3        26     9      180.000000       -0.287185         4    ;  uncertainty k = 0.096275
         5         4         3        27     9        0.000000       -1.410245         1    ;  uncertainty k = 0.488994
         5         4         3        27     9      180.000000        0.149401         2    ;  uncertainty k = 0.184667
         5         4         3        27     9        0.000000        0.583306         3    ;  uncertainty k = 0.096375
         5         4         3        27     9      180.000000       -0.287185         4    ;  uncertainty k = 0.096275
         5         4         9         8     9        0.000000       -6.763638         1    ;  uncertainty k = 1.108795
         5         4         9         8     9      180.000000        0.639021         2    ;  uncertainty k = 0.390934
         5         4         9         8     9        0.000000        1.564762         3    ;  uncertainty k = 0.124122
         5         4         9         8     9      180.000000       -1.411959         4    ;  uncertainty k = 0.153360
         5         4         9        37     9        0.000000       -1.777372         1    ;  uncertainty k = 0.316771
         5         4         9        37     9      180.000000       -0.204743         2    ;  uncertainty k = 0.095816
         5         4         9        37     9        0.000000        0.391228         3    ;  uncertainty k = 0.135576
         5         4         9        37     9      180.000000       -0.085357         4    ;  uncertainty k = 0.038271
         5         4         9        38     9        0.000000       -1.777372         1    ;  uncertainty k = 0.316771
         5         4         9        38     9      180.000000       -0.204743         2    ;  uncertainty k = 0.095816
         5         4         9        38     9        0.000000        0.391228         3    ;  uncertainty k = 0.135576
         5         4         9        38     9      180.000000       -0.085357         4    ;  uncertainty k = 0.038271
         5         6         7         8     9        0.000000       -9.813552         1    ;  uncertainty k = 1.916609
         5         6         7         8     9      180.000000        1.261717         2    ;  uncertainty k = 0.612102
         5         6         7         8     9        0.000000        2.075019         3    ;  uncertainty k = 0.183645
         5         6         7         8     9      180.000000       -1.433814         4    ;  uncertainty k = 0.229907
         5         6         7        33     9        0.000000       -2.162965         1    ;  uncertainty k = 0.320424
         5         6         7        33     9      180.000000       -0.102975         2    ;  uncertainty k = 0.120033
         5         6         7        33     9        0.000000        0.610676         3    ;  uncertainty k = 0.139255
         5         6         7        33     9      180.000000       -0.086954         4    ;  uncertainty k = 0.029985
         5         6         7        34     9        0.000000       -2.162965         1    ;  uncertainty k = 0.320424
         5         6         7        34     9      180.000000       -0.102975         2    ;  uncertainty k = 0.120033
         5         6         7        34     9        0.000000        0.610676         3    ;  uncertainty k = 0.139255
         5         6         7        34     9      180.000000       -0.086954         4    ;  uncertainty k = 0.029985
         6         5         4         9     9        0.000000       -6.763638         1    ;  uncertainty k = 1.108795
         6         5         4         9     9      180.000000        0.639021         2    ;  uncertainty k = 0.390934
         6         5         4         9     9        0.000000        1.564762         3    ;  uncertainty k = 0.124122
         6         5         4         9     9      180.000000       -1.411959         4    ;  uncertainty k = 0.153360
         6         5         4        28     9        0.000000       -2.441010         1    ;  uncertainty k = 0.394227
         6         5         4        28     9      180.000000        0.168377         2    ;  uncertainty k = 0.037109
         6         5         4        28     9        0.000000        0.147084         3    ;  uncertainty k = 0.161746
         6         5         4        28     9      180.000000       -0.164065         4    ;  uncertainty k = 0.097547
         6         7         8         9     9        0.000000       -9.813552         1    ;  uncertainty k = 1.916609
         6         7         8         9     9      180.000000        1.261717         2    ;  uncertainty k = 0.612102
         6         7         8         9     9        0.000000        2.075019         3    ;  uncertainty k = 0.183645
         6         7         8         9     9      180.000000       -1.433814         4    ;  uncertainty k = 0.229907
         6         7         8        35     9        0.000000       -1.979013         1    ;  uncertainty k = 0.475575
         6         7         8        35     9      180.000000       -0.219552         2    ;  uncertainty k = 0.116376
         6         7         8        35     9        0.000000        0.575670         3    ;  uncertainty k = 0.105417
         6         7         8        35     9      180.000000       -0.051905         4    ;  uncertainty k = 0.014676
         6         7         8        36     9        0.000000       -1.979013         1    ;  uncertainty k = 0.475575
         6         7         8        36     9      180.000000       -0.219552         2    ;  uncertainty k = 0.116376
         6         7         8        36     9        0.000000        0.575670         3    ;  uncertainty k = 0.105417
         6         7         8        36     9      180.000000       -0.051905         4    ;  uncertainty k = 0.014676
         7         6         5        29     9        0.000000       -2.065110         1    ;  uncertainty k = 0.419468
         7         6         5        29     9      180.000000       -0.158572         2    ;  uncertainty k = 0.106512
         7         6         5        29     9        0.000000        0.592907         3    ;  uncertainty k = 0.115944
         7         6         5        29     9      180.000000       -0.058625         4    ;  uncertainty k = 0.041390
         7         6         5        30     9        0.000000       -2.065110         1    ;  uncertainty k = 0.419468
         7         6         5        30     9      180.000000       -0.158572         2    ;  uncertainty k = 0.106512
         7         6         5        30     9        0.000000        0.592907         3    ;  uncertainty k = 0.115944
         7         6         5        30     9      180.000000       -0.058625         4    ;  uncertainty k = 0.041390
         7         8         9        37     9        0.000000       -2.065110         1    ;  uncertainty k = 0.419468
         7         8         9        37     9      180.000000       -0.158572         2    ;  uncertainty k = 0.106512
         7         8         9        37     9        0.000000        0.592907         3    ;  uncertainty k = 0.115944
         7         8         9        37     9      180.000000       -0.058625         4    ;  uncertainty k = 0.041390
         7         8         9        38     9        0.000000       -2.065110         1    ;  uncertainty k = 0.419468
         7         8         9        38     9      180.000000       -0.158572         2    ;  uncertainty k = 0.106512
         7         8         9        38     9        0.000000        0.592907         3    ;  uncertainty k = 0.115944
         7         8         9        38     9      180.000000       -0.058625         4    ;  uncertainty k = 0.041390
         8         7         6        31     9        0.000000       -1.979013         1    ;  uncertainty k = 0.475575
         8         7         6        31     9      180.000000       -0.219552         2    ;  uncertainty k = 0.116376
         8         7         6        31     9        0.000000        0.575670         3    ;  uncertainty k = 0.105417
         8         7         6        31     9      180.000000       -0.051905         4    ;  uncertainty k = 0.014676
         8         7         6        32     9        0.000000       -1.979013         1    ;  uncertainty k = 0.475575
         8         7         6        32     9      180.000000       -0.219552         2    ;  uncertainty k = 0.116376
         8         7         6        32     9        0.000000        0.575670         3    ;  uncertainty k = 0.105417
         8         7         6        32     9      180.000000       -0.051905         4    ;  uncertainty k = 0.014676
         8         9         4        28     9        0.000000       -2.441010         1    ;  uncertainty k = 0.394227
         8         9         4        28     9      180.000000        0.168377         2    ;  uncertainty k = 0.037109
         8         9         4        28     9        0.000000        0.147084         3    ;  uncertainty k = 0.161746
         8         9         4        28     9      180.000000       -0.164065         4    ;  uncertainty k = 0.097547
         9         4         3        16     9        0.000000       -1.401577         1    ;  uncertainty k = 0.555176
         9         4         3        16     9      180.000000       -1.846835         2    ;  uncertainty k = 0.534491
         9         4         3        16     9        0.000000        1.469365         3    ;  uncertainty k = 0.148457
         9         4         3        16     9      180.000000       -0.236568         4    ;  uncertainty k = 0.117513
         9         4         3        26     9        0.000000       -1.410245         1    ;  uncertainty k = 0.488994
         9         4         3        26     9      180.000000        0.149401         2    ;  uncertainty k = 0.184667
         9         4         3        26     9        0.000000        0.583306         3    ;  uncertainty k = 0.096375
         9         4         3        26     9      180.000000       -0.287185         4    ;  uncertainty k = 0.096275
         9         4         3        27     9        0.000000       -1.410245         1    ;  uncertainty k = 0.488994
         9         4         3        27     9      180.000000        0.149401         2    ;  uncertainty k = 0.184667
         9         4         3        27     9        0.000000        0.583306         3    ;  uncertainty k = 0.096375
         9         4         3        27     9      180.000000       -0.287185         4    ;  uncertainty k = 0.096275
         9         4         5        29     9        0.000000       -1.777372         1    ;  uncertainty k = 0.316771
         9         4         5        29     9      180.000000       -0.204743         2    ;  uncertainty k = 0.095816
         9         4         5        29     9        0.000000        0.391228         3    ;  uncertainty k = 0.135576
         9         4         5        29     9      180.000000       -0.085357         4    ;  uncertainty k = 0.038271
         9         4         5        30     9        0.000000       -1.777372         1    ;  uncertainty k = 0.316771
         9         4         5        30     9      180.000000       -0.204743         2    ;  uncertainty k = 0.095816
         9         4         5        30     9        0.000000        0.391228         3    ;  uncertainty k = 0.135576
         9         4         5        30     9      180.000000       -0.085357         4    ;  uncertainty k = 0.038271
         9         8         7        33     9        0.000000       -2.162965         1    ;  uncertainty k = 0.320424
         9         8         7        33     9      180.000000       -0.102975         2    ;  uncertainty k = 0.120033
         9         8         7        33     9        0.000000        0.610676         3    ;  uncertainty k = 0.139255
         9         8         7        33     9      180.000000       -0.086954         4    ;  uncertainty k = 0.029985
         9         8         7        34     9        0.000000       -2.162965         1    ;  uncertainty k = 0.320424
         9         8         7        34     9      180.000000       -0.102975         2    ;  uncertainty k = 0.120033
         9         8         7        34     9        0.000000        0.610676         3    ;  uncertainty k = 0.139255
         9         8         7        34     9      180.000000       -0.086954         4    ;  uncertainty k = 0.029985
        10        11        12        13     9        0.000000       -0.159877         1    ;  uncertainty k = 0.281475
        10        11        12        13     9      180.000000       14.654109         2    ;  uncertainty k = 0.399928
        10        11        12        13     9        0.000000       -0.999001         3    ;  uncertainty k = 0.393543
        10        11        12        13     9      180.000000        0.714099         4    ;  uncertainty k = 0.228824
        10        11        12        41     9        0.000000       -0.036909         1    ;  uncertainty k = 0.177032
        10        11        12        41     9      180.000000        7.872153         2    ;  uncertainty k = 0.384364
        10        11        12        41     9        0.000000        1.273386         3    ;  uncertainty k = 0.313276
        10        11        12        41     9      180.000000        1.666974         4    ;  uncertainty k = 0.141099
        10        24        23        13     9        0.000000       -0.019291         1    ;  uncertainty k = 0.099448
        10        24        23        13     9      180.000000        9.000491         2    ;  uncertainty k = 0.589367
        10        24        23        13     9        0.000000        0.226324         3    ;  uncertainty k = 0.228160
        10        24        23        13     9      180.000000        1.342329         4    ;  uncertainty k = 0.175533
        10        24        23        22     9        0.000000        0.087670         1    ;  uncertainty k = 0.428559
        10        24        23        22     9      180.000000       10.382061         2    ;  uncertainty k = 0.315529
        10        24        23        22     9        0.000000        1.007849         3    ;  uncertainty k = 0.282011
        10        24        23        22     9      180.000000        1.536559         4    ;  uncertainty k = 0.039686
        10        39        46        47     9        0.000000        0.665070         1    ;  uncertainty k = 0.162217
        10        39        46        47     9      180.000000       -1.445300         2    ;  uncertainty k = 0.170585
        10        39        46        47     9        0.000000        0.941866         3    ;  uncertainty k = 0.041193
        10        39        46        47     9      180.000000        0.282926         4    ;  uncertainty k = 0.046764
        10        39        46        48     9        0.000000        0.665070         1    ;  uncertainty k = 0.162217
        10        39        46        48     9      180.000000       -1.445300         2    ;  uncertainty k = 0.170585
        10        39        46        48     9        0.000000        0.941866         3    ;  uncertainty k = 0.041193
        10        39        46        48     9      180.000000        0.282926         4    ;  uncertainty k = 0.046764
        10        39        46        49     9        0.000000        0.665070         1    ;  uncertainty k = 0.162216
        10        39        46        49     9      180.000000       -1.445300         2    ;  uncertainty k = 0.170585
        10        39        46        49     9        0.000000        0.941866         3    ;  uncertainty k = 0.041193
        10        39        46        49     9      180.000000        0.282926         4    ;  uncertainty k = 0.046764
        11        10        24        23     9        0.000000       -0.061341         1    ;  uncertainty k = 0.189987
        11        10        24        23     9      180.000000        9.114687         2    ;  uncertainty k = 0.533566
        11        10        24        23     9        0.000000        0.164138         3    ;  uncertainty k = 0.389699
        11        10        24        23     9      180.000000        1.256500         4    ;  uncertainty k = 0.348326
        11        10        24        45     9        0.000000        0.316073         1    ;  uncertainty k = 0.380422
        11        10        24        45     9      180.000000        6.344343         2    ;  uncertainty k = 0.444695
        11        10        24        45     9        0.000000        1.511722         3    ;  uncertainty k = 0.303565
        11        10        24        45     9      180.000000        1.648600         4    ;  uncertainty k = 0.079750
        11        10        39        46     9        0.000000        0.556294         1    ;  uncertainty k = 0.469076
        11        10        39        46     9      180.000000        7.675660         2    ;  uncertainty k = 0.053161
        11        10        39        46     9        0.000000        0.691445         3    ;  uncertainty k = 0.082513
        11        10        39        46     9      180.000000        0.281800         4    ;  uncertainty k = 0.040109
        11        12        13        23     9        0.000000       -0.243163         1    ;  uncertainty k = 0.369365
        11        12        13        23     9      180.000000       14.351629         2    ;  uncertainty k = 0.232583
        11        12        13        23     9        0.000000       -0.876324         3    ;  uncertainty k = 0.345939
        11        12        13        23     9      180.000000        0.750074         4    ;  uncertainty k = 0.297102
        11        12        13        42     9        0.000000        0.094681         1    ;  uncertainty k = 0.080244
        11        12        13        42     9      180.000000        8.149149         2    ;  uncertainty k = 0.412471
        11        12        13        42     9        0.000000        1.485025         3    ;  uncertainty k = 0.284375
        11        12        13        42     9      180.000000        1.911412         4    ;  uncertainty k = 0.165842
        12        11        10        24     9        0.000000       -0.119663         1    ;  uncertainty k = 0.131861
        12        11        10        24     9      180.000000        9.363976         2    ;  uncertainty k = 0.506473
        12        11        10        24     9        0.000000        0.056675         3    ;  uncertainty k = 0.433257
        12        11        10        24     9      180.000000        1.205930         4    ;  uncertainty k = 0.286999
        12        11        10        39     9        0.000000       -0.006894         1    ;  uncertainty k = 0.306556
        12        11        10        39     9      180.000000       10.237934         2    ;  uncertainty k = 0.530131
        12        11        10        39     9        0.000000        1.148614         3    ;  uncertainty k = 0.273729
        12        11        10        39     9      180.000000        1.585530         4    ;  uncertainty k = 0.129936
        12        13        23        22     9        0.000000        0.069436         1    ;  uncertainty k = 0.423870
        12        13        23        22     9      180.000000        9.442241         2    ;  uncertainty k = 0.454116
        12        13        23        22     9        0.000000        0.978619         3    ;  uncertainty k = 0.213614
        12        13        23        22     9      180.000000        1.603207         4    ;  uncertainty k = 0.161508
        12        13        23        24     9        0.000000       -0.179824         1    ;  uncertainty k = 0.154172
        12        13        23        24     9      180.000000        9.208099         2    ;  uncertainty k = 0.367078
        12        13        23        24     9        0.000000        0.065091         3    ;  uncertainty k = 0.262778
        12        13        23        24     9      180.000000        1.285699         4    ;  uncertainty k = 0.217423
        13        12        11        40     9        0.000000        0.197418         1    ;  uncertainty k = 0.109839
        13        12        11        40     9      180.000000        7.641265         2    ;  uncertainty k = 0.294436
        13        12        11        40     9        0.000000        1.520242         3    ;  uncertainty k = 0.317993
        13        12        11        40     9      180.000000        1.844019         4    ;  uncertainty k = 0.098602
        13        23        22        44     9        0.000000        2.480339         1    ;  uncertainty k = 0.196497
        13        23        22        44     9      180.000000        4.541014         2    ;  uncertainty k = 0.156786
        13        23        22        44     9        0.000000        0.656599         3    ;  uncertainty k = 0.124278
        13        23        22        44     9      180.000000        0.342329         4    ;  uncertainty k = 0.050105
        13        23        24        45     9        0.000000        0.316572         1    ;  uncertainty k = 0.442240
        13        23        24        45     9      180.000000        6.692385         2    ;  uncertainty k = 0.534304
        13        23        24        45     9        0.000000        1.338229         3    ;  uncertainty k = 0.257489
        13        23        24        45     9      180.000000        1.535343         4    ;  uncertainty k = 0.158274
        14         1        21        20     9        0.000000       -0.569211         1    ;  uncertainty k = 1.198436
        14         1        21        20     9      180.000000       11.705623         2    ;  uncertainty k = 0.201703
        14         1        21        20     9        0.000000        1.549284         3    ;  uncertainty k = 0.327469
        14         1        21        20     9      180.000000        1.034972         4    ;  uncertainty k = 0.274565
        14         1        22        23     9        0.000000        6.129885         1    ;  uncertainty k = 0.647989
        14         1        22        23     9      180.000000       10.425584         2    ;  uncertainty k = 0.128027
        14         1        22        23     9        0.000000        1.034703         3    ;  uncertainty k = 0.178145
        14         1        22        23     9      180.000000       -0.642370         4    ;  uncertainty k = 0.123464
        14         1        22        44     9        0.000000       10.989768         1    ;  uncertainty k = 0.665768
        14         1        22        44     9      180.000000        7.943536         2    ;  uncertainty k = 0.368631
        14         1        22        44     9        0.000000        1.823236         3    ;  uncertainty k = 0.487915
        14         1        22        44     9      180.000000       -0.184907         4    ;  uncertainty k = 0.190157
        14        15        17        18     9        0.000000       -0.731058         1    ;  uncertainty k = 0.864379
        14        15        17        18     9      180.000000        6.125128         2    ;  uncertainty k = 1.039238
        14        15        17        18     9        0.000000        0.476608         3    ;  uncertainty k = 0.307824
        14        15        17        18     9      180.000000        0.809778         4    ;  uncertainty k = 0.340764
        14        15        17        20     9        0.000000       -0.966331         1    ;  uncertainty k = 1.162075
        14        15        17        20     9      180.000000        7.460241         2    ;  uncertainty k = 1.086916
        14        15        17        20     9        0.000000       -1.612651         3    ;  uncertainty k = 0.450811
        14        15        17        20     9      180.000000        0.938826         4    ;  uncertainty k = 0.404342
        15        14         1        21     9        0.000000       -0.669008         1    ;  uncertainty k = 0.721813
        15        14         1        21     9      180.000000        8.795149         2    ;  uncertainty k = 0.627345
        15        14         1        21     9        0.000000        0.717881         3    ;  uncertainty k = 0.557557
        15        14         1        21     9      180.000000        0.880531         4    ;  uncertainty k = 0.186606
        15        14         1        22     9        0.000000        0.229087         1    ;  uncertainty k = 0.688918
        15        14         1        22     9      180.000000        9.277546         2    ;  uncertainty k = 0.439346
        15        14         1        22     9        0.000000        1.567588         3    ;  uncertainty k = 0.412730
        15        14         1        22     9      180.000000        0.940598         4    ;  uncertainty k = 0.318151
        15        16         3        26     9        0.000000        2.789968         1    ;  uncertainty k = 0.641542
        15        16         3        26     9      180.000000       -0.102846         2    ;  uncertainty k = 0.488013
        15        16         3        26     9        0.000000       -0.110985         3    ;  uncertainty k = 0.163330
        15        16         3        26     9      180.000000        0.362110         4    ;  uncertainty k = 0.079581
        15        16         3        27     9        0.000000        2.789968         1    ;  uncertainty k = 0.641542
        15        16         3        27     9      180.000000       -0.102846         2    ;  uncertainty k = 0.488013
        15        16         3        27     9        0.000000       -0.110985         3    ;  uncertainty k = 0.163330
        15        16         3        27     9      180.000000        0.362110         4    ;  uncertainty k = 0.079581
        15        17        20        19     9        0.000000       -0.201800         1    ;  uncertainty k = 1.093354
        15        17        20        19     9      180.000000        5.944362         2    ;  uncertainty k = 0.590805
        15        17        20        19     9        0.000000       -1.126909         3    ;  uncertainty k = 0.876721
        15        17        20        19     9      180.000000        1.089007         4    ;  uncertainty k = 0.496862
        15        17        20        21     9        0.000000       -0.664820         1    ;  uncertainty k = 0.925139
        15        17        20        21     9      180.000000        8.335492         2    ;  uncertainty k = 0.426544
        15        17        20        21     9        0.000000       -0.968838         3    ;  uncertainty k = 0.383142
        15        17        20        21     9      180.000000        1.088374         4    ;  uncertainty k = 0.430231
        16         3         4        28     9        0.000000        0.836449         1    ;  uncertainty k = 0.754872
        16         3         4        28     9      180.000000       -2.904885         2    ;  uncertainty k = 0.496428
        16         3         4        28     9        0.000000        0.974953         3    ;  uncertainty k = 0.324588
        16         3         4        28     9      180.000000        0.006211         4    ;  uncertainty k = 0.094009
        16        15        17        18     9        0.000000       -0.571554         1    ;  uncertainty k = 1.227049
        16        15        17        18     9      180.000000        5.455057         2    ;  uncertainty k = 0.843928
        16        15        17        18     9        0.000000        1.073310         3    ;  uncertainty k = 0.409656
        16        15        17        18     9      180.000000        0.755817         4    ;  uncertainty k = 0.377782
        16        15        17        20     9        0.000000       -0.294054         1    ;  uncertainty k = 0.910090
        16        15        17        20     9      180.000000        6.067322         2    ;  uncertainty k = 0.469502
        16        15        17        20     9        0.000000        0.254823         3    ;  uncertainty k = 0.175682
        16        15        17        20     9      180.000000        0.779851         4    ;  uncertainty k = 0.188373
        17        18         2        19     9        0.000000       -0.251459         1    ;  uncertainty k = 0.772105
        17        18         2        19     9      180.000000       26.332435         2    ;  uncertainty k = 0.164446
        17        18         2        19     9        0.000000       -7.592141         3    ;  uncertainty k = 1.555684
        17        18         2        19     9      180.000000        2.162582         4    ;  uncertainty k = 0.347843
        17        18         2        25     9        0.000000       -0.441891         1    ;  uncertainty k = 0.932204
        17        18         2        25     9      180.000000       19.605513         2    ;  uncertainty k = 0.577464
        17        18         2        25     9        0.000000        1.174875         3    ;  uncertainty k = 0.321243
        17        18         2        25     9      180.000000        1.181780         4    ;  uncertainty k = 0.376203
        17        20        19        43     9        0.000000        5.220849         1    ;  uncertainty k = 2.806861
        17        20        19        43     9      180.000000        7.905035         2    ;  uncertainty k = 1.212591
        17        20        19        43     9        0.000000        0.998820         3    ;  uncertainty k = 0.342826
        17        20        19        43     9      180.000000        0.111169         4    ;  uncertainty k = 0.367643
        18         2        19        20     9        0.000000       -0.294456         1    ;  uncertainty k = 0.809873
        18         2        19        20     9      180.000000       15.938010         2    ;  uncertainty k = 0.725656
        18         2        19        20     9        0.000000       -8.760846         3    ;  uncertainty k = 1.693059
        18         2        19        20     9      180.000000        1.176542         4    ;  uncertainty k = 0.635383
        18         2        19        43     9        0.000000        4.604604         1    ;  uncertainty k = 2.184798
        18         2        19        43     9      180.000000       13.438023         2    ;  uncertainty k = 0.671989
        18         2        19        43     9        0.000000        1.978624         3    ;  uncertainty k = 0.675906
        18         2        19        43     9      180.000000       -0.476904         4    ;  uncertainty k = 0.383926
        18        17        20        19     9        0.000000       -0.119814         1    ;  uncertainty k = 0.866797
        18        17        20        19     9      180.000000       12.283409         2    ;  uncertainty k = 1.047799
        18        17        20        19     9        0.000000       -4.968661         3    ;  uncertainty k = 1.102648
        18        17        20        19     9      180.000000        1.733553         4    ;  uncertainty k = 0.757939
        18        17        20        21     9        0.000000       -0.138727         1    ;  uncertainty k = 1.007199
        18        17        20        21     9      180.000000       10.890369         2    ;  uncertainty k = 0.487032
        18        17        20        21     9        0.000000       -1.550200         3    ;  uncertainty k = 0.500552
        18        17        20        21     9      180.000000        1.331306         4    ;  uncertainty k = 0.391157
        20        19         2        25     9        0.000000        1.548072         1    ;  uncertainty k = 1.691717
        20        19         2        25     9      180.000000        7.211242         2    ;  uncertainty k = 0.764056
        20        19         2        25     9        0.000000        1.238367         3    ;  uncertainty k = 0.228369
        20        19         2        25     9      180.000000        0.084909         4    ;  uncertainty k = 0.180500
        20        21         1        22     9        0.000000        1.205033         1    ;  uncertainty k = 1.114744
        20        21         1        22     9      180.000000       12.786281         2    ;  uncertainty k = 0.667109
        20        21         1        22     9        0.000000        1.778340         3    ;  uncertainty k = 0.661798
        20        21         1        22     9      180.000000        1.268669         4    ;  uncertainty k = 0.399150
        21         1        22        23     9        0.000000        5.579951         1    ;  uncertainty k = 0.324200
        21         1        22        23     9      180.000000        9.899777         2    ;  uncertainty k = 0.293484
        21         1        22        23     9        0.000000        0.850435         3    ;  uncertainty k = 0.237839
        21         1        22        23     9      180.000000       -0.529719         4    ;  uncertainty k = 0.086096
        21         1        22        44     9        0.000000        9.780754         1    ;  uncertainty k = 0.828208
        21         1        22        44     9      180.000000        7.356526         2    ;  uncertainty k = 0.252356
        21         1        22        44     9        0.000000        1.589087         3    ;  uncertainty k = 0.357384
        21         1        22        44     9      180.000000       -0.113173         4    ;  uncertainty k = 0.148399
        21        20        19        43     9        0.000000        5.475291         1    ;  uncertainty k = 1.041200
        21        20        19        43     9      180.000000        3.993478         2    ;  uncertainty k = 0.889662
        21        20        19        43     9        0.000000        1.468016         3    ;  uncertainty k = 0.489444
        21        20        19        43     9      180.000000        0.136727         4    ;  uncertainty k = 0.127968
        22        23        13        42     9        0.000000       -0.141078         1    ;  uncertainty k = 0.382963
        22        23        13        42     9      180.000000        7.977753         2    ;  uncertainty k = 0.270217
        22        23        13        42     9        0.000000        0.887290         3    ;  uncertainty k = 0.199843
        22        23        13        42     9      180.000000        1.023156         4    ;  uncertainty k = 0.042704
        22        23        24        45     9        0.000000       -0.056901         1    ;  uncertainty k = 0.501833
        22        23        24        45     9      180.000000        8.198818         2    ;  uncertainty k = 0.268741
        22        23        24        45     9        0.000000        0.902608         3    ;  uncertainty k = 0.271370
        22        23        24        45     9      180.000000        1.010455         4    ;  uncertainty k = 0.099447
        23        13        12        41     9        0.000000       -0.140389         1    ;  uncertainty k = 0.172385
        23        13        12        41     9      180.000000        7.937574         2    ;  uncertainty k = 0.441305
        23        13        12        41     9        0.000000        1.234844         3    ;  uncertainty k = 0.302218
        23        13        12        41     9      180.000000        1.628101         4    ;  uncertainty k = 0.154384
        23        24        10        39     9        0.000000        0.009065         1    ;  uncertainty k = 0.248213
        23        24        10        39     9      180.000000       10.225292         2    ;  uncertainty k = 0.629172
        23        24        10        39     9        0.000000        1.305057         3    ;  uncertainty k = 0.421205
        23        24        10        39     9      180.000000        1.561341         4    ;  uncertainty k = 0.230958
        24        10        11        40     9        0.000000        0.215059         1    ;  uncertainty k = 0.507776
        24        10        11        40     9      180.000000        6.038678         2    ;  uncertainty k = 0.533622
        24        10        11        40     9        0.000000        1.394311         3    ;  uncertainty k = 0.248033
        24        10        11        40     9      180.000000        1.560513         4    ;  uncertainty k = 0.137279
        24        10        39        46     9        0.000000        0.058240         1    ;  uncertainty k = 0.851899
        24        10        39        46     9      180.000000        7.716522         2    ;  uncertainty k = 0.156411
        24        10        39        46     9        0.000000        0.466716         3    ;  uncertainty k = 0.258199
        24        10        39        46     9      180.000000        0.294291         4    ;  uncertainty k = 0.086894
        24        23        13        42     9        0.000000        0.220056         1    ;  uncertainty k = 0.367617
        24        23        13        42     9      180.000000        6.636965         2    ;  uncertainty k = 0.726924
        24        23        13        42     9        0.000000        1.339519         3    ;  uncertainty k = 0.292455
        24        23        13        42     9      180.000000        1.551558         4    ;  uncertainty k = 0.127438
        24        23        22        44     9        0.000000        4.196929         1    ;  uncertainty k = 0.311949
        24        23        22        44     9      180.000000        4.492469         2    ;  uncertainty k = 0.272898
        24        23        22        44     9        0.000000        0.743251         3    ;  uncertainty k = 0.105963
        24        23        22        44     9      180.000000        0.347103         4    ;  uncertainty k = 0.098511
        25         2        19        43     9        0.000000       -1.075218         1    ;  uncertainty k = 1.539051
        25         2        19        43     9      180.000000        1.573146         2    ;  uncertainty k = 0.351370
        25         2        19        43     9        0.000000        1.047946         3    ;  uncertainty k = 0.426121
        25         2        19        43     9      180.000000        0.027943         4    ;  uncertainty k = 0.247597
        26         3         4        28     9        0.000000        0.575094         1    ;  uncertainty k = 0.340548
        26         3         4        28     9      180.000000       -0.369163         2    ;  uncertainty k = 0.323255
        26         3         4        28     9        0.000000       -0.053194         3    ;  uncertainty k = 0.111182
        26         3         4        28     9      180.000000       -0.140807         4    ;  uncertainty k = 0.050348
        27         3         4        28     9        0.000000        0.575094         1    ;  uncertainty k = 0.340548
        27         3         4        28     9      180.000000       -0.369163         2    ;  uncertainty k = 0.323255
        27         3         4        28     9        0.000000       -0.053194         3    ;  uncertainty k = 0.111182
        27         3         4        28     9      180.000000       -0.140807         4    ;  uncertainty k = 0.050348
        28         4         5        29     9        0.000000        1.964323         1    ;  uncertainty k = 0.351664
        28         4         5        29     9      180.000000       -0.244446         2    ;  uncertainty k = 0.102497
        28         4         5        29     9        0.000000       -0.215725         3    ;  uncertainty k = 0.065198
        28         4         5        29     9      180.000000        0.079359         4    ;  uncertainty k = 0.074606
        28         4         5        30     9        0.000000        1.964323         1    ;  uncertainty k = 0.351664
        28         4         5        30     9      180.000000       -0.244446         2    ;  uncertainty k = 0.102497
        28         4         5        30     9        0.000000       -0.215725         3    ;  uncertainty k = 0.065198
        28         4         5        30     9      180.000000        0.079359         4    ;  uncertainty k = 0.074606
        28         4         9        37     9        0.000000        1.964323         1    ;  uncertainty k = 0.351664
        28         4         9        37     9      180.000000       -0.244446         2    ;  uncertainty k = 0.102497
        28         4         9        37     9        0.000000       -0.215725         3    ;  uncertainty k = 0.065198
        28         4         9        37     9      180.000000        0.079359         4    ;  uncertainty k = 0.074606
        28         4         9        38     9        0.000000        1.964323         1    ;  uncertainty k = 0.351664
        28         4         9        38     9      180.000000       -0.244446         2    ;  uncertainty k = 0.102497
        28         4         9        38     9        0.000000       -0.215725         3    ;  uncertainty k = 0.065198
        28         4         9        38     9      180.000000        0.079359         4    ;  uncertainty k = 0.074606
        29         5         6        31     9        0.000000        2.637306         1    ;  uncertainty k = 0.495157
        29         5         6        31     9      180.000000       -0.245820         2    ;  uncertainty k = 0.127404
        29         5         6        31     9        0.000000        0.285027         3    ;  uncertainty k = 0.084986
        29         5         6        31     9      180.000000        0.124395         4    ;  uncertainty k = 0.052420
        29         5         6        32     9        0.000000        2.637306         1    ;  uncertainty k = 0.495157
        29         5         6        32     9      180.000000       -0.245820         2    ;  uncertainty k = 0.127404
        29         5         6        32     9        0.000000        0.285027         3    ;  uncertainty k = 0.084986
        29         5         6        32     9      180.000000        0.124395         4    ;  uncertainty k = 0.052420
        30         5         6        31     9        0.000000        2.637306         1    ;  uncertainty k = 0.495157
        30         5         6        31     9      180.000000       -0.245820         2    ;  uncertainty k = 0.127404
        30         5         6        31     9        0.000000        0.285027         3    ;  uncertainty k = 0.084986
        30         5         6        31     9      180.000000        0.124395         4    ;  uncertainty k = 0.052420
        30         5         6        32     9        0.000000        2.637306         1    ;  uncertainty k = 0.495157
        30         5         6        32     9      180.000000       -0.245820         2    ;  uncertainty k = 0.127404
        30         5         6        32     9        0.000000        0.285027         3    ;  uncertainty k = 0.084986
        30         5         6        32     9      180.000000        0.124395         4    ;  uncertainty k = 0.052420
        31         6         7        33     9        0.000000        2.708906         1    ;  uncertainty k = 0.481339
        31         6         7        33     9      180.000000       -0.259314         2    ;  uncertainty k = 0.129327
        31         6         7        33     9        0.000000        0.271004         3    ;  uncertainty k = 0.083131
        31         6         7        33     9      180.000000        0.111025         4    ;  uncertainty k = 0.048932
        31         6         7        34     9        0.000000        2.708906         1    ;  uncertainty k = 0.481339
        31         6         7        34     9      180.000000       -0.259314         2    ;  uncertainty k = 0.129327
        31         6         7        34     9        0.000000        0.271004         3    ;  uncertainty k = 0.083131
        31         6         7        34     9      180.000000        0.111025         4    ;  uncertainty k = 0.048932
        32         6         7        33     9        0.000000        2.708906         1    ;  uncertainty k = 0.481339
        32         6         7        33     9      180.000000       -0.259314         2    ;  uncertainty k = 0.129327
        32         6         7        33     9        0.000000        0.271004         3    ;  uncertainty k = 0.083131
        32         6         7        33     9      180.000000        0.111025         4    ;  uncertainty k = 0.048932
        32         6         7        34     9        0.000000        2.708906         1    ;  uncertainty k = 0.481339
        32         6         7        34     9      180.000000       -0.259314         2    ;  uncertainty k = 0.129327
        32         6         7        34     9        0.000000        0.271004         3    ;  uncertainty k = 0.083131
        32         6         7        34     9      180.000000        0.111025         4    ;  uncertainty k = 0.048932
        33         7         8        35     9        0.000000        2.708906         1    ;  uncertainty k = 0.481339
        33         7         8        35     9      180.000000       -0.259314         2    ;  uncertainty k = 0.129327
        33         7         8        35     9        0.000000        0.271004         3    ;  uncertainty k = 0.083131
        33         7         8        35     9      180.000000        0.111025         4    ;  uncertainty k = 0.048932
        33         7         8        36     9        0.000000        2.708906         1    ;  uncertainty k = 0.481339
        33         7         8        36     9      180.000000       -0.259314         2    ;  uncertainty k = 0.129327
        33         7         8        36     9        0.000000        0.271004         3    ;  uncertainty k = 0.083131
        33         7         8        36     9      180.000000        0.111025         4    ;  uncertainty k = 0.048932
        34         7         8        35     9        0.000000        2.708906         1    ;  uncertainty k = 0.481339
        34         7         8        35     9      180.000000       -0.259314         2    ;  uncertainty k = 0.129327
        34         7         8        35     9        0.000000        0.271004         3    ;  uncertainty k = 0.083131
        34         7         8        35     9      180.000000        0.111025         4    ;  uncertainty k = 0.048932
        34         7         8        36     9        0.000000        2.708906         1    ;  uncertainty k = 0.481339
        34         7         8        36     9      180.000000       -0.259314         2    ;  uncertainty k = 0.129327
        34         7         8        36     9        0.000000        0.271004         3    ;  uncertainty k = 0.083131
        34         7         8        36     9      180.000000        0.111025         4    ;  uncertainty k = 0.048932
        35         8         9        37     9        0.000000        2.637306         1    ;  uncertainty k = 0.495157
        35         8         9        37     9      180.000000       -0.245820         2    ;  uncertainty k = 0.127404
        35         8         9        37     9        0.000000        0.285027         3    ;  uncertainty k = 0.084986
        35         8         9        37     9      180.000000        0.124395         4    ;  uncertainty k = 0.052420
        35         8         9        38     9        0.000000        2.637306         1    ;  uncertainty k = 0.495157
        35         8         9        38     9      180.000000       -0.245820         2    ;  uncertainty k = 0.127404
        35         8         9        38     9        0.000000        0.285027         3    ;  uncertainty k = 0.084986
        35         8         9        38     9      180.000000        0.124395         4    ;  uncertainty k = 0.052420
        36         8         9        37     9        0.000000        2.637306         1    ;  uncertainty k = 0.495157
        36         8         9        37     9      180.000000       -0.245820         2    ;  uncertainty k = 0.127404
        36         8         9        37     9        0.000000        0.285027         3    ;  uncertainty k = 0.084986
        36         8         9        37     9      180.000000        0.124395         4    ;  uncertainty k = 0.052420
        36         8         9        38     9        0.000000        2.637306         1    ;  uncertainty k = 0.495157
        36         8         9        38     9      180.000000       -0.245820         2    ;  uncertainty k = 0.127404
        36         8         9        38     9        0.000000        0.285027         3    ;  uncertainty k = 0.084986
        36         8         9        38     9      180.000000        0.124395         4    ;  uncertainty k = 0.052420
        39        10        11        40     9        0.000000       -0.112804         1    ;  uncertainty k = 0.136518
        39        10        11        40     9      180.000000        8.158843         2    ;  uncertainty k = 0.277675
        39        10        11        40     9        0.000000        0.691047         3    ;  uncertainty k = 0.134647
        39        10        11        40     9      180.000000        0.954372         4    ;  uncertainty k = 0.178581
        39        10        24        45     9        0.000000       -0.053860         1    ;  uncertainty k = 0.169383
        39        10        24        45     9      180.000000        8.595932         2    ;  uncertainty k = 0.314693
        39        10        24        45     9        0.000000        0.770830         3    ;  uncertainty k = 0.110671
        39        10        24        45     9      180.000000        1.103127         4    ;  uncertainty k = 0.083371
        40        11        12        41     9        0.000000       -0.080782         1    ;  uncertainty k = 0.157874
        40        11        12        41     9      180.000000        7.347827         2    ;  uncertainty k = 0.438158
        40        11        12        41     9        0.000000       -0.346603         3    ;  uncertainty k = 0.246797
        40        11        12        41     9      180.000000        0.094910         4    ;  uncertainty k = 0.151725
        41        12        13        42     9        0.000000       -0.133358         1    ;  uncertainty k = 0.343043
        41        12        13        42     9      180.000000        7.650362         2    ;  uncertainty k = 0.433872
        41        12        13        42     9        0.000000       -0.383401         3    ;  uncertainty k = 0.305201
        41        12        13        42     9      180.000000        0.207584         4    ;  uncertainty k = 0.146518

[ dihedrals ] ; impropers
;       ai        aj        ak        al funct           phase               k        pn
         1        14        21        22     4      180.000000       42.401822         2    ;  uncertainty k = 0.110120
         1        21        22        14     4      180.000000       42.401822         2    ;  uncertainty k = 0.110120
         1        22        14        21     4      180.000000       42.401822         2    ;  uncertainty k = 0.110120
         2        18        19        25     4      180.000000        5.131234         2    ;  uncertainty k = 0.308430
         2        19        25        18     4      180.000000        5.131234         2    ;  uncertainty k = 0.308430
         2        25        18        19     4      180.000000        5.131234         2    ;  uncertainty k = 0.308430
        10        11        24        39     4      180.000000       20.336686         2    ;  uncertainty k = 0.111851
        10        24        39        11     4      180.000000       20.336686         2    ;  uncertainty k = 0.111851
        10        39        11        24     4      180.000000       20.336686         2    ;  uncertainty k = 0.111851
        11        10        12        40     4      180.000000        1.471548         2    ;  uncertainty k = 0.731261
        11        12        40        10     4      180.000000        1.471548         2    ;  uncertainty k = 0.731261
        11        40        10        12     4      180.000000        1.471548         2    ;  uncertainty k = 0.731261
        12        11        13        41     4      180.000000        4.669331         2    ;  uncertainty k = 0.179877
        12        13        41        11     4      180.000000        4.669331         2    ;  uncertainty k = 0.179877
        12        41        11        13     4      180.000000        4.669331         2    ;  uncertainty k = 0.179877
        13        12        23        42     4      180.000000        2.395290         2    ;  uncertainty k = 0.421039
        13        23        42        12     4      180.000000        2.395290         2    ;  uncertainty k = 0.421039
        13        42        12        23     4      180.000000        2.395290         2    ;  uncertainty k = 0.421039
        15        14        16        17     4      180.000000       31.628471         2    ;  uncertainty k = 0.047312
        15        16        17        14     4      180.000000       31.628471         2    ;  uncertainty k = 0.047312
        15        17        14        16     4      180.000000       31.628471         2    ;  uncertainty k = 0.047312
        20        17        19        21     4      180.000000        9.434930         2    ;  uncertainty k = 0.065995
        20        19        21        17     4      180.000000        9.434930         2    ;  uncertainty k = 0.065995
        20        21        17        19     4      180.000000        9.434930         2    ;  uncertainty k = 0.065995
        22         1        23        44     4      180.000000        0.917820         2    ;  uncertainty k = 0.555102
        22        23        44         1     4      180.000000        0.917820         2    ;  uncertainty k = 0.555102
        22        44         1        23     4      180.000000        0.917820         2    ;  uncertainty k = 0.555102
        23        13        22        24     4      180.000000       20.511272         2    ;  uncertainty k = 0.065021
        23        22        24        13     4      180.000000       20.511272         2    ;  uncertainty k = 0.065021
        23        24        13        22     4      180.000000       20.511272         2    ;  uncertainty k = 0.065021
        24        10        23        45     4      180.000000        1.967538         2    ;  uncertainty k = 0.421286
        24        23        45        10     4      180.000000        1.967538         2    ;  uncertainty k = 0.421286
        24        45        10        23     4      180.000000        1.967538         2    ;  uncertainty k = 0.421286

[ pairs ]
;       ai        aj funct
         1        13     1
         1        16     1
         1        17     1
         1        19     1
         1        24     1
         2        15     1
         2        21     1
         3         6     1
         3         8     1
         3        14     1
         3        17     1
         3        29     1
         3        30     1
         3        37     1
         3        38     1
         4         7     1
         4        15     1
         4        31     1
         4        32     1
         4        35     1
         4        36     1
         5         8     1
         5        16     1
         5        26     1
         5        27     1
         5        33     1
         5        34     1
         5        37     1
         5        38     1
         6         9     1
         6        28     1
         6        35     1
         6        36     1
         7        29     1
         7        30     1
         7        37     1
         7        38     1
         8        28     1
         8        31     1
         8        32     1
         9        16     1
         9        26     1
         9        27     1
         9        29     1
         9        30     1
         9        33     1
         9        34     1
        10        13     1
        10        22     1
        10        41     1
        10        47     1
        10        48     1
        10        49     1
        11        23     1
        11        42     1
        11        45     1
        11        46     1
        12        22     1
        12        24     1
        12        39     1
        13        40     1
        13        44     1
        13        45     1
        14        18     1
        14        20     1
        14        23     1
        14        44     1
        15        19     1
        15        21     1
        15        22     1
        15        26     1
        15        27     1
        16        18     1
        16        20     1
        16        28     1
        17        25     1
        17        43     1
        18        21     1
        18        43     1
        20        22     1
        20        25     1
        21        23     1
        21        43     1
        21        44     1
        22        42     1
        22        45     1
        23        39     1
        23        41     1
        24        40     1
        24        42     1
        24        44     1
        24        46     1
        25        43     1
        26        28     1
        27        28     1
        28        29     1
        28        30     1
        28        37     1
        28        38     1
        29        31     1
        29        32     1
        30        31     1
        30        32     1
        31        33     1
        31        34     1
        32        33     1
        32        34     1
        33        35     1
        33        36     1
        34        35     1
        34        36     1
        35        37     1
        35        38     1
        36        37     1
        36        38     1
        39        40     1
        39        45     1
        40        41     1
        41        42     1
