; ITP file created by ByteFF-joint-25, 2026-02-18 03:10:33.802291

[ atomtypes ]
;name           bonded.type        at.num        mass        charge   ptype           sigma         epsilon
 c0bf                                   6      0.0000       0.00000       A     3.31532e-01     4.13480e-01    ;  uncertainty sigma = 0.000015, epsilon = 0.000570
 c1bf                                   6      0.0000       0.00000       A     3.31515e-01     4.13133e-01    ;  uncertainty sigma = 0.000010, epsilon = 0.000674
 c2bf                                   6      0.0000       0.00000       A     3.39746e-01     4.50473e-01    ;  uncertainty sigma = 0.000018, epsilon = 0.001024
 c3bf                                   6      0.0000       0.00000       A     3.39768e-01     4.51022e-01    ;  uncertainty sigma = 0.000006, epsilon = 0.000645
 c4bf                                   6      0.0000       0.00000       A     3.39777e-01     4.50895e-01    ;  uncertainty sigma = 0.000002, epsilon = 0.000606
 c5bf                                   6      0.0000       0.00000       A     3.39768e-01     4.50841e-01    ;  uncertainty sigma = 0.000004, epsilon = 0.000577
 c6bf                                   6      0.0000       0.00000       A     3.39768e-01     4.50847e-01    ;  uncertainty sigma = 0.000004, epsilon = 0.000550
 c7bf                                   6      0.0000       0.00000       A     3.39768e-01     4.50841e-01    ;  uncertainty sigma = 0.000004, epsilon = 0.000577
 c8bf                                   6      0.0000       0.00000       A     3.39777e-01     4.50895e-01    ;  uncertainty sigma = 0.000002, epsilon = 0.000606
 c9bf                                   6      0.0000       0.00000       A     3.31535e-01     4.13465e-01    ;  uncertainty sigma = 0.000009, epsilon = 0.000599
 c10bf                                  6      0.0000       0.00000       A     3.31475e-01     4.13237e-01    ;  uncertainty sigma = 0.000017, epsilon = 0.001368
 c11bf                                  6      0.0000       0.00000       A     3.31535e-01     4.13465e-01    ;  uncertainty sigma = 0.000009, epsilon = 0.000599
 c12bf                                  6      0.0000       0.00000       A     3.31512e-01     4.13808e-01    ;  uncertainty sigma = 0.000005, epsilon = 0.000472
 n13bf                                  7      0.0000       0.00000       A     3.38454e-01     3.93128e-01    ;  uncertainty sigma = 0.000014, epsilon = 0.001611
 c14bf                                  6      0.0000       0.00000       A     3.31555e-01     4.13691e-01    ;  uncertainty sigma = 0.000019, epsilon = 0.001615
 o15bf                                  8      0.0000       0.00000       A     3.15563e-01     3.02719e-01    ;  uncertainty sigma = 0.000043, epsilon = 0.000667
 c16bf                                  6      0.0000       0.00000       A     3.31535e-01     4.13137e-01    ;  uncertainty sigma = 0.000017, epsilon = 0.001511
 n17bf                                  7      0.0000       0.00000       A     3.38417e-01     3.93071e-01    ;  uncertainty sigma = 0.000022, epsilon = 0.000674
 n18bf                                  7      0.0000       0.00000       A     3.20668e-01     8.53150e-01    ;  uncertainty sigma = 0.000013, epsilon = 0.002761
 c19bf                                  6      0.0000       0.00000       A     3.31502e-01     4.13357e-01    ;  uncertainty sigma = 0.000016, epsilon = 0.001431
 n20bf                                  7      0.0000       0.00000       A     3.38400e-01     3.93907e-01    ;  uncertainty sigma = 0.000032, epsilon = 0.000830
 n21bf                                  7      0.0000       0.00000       A     3.27836e-01     6.46861e-01    ;  uncertainty sigma = 0.000029, epsilon = 0.002678
 c22bf                                  6      0.0000       0.00000       A     3.31558e-01     4.12554e-01    ;  uncertainty sigma = 0.000015, epsilon = 0.000648
 c23bf                                  6      0.0000       0.00000       A     3.31512e-01     4.13808e-01    ;  uncertainty sigma = 0.000005, epsilon = 0.000472
 h24bf                                  1      0.0000       0.00000       A     2.44744e-01     6.72455e-02    ;  uncertainty sigma = 0.000032, epsilon = 0.000726
 h25bf                                  1      0.0000       0.00000       A     2.42151e-01     8.65744e-02    ;  uncertainty sigma = 0.000032, epsilon = 0.000680
 h26bf                                  1      0.0000       0.00000       A     2.42151e-01     8.65744e-02    ;  uncertainty sigma = 0.000032, epsilon = 0.000680
 h27bf                                  1      0.0000       0.00000       A     2.60029e-01     8.68866e-02    ;  uncertainty sigma = 0.000020, epsilon = 0.001012
 h28bf                                  1      0.0000       0.00000       A     2.60022e-01     8.68135e-02    ;  uncertainty sigma = 0.000005, epsilon = 0.000610
 h29bf                                  1      0.0000       0.00000       A     2.60022e-01     8.68135e-02    ;  uncertainty sigma = 0.000005, epsilon = 0.000610
 h30bf                                  1      0.0000       0.00000       A     2.60037e-01     8.67480e-02    ;  uncertainty sigma = 0.000010, epsilon = 0.000549
 h31bf                                  1      0.0000       0.00000       A     2.60037e-01     8.67480e-02    ;  uncertainty sigma = 0.000010, epsilon = 0.000549
 h32bf                                  1      0.0000       0.00000       A     2.60038e-01     8.68003e-02    ;  uncertainty sigma = 0.000010, epsilon = 0.000496
 h33bf                                  1      0.0000       0.00000       A     2.60038e-01     8.68003e-02    ;  uncertainty sigma = 0.000010, epsilon = 0.000496
 h34bf                                  1      0.0000       0.00000       A     2.60037e-01     8.67480e-02    ;  uncertainty sigma = 0.000010, epsilon = 0.000549
 h35bf                                  1      0.0000       0.00000       A     2.60037e-01     8.67480e-02    ;  uncertainty sigma = 0.000010, epsilon = 0.000549
 h36bf                                  1      0.0000       0.00000       A     2.60022e-01     8.68135e-02    ;  uncertainty sigma = 0.000005, epsilon = 0.000610
 h37bf                                  1      0.0000       0.00000       A     2.60022e-01     8.68135e-02    ;  uncertainty sigma = 0.000005, epsilon = 0.000610
 h38bf                                  1      0.0000       0.00000       A     2.62551e-01     6.69196e-02    ;  uncertainty sigma = 0.000025, epsilon = 0.000608
 h39bf                                  1      0.0000       0.00000       A     2.62551e-01     6.69196e-02    ;  uncertainty sigma = 0.000025, epsilon = 0.000608
 h40bf                                  1      0.0000       0.00000       A     2.62554e-01     6.70279e-02    ;  uncertainty sigma = 0.000012, epsilon = 0.000408
 h41bf                                  1      0.0000       0.00000       A     1.10659e-01     4.13535e-02    ;  uncertainty sigma = 0.000077, epsilon = 0.001060
 h42bf                                  1      0.0000       0.00000       A     1.10636e-01     4.13049e-02    ;  uncertainty sigma = 0.000070, epsilon = 0.000395
 h43bf                                  1      0.0000       0.00000       A     2.62554e-01     6.70279e-02    ;  uncertainty sigma = 0.000012, epsilon = 0.000408
 s44bf                                 16      0.0000       0.00000       A     3.53207e-01     1.18043e+00    ;  uncertainty sigma = 0.000030, epsilon = 0.003619
 o45bf                                  8      0.0000       0.00000       A     3.04839e-01     6.10576e-01    ;  uncertainty sigma = 0.000048, epsilon = 0.002041
 h46bf                                  1      0.0000       0.00000       A     2.42175e-01     8.66570e-02    ;  uncertainty sigma = 0.000037, epsilon = 0.001092
 h47bf                                  1      0.0000       0.00000       A     2.42175e-01     8.66570e-02    ;  uncertainty sigma = 0.000037, epsilon = 0.001092
 c48bf                                  6      0.0000       0.00000       A     3.39767e-01     4.51925e-01    ;  uncertainty sigma = 0.000017, epsilon = 0.001545
 h49bf                                  1      0.0000       0.00000       A     2.42175e-01     8.66571e-02    ;  uncertainty sigma = 0.000037, epsilon = 0.001092

[ moleculetype ]
;name             nrexcl
 MOL                   3

[ atoms ]
;       nr            type      resi   res      atom      cgnr      charge          mass ; qtot
         1            c0bf         1   UNL        c0         1     0.95606       12.0110 ; qtot    0.956
         2            c1bf         1   UNL        c1         2     0.41068       12.0110 ; qtot    1.367
         3            c2bf         1   UNL        c2         3     0.14743       12.0110 ; qtot    1.514
         4            c3bf         1   UNL        c3         4    -0.07357       12.0110 ; qtot    1.441
         5            c4bf         1   UNL        c4         5    -0.07055       12.0110 ; qtot    1.370
         6            c5bf         1   UNL        c5         6    -0.07454       12.0110 ; qtot    1.296
         7            c6bf         1   UNL        c6         7    -0.07568       12.0110 ; qtot    1.220
         8            c7bf         1   UNL        c7         8    -0.07454       12.0110 ; qtot    1.145
         9            c8bf         1   UNL        c8         9    -0.07055       12.0110 ; qtot    1.075
        10            c9bf         1   UNL        c9        10    -0.03971       12.0110 ; qtot    1.035
        11           c10bf         1   UNL       c10        11    -0.08388       12.0110 ; qtot    0.951
        12           c11bf         1   UNL       c11        12    -0.03971       12.0110 ; qtot    0.911
        13           c12bf         1   UNL       c12        13    -0.18359       12.0110 ; qtot    0.728
        14           n13bf         1   UNL       n13        14    -0.85541       14.0070 ; qtot   -0.128
        15           c14bf         1   UNL       c14        15     0.76711       12.0110 ; qtot    0.640
        16           o15bf         1   UNL       o15        16    -0.41736       15.9990 ; qtot    0.222
        17           c16bf         1   UNL       c16        17    -0.22388       12.0110 ; qtot   -0.002
        18           n17bf         1   UNL       n17        18    -0.51902       14.0070 ; qtot   -0.521
        19           n18bf         1   UNL       n18        19    -0.38521       14.0070 ; qtot   -0.906
        20           c19bf         1   UNL       c19        20     0.49592       12.0110 ; qtot   -0.410
        21           n20bf         1   UNL       n20        21    -0.78034       14.0070 ; qtot   -1.190
        22           n21bf         1   UNL       n21        22    -0.74195       14.0070 ; qtot   -1.932
        23           c22bf         1   UNL       c22        23     0.21390       12.0110 ; qtot   -1.718
        24           c23bf         1   UNL       c23        24    -0.18359       12.0110 ; qtot   -1.902
        25           h24bf         1   UNL       h24        25     0.07138        1.0080 ; qtot   -1.831
        26           h25bf         1   UNL       h25        26     0.05737        1.0080 ; qtot   -1.773
        27           h26bf         1   UNL       h26        27     0.05737        1.0080 ; qtot   -1.716
        28           h27bf         1   UNL       h27        28     0.05674        1.0080 ; qtot   -1.659
        29           h28bf         1   UNL       h28        29     0.04108        1.0080 ; qtot   -1.618
        30           h29bf         1   UNL       h29        30     0.04108        1.0080 ; qtot   -1.577
        31           h30bf         1   UNL       h30        31     0.03886        1.0080 ; qtot   -1.538
        32           h31bf         1   UNL       h31        32     0.03886        1.0080 ; qtot   -1.499
        33           h32bf         1   UNL       h32        33     0.03826        1.0080 ; qtot   -1.461
        34           h33bf         1   UNL       h33        34     0.03826        1.0080 ; qtot   -1.423
        35           h34bf         1   UNL       h34        35     0.03886        1.0080 ; qtot   -1.384
        36           h35bf         1   UNL       h35        36     0.03886        1.0080 ; qtot   -1.345
        37           h36bf         1   UNL       h36        37     0.04108        1.0080 ; qtot   -1.304
        38           h37bf         1   UNL       h37        38     0.04108        1.0080 ; qtot   -1.263
        39           h38bf         1   UNL       h38        39     0.14781        1.0080 ; qtot   -1.115
        40           h39bf         1   UNL       h39        40     0.14781        1.0080 ; qtot   -0.967
        41           h40bf         1   UNL       h40        41     0.15346        1.0080 ; qtot   -0.814
        42           h41bf         1   UNL       h41        42     0.32141        1.0080 ; qtot   -0.492
        43           h42bf         1   UNL       h42        43     0.45610        1.0080 ; qtot   -0.036
        44           h43bf         1   UNL       h43        44     0.15346        1.0080 ; qtot    0.117
        45           s44bf         1   UNL       s44        45     0.15982       32.0670 ; qtot    0.277
        46           o45bf         1   UNL       o45        46    -0.47436       15.9990 ; qtot   -0.197
        47           h46bf         1   UNL       h46        47     0.07769        1.0080 ; qtot   -0.120
        48           h47bf         1   UNL       h47        48     0.07769        1.0080 ; qtot   -0.042
        49           c48bf         1   UNL       c48        49    -0.03573       12.0110 ; qtot   -0.078
        50           h49bf         1   UNL       h49        50     0.07768        1.0080 ; qtot   -0.000

[ bonds ]
;       ai        aj funct               r               k
         1        14     1        0.137692   563792.212402    ;  uncertainty r = 0.000197, k = 15.011635
         1        21     1        0.135717   497270.596191    ;  uncertainty r = 0.000139, k = 6.796764
         1        22     1        0.140053   571219.272070    ;  uncertainty r = 0.000232, k = 15.254021
         2        18     1        0.131489   458656.699219    ;  uncertainty r = 0.000037, k = 5.835382
         2        19     1        0.139342   329079.414355    ;  uncertainty r = 0.000043, k = 9.668559
         2        25     1        0.108332   339946.501416    ;  uncertainty r = 0.000011, k = 1.564861
         3         4     1        0.152057   199736.687842    ;  uncertainty r = 0.000061, k = 5.790512
         3        16     1        0.143315   239169.610986    ;  uncertainty r = 0.000097, k = 7.333188
         3        26     1        0.109496   307818.647168    ;  uncertainty r = 0.000046, k = 1.114744
         3        27     1        0.109496   307818.647168    ;  uncertainty r = 0.000046, k = 1.114744
         4         5     1        0.153587   205328.599756    ;  uncertainty r = 0.000046, k = 2.392583
         4         9     1        0.153587   205328.599756    ;  uncertainty r = 0.000046, k = 2.392583
         4        28     1        0.109837   304071.280664    ;  uncertainty r = 0.000031, k = 1.439771
         5         6     1        0.153586   210762.322046    ;  uncertainty r = 0.000027, k = 3.760745
         5        29     1        0.109775   307348.917578    ;  uncertainty r = 0.000003, k = 1.364875
         5        30     1        0.109775   307348.917578    ;  uncertainty r = 0.000003, k = 1.364875
         6         7     1        0.153619   211447.099634    ;  uncertainty r = 0.000025, k = 2.144177
         6        31     1        0.109778   306677.214990    ;  uncertainty r = 0.000007, k = 1.120477
         6        32     1        0.109778   306677.214990    ;  uncertainty r = 0.000007, k = 1.120477
         7         8     1        0.153619   211447.099634    ;  uncertainty r = 0.000025, k = 2.144177
         7        33     1        0.109791   306489.006494    ;  uncertainty r = 0.000014, k = 1.016736
         7        34     1        0.109791   306489.006494    ;  uncertainty r = 0.000014, k = 1.016736
         8         9     1        0.153586   210762.322046    ;  uncertainty r = 0.000027, k = 3.760745
         8        35     1        0.109778   306677.214990    ;  uncertainty r = 0.000007, k = 1.120477
         8        36     1        0.109778   306677.214990    ;  uncertainty r = 0.000007, k = 1.120477
         9        37     1        0.109775   307348.917578    ;  uncertainty r = 0.000003, k = 1.364875
         9        38     1        0.109775   307348.917578    ;  uncertainty r = 0.000003, k = 1.364875
        10        11     1        0.139506   360777.938721    ;  uncertainty r = 0.000039, k = 6.889340
        10        24     1        0.138954   360525.708691    ;  uncertainty r = 0.000076, k = 3.264420
        10        39     1        0.108731   330337.193604    ;  uncertainty r = 0.000036, k = 2.063398
        11        12     1        0.139506   360777.938721    ;  uncertainty r = 0.000039, k = 6.889340
        11        45     1        0.181934   129068.164282    ;  uncertainty r = 0.000096, k = 17.139464
        12        13     1        0.138954   360525.708691    ;  uncertainty r = 0.000076, k = 3.264420
        12        40     1        0.108731   330337.193604    ;  uncertainty r = 0.000036, k = 2.063398
        13        23     1        0.140333   355112.633154    ;  uncertainty r = 0.000064, k = 3.543210
        13        41     1        0.108792   336217.521631    ;  uncertainty r = 0.000061, k = 1.861872
        14        15     1        0.133977   398017.785986    ;  uncertainty r = 0.000160, k = 21.625405
        15        16     1        0.133486   312483.919531    ;  uncertainty r = 0.000114, k = 9.032125
        15        17     1        0.140565   391002.895264    ;  uncertainty r = 0.000249, k = 16.686578
        17        18     1        0.138948   295428.858887    ;  uncertainty r = 0.000129, k = 8.760058
        17        20     1        0.141391   511113.445996    ;  uncertainty r = 0.000118, k = 11.674714
        19        20     1        0.138394   420661.438721    ;  uncertainty r = 0.000137, k = 16.534878
        19        42     1        0.101710   428654.783789    ;  uncertainty r = 0.000066, k = 2.300302
        20        21     1        0.134317   482282.713477    ;  uncertainty r = 0.000062, k = 12.474368
        22        23     1        0.140400   341221.594824    ;  uncertainty r = 0.000084, k = 11.057584
        22        43     1        0.102387   457968.218750    ;  uncertainty r = 0.000065, k = 9.117316
        23        24     1        0.140333   355112.633154    ;  uncertainty r = 0.000064, k = 3.543210
        24        44     1        0.108792   336217.521631    ;  uncertainty r = 0.000061, k = 1.861872
        45        46     1        0.151791   580666.010645    ;  uncertainty r = 0.000040, k = 12.269486
        45        49     1        0.184110   155038.817163    ;  uncertainty r = 0.000089, k = 13.518857
        47        49     1        0.109392   317260.431543    ;  uncertainty r = 0.000013, k = 3.730854
        48        49     1        0.109392   317260.431543    ;  uncertainty r = 0.000013, k = 3.730854
        49        50     1        0.109392   317260.431543    ;  uncertainty r = 0.000013, k = 3.730854

[ angles ]
;       ai        aj        ak funct           theta             cth
         1        14        15     1      126.742821      406.753291    ;  uncertainty theta = 0.002818, k = 0.376100
         1        21        20     1      109.784683      447.969004    ;  uncertainty theta = 0.006143, k = 0.312790
         1        22        23     1      116.111633      382.351561    ;  uncertainty theta = 0.002788, k = 0.123652
         1        22        43     1      117.573891      461.620983    ;  uncertainty theta = 0.005192, k = 0.076431
         2        18        17     1      106.111351      853.549407    ;  uncertainty theta = 0.003794, k = 0.182834
         2        19        20     1      102.354355      897.551379    ;  uncertainty theta = 0.005127, k = 0.150610
         2        19        42     1      117.932297      277.348969    ;  uncertainty theta = 0.004851, k = 0.101165
         3         4         5     1      109.370621      534.546189    ;  uncertainty theta = 0.000881, k = 0.079597
         3         4         9     1      109.370621      534.546189    ;  uncertainty theta = 0.000881, k = 0.079597
         3         4        28     1      104.519203      390.668774    ;  uncertainty theta = 0.001871, k = 0.051672
         3        16        15     1      109.298241      487.255900    ;  uncertainty theta = 0.006273, k = 0.134319
         4         3        16     1      108.360596      589.984285    ;  uncertainty theta = 0.002151, k = 0.068728
         4         3        26     1      110.388329      401.234498    ;  uncertainty theta = 0.001434, k = 0.050678
         4         3        27     1      110.388329      401.234498    ;  uncertainty theta = 0.001434, k = 0.050678
         4         5         6     1      109.808632      579.430436    ;  uncertainty theta = 0.001205, k = 0.063369
         4         5        29     1      108.107224      391.796365    ;  uncertainty theta = 0.000562, k = 0.017913
         4         5        30     1      108.107224      391.796365    ;  uncertainty theta = 0.000562, k = 0.017913
         4         9         8     1      109.808632      579.430436    ;  uncertainty theta = 0.001205, k = 0.063369
         4         9        37     1      108.107224      391.796365    ;  uncertainty theta = 0.000562, k = 0.017913
         4         9        38     1      108.107224      391.796365    ;  uncertainty theta = 0.000562, k = 0.017913
         5         4         9     1      109.660385      590.498730    ;  uncertainty theta = 0.000773, k = 0.120988
         5         4        28     1      107.825272      400.301755    ;  uncertainty theta = 0.001267, k = 0.020179
         5         6         7     1      109.478188      613.671677    ;  uncertainty theta = 0.000704, k = 0.027802
         5         6        31     1      108.525650      399.342996    ;  uncertainty theta = 0.001032, k = 0.020585
         5         6        32     1      108.525650      399.342996    ;  uncertainty theta = 0.001032, k = 0.020585
         6         5        29     1      108.752831      406.358231    ;  uncertainty theta = 0.000546, k = 0.018181
         6         5        30     1      108.752831      406.358231    ;  uncertainty theta = 0.000546, k = 0.018181
         6         7         8     1      108.993248      613.337461    ;  uncertainty theta = 0.001325, k = 0.034156
         6         7        33     1      108.795181      401.635590    ;  uncertainty theta = 0.001133, k = 0.009890
         6         7        34     1      108.795181      401.635590    ;  uncertainty theta = 0.001133, k = 0.009890
         7         6        31     1      108.826157      401.626844    ;  uncertainty theta = 0.001001, k = 0.013174
         7         6        32     1      108.826157      401.626844    ;  uncertainty theta = 0.001001, k = 0.013174
         7         8         9     1      109.478188      613.671677    ;  uncertainty theta = 0.000704, k = 0.027802
         7         8        35     1      108.826157      401.626844    ;  uncertainty theta = 0.001001, k = 0.013174
         7         8        36     1      108.826157      401.626844    ;  uncertainty theta = 0.001001, k = 0.013174
         8         7        33     1      108.795181      401.635590    ;  uncertainty theta = 0.001133, k = 0.009890
         8         7        34     1      108.795181      401.635590    ;  uncertainty theta = 0.001133, k = 0.009890
         8         9        37     1      108.752831      406.358231    ;  uncertainty theta = 0.000546, k = 0.018181
         8         9        38     1      108.752831      406.358231    ;  uncertainty theta = 0.000546, k = 0.018181
         9         4        28     1      107.825272      400.301755    ;  uncertainty theta = 0.001267, k = 0.020179
         9         8        35     1      108.525650      399.342996    ;  uncertainty theta = 0.001032, k = 0.020585
         9         8        36     1      108.525650      399.342996    ;  uncertainty theta = 0.001032, k = 0.020585
        10        11        12     1      121.197708      448.084687    ;  uncertainty theta = 0.005824, k = 0.105326
        10        11        45     1      119.007202      375.245765    ;  uncertainty theta = 0.006934, k = 0.204159
        10        24        23     1      119.967957      501.221027    ;  uncertainty theta = 0.004330, k = 0.102194
        10        24        44     1      120.733810      299.338271    ;  uncertainty theta = 0.003387, k = 0.069912
        11        10        24     1      120.586838      494.821907    ;  uncertainty theta = 0.003871, k = 0.118460
        11        10        39     1      120.334312      271.120244    ;  uncertainty theta = 0.002105, k = 0.041888
        11        12        13     1      120.586838      494.821907    ;  uncertainty theta = 0.003871, k = 0.118460
        11        12        40     1      120.334312      271.120244    ;  uncertainty theta = 0.002105, k = 0.041888
        11        45        46     1      107.709633      953.080291    ;  uncertainty theta = 0.002531, k = 0.109252
        11        45        49     1       96.187050      664.834255    ;  uncertainty theta = 0.004425, k = 0.159628
        12        11        45     1      119.007202      375.245765    ;  uncertainty theta = 0.006934, k = 0.204159
        12        13        23     1      119.967957      501.221027    ;  uncertainty theta = 0.004330, k = 0.102194
        12        13        41     1      120.733810      299.338271    ;  uncertainty theta = 0.003387, k = 0.069912
        13        12        40     1      120.079506      278.321070    ;  uncertainty theta = 0.002196, k = 0.034273
        13        23        22     1      119.645569      572.632777    ;  uncertainty theta = 0.004439, k = 0.097792
        13        23        24     1      119.595337      365.279046    ;  uncertainty theta = 0.008063, k = 0.167252
        14         1        21     1      129.092941      757.787864    ;  uncertainty theta = 0.006481, k = 0.120442
        14         1        22     1      120.661781      870.350271    ;  uncertainty theta = 0.004915, k = 0.122691
        14        15        16     1      118.935570      616.218302    ;  uncertainty theta = 0.007793, k = 0.186676
        14        15        17     1      121.320839      502.911839    ;  uncertainty theta = 0.004217, k = 0.154158
        15        17        18     1      125.572182      337.569367    ;  uncertainty theta = 0.011808, k = 0.247348
        15        17        20     1      115.411545      389.079632    ;  uncertainty theta = 0.002296, k = 0.591650
        16         3        26     1      105.912796      425.655923    ;  uncertainty theta = 0.002429, k = 0.021585
        16         3        27     1      105.912796      425.655923    ;  uncertainty theta = 0.002429, k = 0.021585
        16        15        17     1      120.841599      418.373761    ;  uncertainty theta = 0.012439, k = 0.222946
        17        20        19     1      106.195297      652.909446    ;  uncertainty theta = 0.002633, k = 0.118945
        17        20        21     1      124.131241      528.955701    ;  uncertainty theta = 0.002054, k = 0.262938
        18         2        19     1      113.227966      928.193356    ;  uncertainty theta = 0.003566, k = 0.156145
        18         2        25     1      123.515884      268.877032    ;  uncertainty theta = 0.002962, k = 0.132496
        18        17        20     1      111.612305      768.764927    ;  uncertainty theta = 0.003022, k = 0.071308
        19         2        25     1      119.012375      282.043838    ;  uncertainty theta = 0.003618, k = 0.085884
        19        20        21     1      130.784073      493.318920    ;  uncertainty theta = 0.002562, k = 0.208672
        20        19        42     1      119.864441      316.787906    ;  uncertainty theta = 0.004484, k = 0.091289
        21         1        22     1      120.502541      820.926580    ;  uncertainty theta = 0.005581, k = 0.119317
        22        23        24     1      119.645569      572.632777    ;  uncertainty theta = 0.004439, k = 0.097792
        23        13        41     1      119.311913      272.803714    ;  uncertainty theta = 0.001909, k = 0.071132
        23        22        43     1      113.400192      349.838735    ;  uncertainty theta = 0.005040, k = 0.105238
        23        24        44     1      119.311913      272.803714    ;  uncertainty theta = 0.001909, k = 0.071132
        24        10        39     1      120.079506      278.321039    ;  uncertainty theta = 0.002196, k = 0.034273
        26         3        27     1      107.711685      332.413967    ;  uncertainty theta = 0.002533, k = 0.071911
        29         5        30     1      104.326004      317.253224    ;  uncertainty theta = 0.001073, k = 0.013630
        31         6        32     1      104.066360      312.019042    ;  uncertainty theta = 0.001961, k = 0.032491
        33         7        34     1      103.945633      313.844913    ;  uncertainty theta = 0.001747, k = 0.045918
        35         8        36     1      104.066360      312.019042    ;  uncertainty theta = 0.001961, k = 0.032491
        37         9        38     1      104.326004      317.253224    ;  uncertainty theta = 0.001073, k = 0.013630
        45        49        47     1      107.032616      334.834023    ;  uncertainty theta = 0.002151, k = 0.037979
        45        49        48     1      107.032616      334.834023    ;  uncertainty theta = 0.002151, k = 0.037979
        45        49        50     1      107.032616      334.834055    ;  uncertainty theta = 0.002151, k = 0.037979
        46        45        49     1      107.118187     1003.924676    ;  uncertainty theta = 0.001058, k = 0.123271
        47        49        48     1      108.630348      305.938720    ;  uncertainty theta = 0.003022, k = 0.036499
        47        49        50     1      108.630356      305.938752    ;  uncertainty theta = 0.003022, k = 0.036499
        48        49        50     1      108.630348      305.938752    ;  uncertainty theta = 0.003022, k = 0.036499

[ dihedrals ] ; propers for gromacs 4.5 or higher, use funct 9
;       ai        aj        ak        al funct           phase               k        pn
         1        14        15        16     9        0.000000        0.439457         1    ;  uncertainty k = 1.483412
         1        14        15        16     9      180.000000       14.711091         2    ;  uncertainty k = 0.661713
         1        14        15        16     9        0.000000        2.434957         3    ;  uncertainty k = 0.461929
         1        14        15        16     9      180.000000        1.704861         4    ;  uncertainty k = 0.321312
         1        14        15        17     9        0.000000       -0.025149         1    ;  uncertainty k = 1.002386
         1        14        15        17     9      180.000000       13.567653         2    ;  uncertainty k = 0.282700
         1        14        15        17     9        0.000000        0.983280         3    ;  uncertainty k = 0.510106
         1        14        15        17     9      180.000000        1.341124         4    ;  uncertainty k = 0.375485
         1        21        20        17     9        0.000000       -0.017905         1    ;  uncertainty k = 1.073337
         1        21        20        17     9      180.000000       12.505613         2    ;  uncertainty k = 0.302253
         1        21        20        17     9        0.000000       -1.162332         3    ;  uncertainty k = 0.668118
         1        21        20        17     9      180.000000        1.142664         4    ;  uncertainty k = 0.203257
         1        21        20        19     9        0.000000       -0.620344         1    ;  uncertainty k = 0.818592
         1        21        20        19     9      180.000000       16.881254         2    ;  uncertainty k = 0.563329
         1        21        20        19     9        0.000000        1.129661         3    ;  uncertainty k = 0.402579
         1        21        20        19     9      180.000000        1.161579         4    ;  uncertainty k = 0.378875
         1        22        23        13     9        0.000000        0.136184         1    ;  uncertainty k = 0.580086
         1        22        23        13     9      180.000000        7.675135         2    ;  uncertainty k = 0.254138
         1        22        23        13     9        0.000000        1.009281         3    ;  uncertainty k = 0.225046
         1        22        23        13     9      180.000000       -0.079718         4    ;  uncertainty k = 0.188311
         1        22        23        24     9        0.000000        0.136184         1    ;  uncertainty k = 0.580086
         1        22        23        24     9      180.000000        7.675135         2    ;  uncertainty k = 0.254138
         1        22        23        24     9        0.000000        1.009281         3    ;  uncertainty k = 0.225046
         1        22        23        24     9      180.000000       -0.079718         4    ;  uncertainty k = 0.188311
         2        18        17        15     9        0.000000        0.735464         1    ;  uncertainty k = 0.750680
         2        18        17        15     9      180.000000        7.847477         2    ;  uncertainty k = 0.940977
         2        18        17        15     9        0.000000        0.398428         3    ;  uncertainty k = 0.869847
         2        18        17        15     9      180.000000        0.957178         4    ;  uncertainty k = 0.474924
         2        18        17        20     9        0.000000        0.121290         1    ;  uncertainty k = 1.156313
         2        18        17        20     9      180.000000       12.718757         2    ;  uncertainty k = 0.701871
         2        18        17        20     9        0.000000       -8.821906         3    ;  uncertainty k = 1.315956
         2        18        17        20     9      180.000000        2.424357         4    ;  uncertainty k = 0.269865
         2        19        20        17     9        0.000000        0.489619         1    ;  uncertainty k = 1.421474
         2        19        20        17     9      180.000000       13.059893         2    ;  uncertainty k = 1.109382
         2        19        20        17     9        0.000000       -9.373226         3    ;  uncertainty k = 1.895988
         2        19        20        17     9      180.000000        0.964849         4    ;  uncertainty k = 0.536529
         2        19        20        21     9        0.000000        0.801167         1    ;  uncertainty k = 2.152286
         2        19        20        21     9      180.000000        8.204403         2    ;  uncertainty k = 1.378239
         2        19        20        21     9        0.000000       -0.096554         3    ;  uncertainty k = 1.003206
         2        19        20        21     9      180.000000        0.365154         4    ;  uncertainty k = 0.210995
         3         4         5         6     9        0.000000       -4.769153         1    ;  uncertainty k = 0.573785
         3         4         5         6     9      180.000000        0.472126         2    ;  uncertainty k = 0.225074
         3         4         5         6     9        0.000000        0.768371         3    ;  uncertainty k = 0.170758
         3         4         5         6     9      180.000000       -0.381064         4    ;  uncertainty k = 0.118636
         3         4         5        29     9        0.000000        0.009695         1    ;  uncertainty k = 0.581490
         3         4         5        29     9      180.000000       -1.004637         2    ;  uncertainty k = 0.232678
         3         4         5        29     9        0.000000        0.571898         3    ;  uncertainty k = 0.095316
         3         4         5        29     9      180.000000       -0.185725         4    ;  uncertainty k = 0.080856
         3         4         5        30     9        0.000000        0.009695         1    ;  uncertainty k = 0.581490
         3         4         5        30     9      180.000000       -1.004637         2    ;  uncertainty k = 0.232678
         3         4         5        30     9        0.000000        0.571898         3    ;  uncertainty k = 0.095316
         3         4         5        30     9      180.000000       -0.185725         4    ;  uncertainty k = 0.080856
         3         4         9         8     9        0.000000       -4.769153         1    ;  uncertainty k = 0.573785
         3         4         9         8     9      180.000000        0.472126         2    ;  uncertainty k = 0.225074
         3         4         9         8     9        0.000000        0.768371         3    ;  uncertainty k = 0.170758
         3         4         9         8     9      180.000000       -0.381064         4    ;  uncertainty k = 0.118636
         3         4         9        37     9        0.000000        0.009695         1    ;  uncertainty k = 0.581490
         3         4         9        37     9      180.000000       -1.004637         2    ;  uncertainty k = 0.232678
         3         4         9        37     9        0.000000        0.571898         3    ;  uncertainty k = 0.095316
         3         4         9        37     9      180.000000       -0.185725         4    ;  uncertainty k = 0.080856
         3         4         9        38     9        0.000000        0.009695         1    ;  uncertainty k = 0.581490
         3         4         9        38     9      180.000000       -1.004637         2    ;  uncertainty k = 0.232678
         3         4         9        38     9        0.000000        0.571898         3    ;  uncertainty k = 0.095316
         3         4         9        38     9      180.000000       -0.185725         4    ;  uncertainty k = 0.080856
         3        16        15        14     9        0.000000        2.721736         1    ;  uncertainty k = 0.811251
         3        16        15        14     9      180.000000       12.314511         2    ;  uncertainty k = 0.053075
         3        16        15        14     9        0.000000        0.338905         3    ;  uncertainty k = 0.487919
         3        16        15        14     9      180.000000       -0.125844         4    ;  uncertainty k = 0.142563
         3        16        15        17     9        0.000000        5.661143         1    ;  uncertainty k = 0.811650
         3        16        15        17     9      180.000000        8.863071         2    ;  uncertainty k = 0.136950
         3        16        15        17     9        0.000000        0.973975         3    ;  uncertainty k = 0.244529
         3        16        15        17     9      180.000000       -0.213801         4    ;  uncertainty k = 0.237973
         4         3        16        15     9        0.000000       -5.993674         1    ;  uncertainty k = 0.554920
         4         3        16        15     9      180.000000        2.437510         2    ;  uncertainty k = 0.256287
         4         3        16        15     9        0.000000       -0.392327         3    ;  uncertainty k = 0.154757
         4         3        16        15     9      180.000000        0.858750         4    ;  uncertainty k = 0.086246
         4         5         6         7     9        0.000000       -7.967758         1    ;  uncertainty k = 1.187860
         4         5         6         7     9      180.000000        0.435463         2    ;  uncertainty k = 0.589253
         4         5         6         7     9        0.000000        1.944962         3    ;  uncertainty k = 0.175085
         4         5         6         7     9      180.000000       -1.434840         4    ;  uncertainty k = 0.216045
         4         5         6        31     9        0.000000       -1.697203         1    ;  uncertainty k = 0.467163
         4         5         6        31     9      180.000000       -0.356805         2    ;  uncertainty k = 0.119858
         4         5         6        31     9        0.000000        0.557954         3    ;  uncertainty k = 0.133654
         4         5         6        31     9      180.000000       -0.075956         4    ;  uncertainty k = 0.059799
         4         5         6        32     9        0.000000       -1.697203         1    ;  uncertainty k = 0.467163
         4         5         6        32     9      180.000000       -0.356805         2    ;  uncertainty k = 0.119858
         4         5         6        32     9        0.000000        0.557954         3    ;  uncertainty k = 0.133654
         4         5         6        32     9      180.000000       -0.075956         4    ;  uncertainty k = 0.059799
         4         9         8         7     9        0.000000       -7.967758         1    ;  uncertainty k = 1.187860
         4         9         8         7     9      180.000000        0.435463         2    ;  uncertainty k = 0.589253
         4         9         8         7     9        0.000000        1.944962         3    ;  uncertainty k = 0.175085
         4         9         8         7     9      180.000000       -1.434840         4    ;  uncertainty k = 0.216045
         4         9         8        35     9        0.000000       -1.697203         1    ;  uncertainty k = 0.467163
         4         9         8        35     9      180.000000       -0.356805         2    ;  uncertainty k = 0.119858
         4         9         8        35     9        0.000000        0.557954         3    ;  uncertainty k = 0.133654
         4         9         8        35     9      180.000000       -0.075956         4    ;  uncertainty k = 0.059799
         4         9         8        36     9        0.000000       -1.697203         1    ;  uncertainty k = 0.467163
         4         9         8        36     9      180.000000       -0.356805         2    ;  uncertainty k = 0.119858
         4         9         8        36     9        0.000000        0.557954         3    ;  uncertainty k = 0.133654
         4         9         8        36     9      180.000000       -0.075956         4    ;  uncertainty k = 0.059799
         5         4         3        16     9        0.000000       -1.401577         1    ;  uncertainty k = 0.555176
         5         4         3        16     9      180.000000       -1.846835         2    ;  uncertainty k = 0.534491
         5         4         3        16     9        0.000000        1.469365         3    ;  uncertainty k = 0.148457
         5         4         3        16     9      180.000000       -0.236568         4    ;  uncertainty k = 0.117513
         5         4         3        26     9        0.000000       -1.410245         1    ;  uncertainty k = 0.488994
         5         4         3        26     9      180.000000        0.149401         2    ;  uncertainty k = 0.184667
         5         4         3        26     9        0.000000        0.583306         3    ;  uncertainty k = 0.096375
         5         4         3        26     9      180.000000       -0.287185         4    ;  uncertainty k = 0.096275
         5         4         3        27     9        0.000000       -1.410245         1    ;  uncertainty k = 0.488994
         5         4         3        27     9      180.000000        0.149401         2    ;  uncertainty k = 0.184667
         5         4         3        27     9        0.000000        0.583306         3    ;  uncertainty k = 0.096375
         5         4         3        27     9      180.000000       -0.287185         4    ;  uncertainty k = 0.096275
         5         4         9         8     9        0.000000       -6.763638         1    ;  uncertainty k = 1.108795
         5         4         9         8     9      180.000000        0.639021         2    ;  uncertainty k = 0.390934
         5         4         9         8     9        0.000000        1.564762         3    ;  uncertainty k = 0.124122
         5         4         9         8     9      180.000000       -1.411959         4    ;  uncertainty k = 0.153360
         5         4         9        37     9        0.000000       -1.777372         1    ;  uncertainty k = 0.316771
         5         4         9        37     9      180.000000       -0.204743         2    ;  uncertainty k = 0.095816
         5         4         9        37     9        0.000000        0.391228         3    ;  uncertainty k = 0.135576
         5         4         9        37     9      180.000000       -0.085357         4    ;  uncertainty k = 0.038271
         5         4         9        38     9        0.000000       -1.777372         1    ;  uncertainty k = 0.316771
         5         4         9        38     9      180.000000       -0.204743         2    ;  uncertainty k = 0.095816
         5         4         9        38     9        0.000000        0.391228         3    ;  uncertainty k = 0.135576
         5         4         9        38     9      180.000000       -0.085357         4    ;  uncertainty k = 0.038271
         5         6         7         8     9        0.000000       -9.813552         1    ;  uncertainty k = 1.916609
         5         6         7         8     9      180.000000        1.261717         2    ;  uncertainty k = 0.612102
         5         6         7         8     9        0.000000        2.075019         3    ;  uncertainty k = 0.183645
         5         6         7         8     9      180.000000       -1.433814         4    ;  uncertainty k = 0.229907
         5         6         7        33     9        0.000000       -2.162965         1    ;  uncertainty k = 0.320424
         5         6         7        33     9      180.000000       -0.102975         2    ;  uncertainty k = 0.120033
         5         6         7        33     9        0.000000        0.610676         3    ;  uncertainty k = 0.139255
         5         6         7        33     9      180.000000       -0.086954         4    ;  uncertainty k = 0.029985
         5         6         7        34     9        0.000000       -2.162965         1    ;  uncertainty k = 0.320424
         5         6         7        34     9      180.000000       -0.102975         2    ;  uncertainty k = 0.120033
         5         6         7        34     9        0.000000        0.610676         3    ;  uncertainty k = 0.139255
         5         6         7        34     9      180.000000       -0.086954         4    ;  uncertainty k = 0.029985
         6         5         4         9     9        0.000000       -6.763638         1    ;  uncertainty k = 1.108795
         6         5         4         9     9      180.000000        0.639021         2    ;  uncertainty k = 0.390934
         6         5         4         9     9        0.000000        1.564762         3    ;  uncertainty k = 0.124122
         6         5         4         9     9      180.000000       -1.411959         4    ;  uncertainty k = 0.153360
         6         5         4        28     9        0.000000       -2.441010         1    ;  uncertainty k = 0.394227
         6         5         4        28     9      180.000000        0.168377         2    ;  uncertainty k = 0.037109
         6         5         4        28     9        0.000000        0.147084         3    ;  uncertainty k = 0.161746
         6         5         4        28     9      180.000000       -0.164065         4    ;  uncertainty k = 0.097547
         6         7         8         9     9        0.000000       -9.813552         1    ;  uncertainty k = 1.916609
         6         7         8         9     9      180.000000        1.261717         2    ;  uncertainty k = 0.612102
         6         7         8         9     9        0.000000        2.075019         3    ;  uncertainty k = 0.183645
         6         7         8         9     9      180.000000       -1.433814         4    ;  uncertainty k = 0.229907
         6         7         8        35     9        0.000000       -1.979013         1    ;  uncertainty k = 0.475575
         6         7         8        35     9      180.000000       -0.219552         2    ;  uncertainty k = 0.116376
         6         7         8        35     9        0.000000        0.575670         3    ;  uncertainty k = 0.105417
         6         7         8        35     9      180.000000       -0.051905         4    ;  uncertainty k = 0.014676
         6         7         8        36     9        0.000000       -1.979013         1    ;  uncertainty k = 0.475575
         6         7         8        36     9      180.000000       -0.219552         2    ;  uncertainty k = 0.116376
         6         7         8        36     9        0.000000        0.575670         3    ;  uncertainty k = 0.105417
         6         7         8        36     9      180.000000       -0.051905         4    ;  uncertainty k = 0.014676
         7         6         5        29     9        0.000000       -2.065110         1    ;  uncertainty k = 0.419468
         7         6         5        29     9      180.000000       -0.158572         2    ;  uncertainty k = 0.106512
         7         6         5        29     9        0.000000        0.592907         3    ;  uncertainty k = 0.115944
         7         6         5        29     9      180.000000       -0.058625         4    ;  uncertainty k = 0.041390
         7         6         5        30     9        0.000000       -2.065110         1    ;  uncertainty k = 0.419468
         7         6         5        30     9      180.000000       -0.158572         2    ;  uncertainty k = 0.106512
         7         6         5        30     9        0.000000        0.592907         3    ;  uncertainty k = 0.115944
         7         6         5        30     9      180.000000       -0.058625         4    ;  uncertainty k = 0.041390
         7         8         9        37     9        0.000000       -2.065110         1    ;  uncertainty k = 0.419468
         7         8         9        37     9      180.000000       -0.158572         2    ;  uncertainty k = 0.106512
         7         8         9        37     9        0.000000        0.592907         3    ;  uncertainty k = 0.115944
         7         8         9        37     9      180.000000       -0.058625         4    ;  uncertainty k = 0.041390
         7         8         9        38     9        0.000000       -2.065110         1    ;  uncertainty k = 0.419468
         7         8         9        38     9      180.000000       -0.158572         2    ;  uncertainty k = 0.106512
         7         8         9        38     9        0.000000        0.592907         3    ;  uncertainty k = 0.115944
         7         8         9        38     9      180.000000       -0.058625         4    ;  uncertainty k = 0.041390
         8         7         6        31     9        0.000000       -1.979013         1    ;  uncertainty k = 0.475575
         8         7         6        31     9      180.000000       -0.219552         2    ;  uncertainty k = 0.116376
         8         7         6        31     9        0.000000        0.575670         3    ;  uncertainty k = 0.105417
         8         7         6        31     9      180.000000       -0.051905         4    ;  uncertainty k = 0.014676
         8         7         6        32     9        0.000000       -1.979013         1    ;  uncertainty k = 0.475575
         8         7         6        32     9      180.000000       -0.219552         2    ;  uncertainty k = 0.116376
         8         7         6        32     9        0.000000        0.575670         3    ;  uncertainty k = 0.105417
         8         7         6        32     9      180.000000       -0.051905         4    ;  uncertainty k = 0.014676
         8         9         4        28     9        0.000000       -2.441010         1    ;  uncertainty k = 0.394227
         8         9         4        28     9      180.000000        0.168377         2    ;  uncertainty k = 0.037109
         8         9         4        28     9        0.000000        0.147084         3    ;  uncertainty k = 0.161746
         8         9         4        28     9      180.000000       -0.164065         4    ;  uncertainty k = 0.097547
         9         4         3        16     9        0.000000       -1.401577         1    ;  uncertainty k = 0.555176
         9         4         3        16     9      180.000000       -1.846835         2    ;  uncertainty k = 0.534491
         9         4         3        16     9        0.000000        1.469365         3    ;  uncertainty k = 0.148457
         9         4         3        16     9      180.000000       -0.236568         4    ;  uncertainty k = 0.117513
         9         4         3        26     9        0.000000       -1.410245         1    ;  uncertainty k = 0.488994
         9         4         3        26     9      180.000000        0.149401         2    ;  uncertainty k = 0.184667
         9         4         3        26     9        0.000000        0.583306         3    ;  uncertainty k = 0.096375
         9         4         3        26     9      180.000000       -0.287185         4    ;  uncertainty k = 0.096275
         9         4         3        27     9        0.000000       -1.410245         1    ;  uncertainty k = 0.488994
         9         4         3        27     9      180.000000        0.149401         2    ;  uncertainty k = 0.184667
         9         4         3        27     9        0.000000        0.583306         3    ;  uncertainty k = 0.096375
         9         4         3        27     9      180.000000       -0.287185         4    ;  uncertainty k = 0.096275
         9         4         5        29     9        0.000000       -1.777372         1    ;  uncertainty k = 0.316771
         9         4         5        29     9      180.000000       -0.204743         2    ;  uncertainty k = 0.095816
         9         4         5        29     9        0.000000        0.391228         3    ;  uncertainty k = 0.135576
         9         4         5        29     9      180.000000       -0.085357         4    ;  uncertainty k = 0.038271
         9         4         5        30     9        0.000000       -1.777372         1    ;  uncertainty k = 0.316771
         9         4         5        30     9      180.000000       -0.204743         2    ;  uncertainty k = 0.095816
         9         4         5        30     9        0.000000        0.391228         3    ;  uncertainty k = 0.135576
         9         4         5        30     9      180.000000       -0.085357         4    ;  uncertainty k = 0.038271
         9         8         7        33     9        0.000000       -2.162965         1    ;  uncertainty k = 0.320424
         9         8         7        33     9      180.000000       -0.102975         2    ;  uncertainty k = 0.120033
         9         8         7        33     9        0.000000        0.610676         3    ;  uncertainty k = 0.139255
         9         8         7        33     9      180.000000       -0.086954         4    ;  uncertainty k = 0.029985
         9         8         7        34     9        0.000000       -2.162965         1    ;  uncertainty k = 0.320424
         9         8         7        34     9      180.000000       -0.102975         2    ;  uncertainty k = 0.120033
         9         8         7        34     9        0.000000        0.610676         3    ;  uncertainty k = 0.139255
         9         8         7        34     9      180.000000       -0.086954         4    ;  uncertainty k = 0.029985
        10        11        12        13     9        0.000000       -0.185023         1    ;  uncertainty k = 0.386682
        10        11        12        13     9      180.000000       11.313564         2    ;  uncertainty k = 0.391811
        10        11        12        13     9        0.000000       -0.518028         3    ;  uncertainty k = 0.289901
        10        11        12        13     9      180.000000        0.863591         4    ;  uncertainty k = 0.360943
        10        11        12        40     9        0.000000       -0.092085         1    ;  uncertainty k = 0.298626
        10        11        12        40     9      180.000000        6.791833         2    ;  uncertainty k = 0.763159
        10        11        12        40     9        0.000000        1.317355         3    ;  uncertainty k = 0.417615
        10        11        12        40     9      180.000000        1.524769         4    ;  uncertainty k = 0.106339
        10        11        45        46     9        0.000000       -0.336147         1    ;  uncertainty k = 1.028299
        10        11        45        46     9      180.000000        1.031785         2    ;  uncertainty k = 0.251108
        10        11        45        46     9        0.000000        0.301945         3    ;  uncertainty k = 0.403124
        10        11        45        46     9      180.000000        0.345492         4    ;  uncertainty k = 0.054892
        10        11        45        49     9        0.000000        5.067576         1    ;  uncertainty k = 0.559585
        10        11        45        49     9      180.000000        0.128505         2    ;  uncertainty k = 0.380814
        10        11        45        49     9        0.000000       -0.042318         3    ;  uncertainty k = 0.429870
        10        11        45        49     9      180.000000        0.414376         4    ;  uncertainty k = 0.070939
        10        24        23        13     9        0.000000       -0.031608         1    ;  uncertainty k = 0.156841
        10        24        23        13     9      180.000000        8.206680         2    ;  uncertainty k = 0.281564
        10        24        23        13     9        0.000000        0.244833         3    ;  uncertainty k = 0.187529
        10        24        23        13     9      180.000000        1.263668         4    ;  uncertainty k = 0.263074
        10        24        23        22     9        0.000000        0.135913         1    ;  uncertainty k = 0.500645
        10        24        23        22     9      180.000000        9.387502         2    ;  uncertainty k = 0.333262
        10        24        23        22     9        0.000000        0.947947         3    ;  uncertainty k = 0.208462
        10        24        23        22     9      180.000000        1.529525         4    ;  uncertainty k = 0.099822
        11        10        24        23     9        0.000000       -0.147841         1    ;  uncertainty k = 0.235686
        11        10        24        23     9      180.000000       14.194108         2    ;  uncertainty k = 0.489141
        11        10        24        23     9        0.000000       -0.969417         3    ;  uncertainty k = 0.459408
        11        10        24        23     9      180.000000        0.684995         4    ;  uncertainty k = 0.478387
        11        10        24        44     9        0.000000       -0.108223         1    ;  uncertainty k = 0.228305
        11        10        24        44     9      180.000000        8.476476         2    ;  uncertainty k = 0.244488
        11        10        24        44     9        0.000000        1.244963         3    ;  uncertainty k = 0.174632
        11        10        24        44     9      180.000000        1.760985         4    ;  uncertainty k = 0.065598
        11        12        13        23     9        0.000000       -0.147841         1    ;  uncertainty k = 0.235686
        11        12        13        23     9      180.000000       14.194108         2    ;  uncertainty k = 0.489141
        11        12        13        23     9        0.000000       -0.969417         3    ;  uncertainty k = 0.459408
        11        12        13        23     9      180.000000        0.684995         4    ;  uncertainty k = 0.478387
        11        12        13        41     9        0.000000       -0.108223         1    ;  uncertainty k = 0.228305
        11        12        13        41     9      180.000000        8.476476         2    ;  uncertainty k = 0.244488
        11        12        13        41     9        0.000000        1.244963         3    ;  uncertainty k = 0.174632
        11        12        13        41     9      180.000000        1.760985         4    ;  uncertainty k = 0.065598
        11        45        49        47     9        0.000000        2.450625         1    ;  uncertainty k = 1.199249
        11        45        49        47     9      180.000000       -2.568728         2    ;  uncertainty k = 0.409741
        11        45        49        47     9        0.000000        1.443839         3    ;  uncertainty k = 0.182472
        11        45        49        47     9      180.000000        0.204963         4    ;  uncertainty k = 0.083914
        11        45        49        48     9        0.000000        2.450625         1    ;  uncertainty k = 1.199249
        11        45        49        48     9      180.000000       -2.568728         2    ;  uncertainty k = 0.409741
        11        45        49        48     9        0.000000        1.443839         3    ;  uncertainty k = 0.182472
        11        45        49        48     9      180.000000        0.204963         4    ;  uncertainty k = 0.083914
        11        45        49        50     9        0.000000        2.450625         1    ;  uncertainty k = 1.199249
        11        45        49        50     9      180.000000       -2.568727         2    ;  uncertainty k = 0.409741
        11        45        49        50     9        0.000000        1.443839         3    ;  uncertainty k = 0.182472
        11        45        49        50     9      180.000000        0.204963         4    ;  uncertainty k = 0.083914
        12        11        10        24     9        0.000000       -0.185023         1    ;  uncertainty k = 0.386682
        12        11        10        24     9      180.000000       11.313564         2    ;  uncertainty k = 0.391811
        12        11        10        24     9        0.000000       -0.518028         3    ;  uncertainty k = 0.289901
        12        11        10        24     9      180.000000        0.863591         4    ;  uncertainty k = 0.360943
        12        11        10        39     9        0.000000       -0.092085         1    ;  uncertainty k = 0.298626
        12        11        10        39     9      180.000000        6.791833         2    ;  uncertainty k = 0.763159
        12        11        10        39     9        0.000000        1.317355         3    ;  uncertainty k = 0.417615
        12        11        10        39     9      180.000000        1.524769         4    ;  uncertainty k = 0.106339
        12        11        45        46     9        0.000000       -0.336147         1    ;  uncertainty k = 1.028299
        12        11        45        46     9      180.000000        1.031785         2    ;  uncertainty k = 0.251108
        12        11        45        46     9        0.000000        0.301945         3    ;  uncertainty k = 0.403124
        12        11        45        46     9      180.000000        0.345492         4    ;  uncertainty k = 0.054892
        12        11        45        49     9        0.000000        5.067576         1    ;  uncertainty k = 0.559585
        12        11        45        49     9      180.000000        0.128505         2    ;  uncertainty k = 0.380814
        12        11        45        49     9        0.000000       -0.042318         3    ;  uncertainty k = 0.429870
        12        11        45        49     9      180.000000        0.414376         4    ;  uncertainty k = 0.070939
        12        13        23        22     9        0.000000        0.135913         1    ;  uncertainty k = 0.500645
        12        13        23        22     9      180.000000        9.387502         2    ;  uncertainty k = 0.333262
        12        13        23        22     9        0.000000        0.947947         3    ;  uncertainty k = 0.208462
        12        13        23        22     9      180.000000        1.529525         4    ;  uncertainty k = 0.099822
        12        13        23        24     9        0.000000       -0.031608         1    ;  uncertainty k = 0.156841
        12        13        23        24     9      180.000000        8.206680         2    ;  uncertainty k = 0.281564
        12        13        23        24     9        0.000000        0.244833         3    ;  uncertainty k = 0.187529
        12        13        23        24     9      180.000000        1.263668         4    ;  uncertainty k = 0.263074
        13        12        11        45     9        0.000000       -0.072732         1    ;  uncertainty k = 0.444330
        13        12        11        45     9      180.000000        7.395523         2    ;  uncertainty k = 0.508973
        13        12        11        45     9        0.000000        1.501789         3    ;  uncertainty k = 0.333606
        13        12        11        45     9      180.000000        1.844734         4    ;  uncertainty k = 0.146074
        13        23        22        43     9        0.000000        2.832629         1    ;  uncertainty k = 0.797535
        13        23        22        43     9      180.000000        5.241557         2    ;  uncertainty k = 0.121501
        13        23        22        43     9        0.000000        0.811140         3    ;  uncertainty k = 0.187685
        13        23        22        43     9      180.000000        0.248883         4    ;  uncertainty k = 0.113578
        13        23        24        44     9        0.000000        0.197857         1    ;  uncertainty k = 0.275313
        13        23        24        44     9      180.000000        6.353784         2    ;  uncertainty k = 0.666218
        13        23        24        44     9        0.000000        1.307163         3    ;  uncertainty k = 0.284465
        13        23        24        44     9      180.000000        1.486870         4    ;  uncertainty k = 0.170443
        14         1        21        20     9        0.000000       -0.569211         1    ;  uncertainty k = 1.198436
        14         1        21        20     9      180.000000       11.705623         2    ;  uncertainty k = 0.201703
        14         1        21        20     9        0.000000        1.549284         3    ;  uncertainty k = 0.327469
        14         1        21        20     9      180.000000        1.034972         4    ;  uncertainty k = 0.274565
        14         1        22        23     9        0.000000        5.878145         1    ;  uncertainty k = 0.556628
        14         1        22        23     9      180.000000       10.103935         2    ;  uncertainty k = 0.086980
        14         1        22        23     9        0.000000        1.085073         3    ;  uncertainty k = 0.149402
        14         1        22        23     9      180.000000       -0.598898         4    ;  uncertainty k = 0.126707
        14         1        22        43     9        0.000000       10.952005         1    ;  uncertainty k = 0.686116
        14         1        22        43     9      180.000000        7.967073         2    ;  uncertainty k = 0.371368
        14         1        22        43     9        0.000000        1.827130         3    ;  uncertainty k = 0.477723
        14         1        22        43     9      180.000000       -0.185785         4    ;  uncertainty k = 0.186662
        14        15        17        18     9        0.000000       -0.731058         1    ;  uncertainty k = 0.864379
        14        15        17        18     9      180.000000        6.125128         2    ;  uncertainty k = 1.039238
        14        15        17        18     9        0.000000        0.476608         3    ;  uncertainty k = 0.307824
        14        15        17        18     9      180.000000        0.809778         4    ;  uncertainty k = 0.340764
        14        15        17        20     9        0.000000       -0.966331         1    ;  uncertainty k = 1.162075
        14        15        17        20     9      180.000000        7.460241         2    ;  uncertainty k = 1.086916
        14        15        17        20     9        0.000000       -1.612651         3    ;  uncertainty k = 0.450811
        14        15        17        20     9      180.000000        0.938826         4    ;  uncertainty k = 0.404342
        15        14         1        21     9        0.000000       -0.669008         1    ;  uncertainty k = 0.721813
        15        14         1        21     9      180.000000        8.795149         2    ;  uncertainty k = 0.627345
        15        14         1        21     9        0.000000        0.717881         3    ;  uncertainty k = 0.557557
        15        14         1        21     9      180.000000        0.880531         4    ;  uncertainty k = 0.186606
        15        14         1        22     9        0.000000        0.231558         1    ;  uncertainty k = 0.644914
        15        14         1        22     9      180.000000        9.269725         2    ;  uncertainty k = 0.443340
        15        14         1        22     9        0.000000        1.568050         3    ;  uncertainty k = 0.406488
        15        14         1        22     9      180.000000        0.933861         4    ;  uncertainty k = 0.324300
        15        16         3        26     9        0.000000        2.789968         1    ;  uncertainty k = 0.641542
        15        16         3        26     9      180.000000       -0.102846         2    ;  uncertainty k = 0.488013
        15        16         3        26     9        0.000000       -0.110985         3    ;  uncertainty k = 0.163330
        15        16         3        26     9      180.000000        0.362110         4    ;  uncertainty k = 0.079581
        15        16         3        27     9        0.000000        2.789968         1    ;  uncertainty k = 0.641542
        15        16         3        27     9      180.000000       -0.102846         2    ;  uncertainty k = 0.488013
        15        16         3        27     9        0.000000       -0.110985         3    ;  uncertainty k = 0.163330
        15        16         3        27     9      180.000000        0.362110         4    ;  uncertainty k = 0.079581
        15        17        20        19     9        0.000000       -0.201800         1    ;  uncertainty k = 1.093354
        15        17        20        19     9      180.000000        5.944362         2    ;  uncertainty k = 0.590805
        15        17        20        19     9        0.000000       -1.126909         3    ;  uncertainty k = 0.876721
        15        17        20        19     9      180.000000        1.089007         4    ;  uncertainty k = 0.496862
        15        17        20        21     9        0.000000       -0.664820         1    ;  uncertainty k = 0.925139
        15        17        20        21     9      180.000000        8.335492         2    ;  uncertainty k = 0.426544
        15        17        20        21     9        0.000000       -0.968838         3    ;  uncertainty k = 0.383142
        15        17        20        21     9      180.000000        1.088374         4    ;  uncertainty k = 0.430231
        16         3         4        28     9        0.000000        0.836449         1    ;  uncertainty k = 0.754872
        16         3         4        28     9      180.000000       -2.904885         2    ;  uncertainty k = 0.496428
        16         3         4        28     9        0.000000        0.974953         3    ;  uncertainty k = 0.324588
        16         3         4        28     9      180.000000        0.006211         4    ;  uncertainty k = 0.094009
        16        15        17        18     9        0.000000       -0.571554         1    ;  uncertainty k = 1.227049
        16        15        17        18     9      180.000000        5.455057         2    ;  uncertainty k = 0.843928
        16        15        17        18     9        0.000000        1.073310         3    ;  uncertainty k = 0.409656
        16        15        17        18     9      180.000000        0.755817         4    ;  uncertainty k = 0.377782
        16        15        17        20     9        0.000000       -0.294054         1    ;  uncertainty k = 0.910090
        16        15        17        20     9      180.000000        6.067322         2    ;  uncertainty k = 0.469502
        16        15        17        20     9        0.000000        0.254823         3    ;  uncertainty k = 0.175682
        16        15        17        20     9      180.000000        0.779851         4    ;  uncertainty k = 0.188373
        17        18         2        19     9        0.000000       -0.251459         1    ;  uncertainty k = 0.772105
        17        18         2        19     9      180.000000       26.332435         2    ;  uncertainty k = 0.164446
        17        18         2        19     9        0.000000       -7.592141         3    ;  uncertainty k = 1.555684
        17        18         2        19     9      180.000000        2.162582         4    ;  uncertainty k = 0.347843
        17        18         2        25     9        0.000000       -0.441891         1    ;  uncertainty k = 0.932204
        17        18         2        25     9      180.000000       19.605513         2    ;  uncertainty k = 0.577464
        17        18         2        25     9        0.000000        1.174875         3    ;  uncertainty k = 0.321243
        17        18         2        25     9      180.000000        1.181780         4    ;  uncertainty k = 0.376203
        17        20        19        42     9        0.000000        5.220849         1    ;  uncertainty k = 2.806861
        17        20        19        42     9      180.000000        7.905035         2    ;  uncertainty k = 1.212591
        17        20        19        42     9        0.000000        0.998820         3    ;  uncertainty k = 0.342826
        17        20        19        42     9      180.000000        0.111169         4    ;  uncertainty k = 0.367643
        18         2        19        20     9        0.000000       -0.294456         1    ;  uncertainty k = 0.809873
        18         2        19        20     9      180.000000       15.938010         2    ;  uncertainty k = 0.725656
        18         2        19        20     9        0.000000       -8.760846         3    ;  uncertainty k = 1.693059
        18         2        19        20     9      180.000000        1.176542         4    ;  uncertainty k = 0.635383
        18         2        19        42     9        0.000000        4.604604         1    ;  uncertainty k = 2.184798
        18         2        19        42     9      180.000000       13.438023         2    ;  uncertainty k = 0.671989
        18         2        19        42     9        0.000000        1.978624         3    ;  uncertainty k = 0.675906
        18         2        19        42     9      180.000000       -0.476904         4    ;  uncertainty k = 0.383926
        18        17        20        19     9        0.000000       -0.119814         1    ;  uncertainty k = 0.866797
        18        17        20        19     9      180.000000       12.283409         2    ;  uncertainty k = 1.047799
        18        17        20        19     9        0.000000       -4.968661         3    ;  uncertainty k = 1.102648
        18        17        20        19     9      180.000000        1.733553         4    ;  uncertainty k = 0.757939
        18        17        20        21     9        0.000000       -0.138727         1    ;  uncertainty k = 1.007199
        18        17        20        21     9      180.000000       10.890369         2    ;  uncertainty k = 0.487032
        18        17        20        21     9        0.000000       -1.550200         3    ;  uncertainty k = 0.500552
        18        17        20        21     9      180.000000        1.331306         4    ;  uncertainty k = 0.391157
        20        19         2        25     9        0.000000        1.548072         1    ;  uncertainty k = 1.691717
        20        19         2        25     9      180.000000        7.211242         2    ;  uncertainty k = 0.764056
        20        19         2        25     9        0.000000        1.238367         3    ;  uncertainty k = 0.228369
        20        19         2        25     9      180.000000        0.084909         4    ;  uncertainty k = 0.180500
        20        21         1        22     9        0.000000        1.203728         1    ;  uncertainty k = 1.102244
        20        21         1        22     9      180.000000       12.769686         2    ;  uncertainty k = 0.672348
        20        21         1        22     9        0.000000        1.775114         3    ;  uncertainty k = 0.683789
        20        21         1        22     9      180.000000        1.269418         4    ;  uncertainty k = 0.392537
        21         1        22        23     9        0.000000        5.412252         1    ;  uncertainty k = 0.277794
        21         1        22        23     9      180.000000        9.408196         2    ;  uncertainty k = 0.238888
        21         1        22        23     9        0.000000        0.904526         3    ;  uncertainty k = 0.216275
        21         1        22        23     9      180.000000       -0.464144         4    ;  uncertainty k = 0.073539
        21         1        22        43     9        0.000000        9.744104         1    ;  uncertainty k = 0.845472
        21         1        22        43     9      180.000000        7.382149         2    ;  uncertainty k = 0.247775
        21         1        22        43     9        0.000000        1.593655         3    ;  uncertainty k = 0.357214
        21         1        22        43     9      180.000000       -0.116458         4    ;  uncertainty k = 0.145504
        21        20        19        42     9        0.000000        5.475291         1    ;  uncertainty k = 1.041200
        21        20        19        42     9      180.000000        3.993478         2    ;  uncertainty k = 0.889662
        21        20        19        42     9        0.000000        1.468016         3    ;  uncertainty k = 0.489444
        21        20        19        42     9      180.000000        0.136727         4    ;  uncertainty k = 0.127968
        22        23        13        41     9        0.000000        0.017218         1    ;  uncertainty k = 0.375062
        22        23        13        41     9      180.000000        7.997098         2    ;  uncertainty k = 0.284725
        22        23        13        41     9        0.000000        0.836507         3    ;  uncertainty k = 0.215224
        22        23        13        41     9      180.000000        0.958982         4    ;  uncertainty k = 0.093983
        22        23        24        44     9        0.000000        0.017218         1    ;  uncertainty k = 0.375062
        22        23        24        44     9      180.000000        7.997098         2    ;  uncertainty k = 0.284725
        22        23        24        44     9        0.000000        0.836507         3    ;  uncertainty k = 0.215224
        22        23        24        44     9      180.000000        0.958982         4    ;  uncertainty k = 0.093983
        23        13        12        40     9        0.000000       -0.069671         1    ;  uncertainty k = 0.251772
        23        13        12        40     9      180.000000        7.981921         2    ;  uncertainty k = 0.377367
        23        13        12        40     9        0.000000        1.315264         3    ;  uncertainty k = 0.241802
        23        13        12        40     9      180.000000        1.669091         4    ;  uncertainty k = 0.152493
        23        24        10        39     9        0.000000       -0.069671         1    ;  uncertainty k = 0.251772
        23        24        10        39     9      180.000000        7.981921         2    ;  uncertainty k = 0.377367
        23        24        10        39     9        0.000000        1.315264         3    ;  uncertainty k = 0.241802
        23        24        10        39     9      180.000000        1.669091         4    ;  uncertainty k = 0.152493
        24        10        11        45     9        0.000000       -0.072732         1    ;  uncertainty k = 0.444330
        24        10        11        45     9      180.000000        7.395523         2    ;  uncertainty k = 0.508973
        24        10        11        45     9        0.000000        1.501789         3    ;  uncertainty k = 0.333606
        24        10        11        45     9      180.000000        1.844734         4    ;  uncertainty k = 0.146074
        24        23        13        41     9        0.000000        0.197857         1    ;  uncertainty k = 0.275313
        24        23        13        41     9      180.000000        6.353784         2    ;  uncertainty k = 0.666218
        24        23        13        41     9        0.000000        1.307163         3    ;  uncertainty k = 0.284465
        24        23        13        41     9      180.000000        1.486870         4    ;  uncertainty k = 0.170443
        24        23        22        43     9        0.000000        2.832629         1    ;  uncertainty k = 0.797535
        24        23        22        43     9      180.000000        5.241557         2    ;  uncertainty k = 0.121501
        24        23        22        43     9        0.000000        0.811140         3    ;  uncertainty k = 0.187685
        24        23        22        43     9      180.000000        0.248883         4    ;  uncertainty k = 0.113578
        25         2        19        42     9        0.000000       -1.075218         1    ;  uncertainty k = 1.539051
        25         2        19        42     9      180.000000        1.573146         2    ;  uncertainty k = 0.351370
        25         2        19        42     9        0.000000        1.047946         3    ;  uncertainty k = 0.426121
        25         2        19        42     9      180.000000        0.027943         4    ;  uncertainty k = 0.247597
        26         3         4        28     9        0.000000        0.575094         1    ;  uncertainty k = 0.340548
        26         3         4        28     9      180.000000       -0.369163         2    ;  uncertainty k = 0.323255
        26         3         4        28     9        0.000000       -0.053194         3    ;  uncertainty k = 0.111182
        26         3         4        28     9      180.000000       -0.140807         4    ;  uncertainty k = 0.050348
        27         3         4        28     9        0.000000        0.575094         1    ;  uncertainty k = 0.340548
        27         3         4        28     9      180.000000       -0.369163         2    ;  uncertainty k = 0.323255
        27         3         4        28     9        0.000000       -0.053194         3    ;  uncertainty k = 0.111182
        27         3         4        28     9      180.000000       -0.140807         4    ;  uncertainty k = 0.050348
        28         4         5        29     9        0.000000        1.964323         1    ;  uncertainty k = 0.351664
        28         4         5        29     9      180.000000       -0.244446         2    ;  uncertainty k = 0.102497
        28         4         5        29     9        0.000000       -0.215725         3    ;  uncertainty k = 0.065198
        28         4         5        29     9      180.000000        0.079359         4    ;  uncertainty k = 0.074606
        28         4         5        30     9        0.000000        1.964323         1    ;  uncertainty k = 0.351664
        28         4         5        30     9      180.000000       -0.244446         2    ;  uncertainty k = 0.102497
        28         4         5        30     9        0.000000       -0.215725         3    ;  uncertainty k = 0.065198
        28         4         5        30     9      180.000000        0.079359         4    ;  uncertainty k = 0.074606
        28         4         9        37     9        0.000000        1.964323         1    ;  uncertainty k = 0.351664
        28         4         9        37     9      180.000000       -0.244446         2    ;  uncertainty k = 0.102497
        28         4         9        37     9        0.000000       -0.215725         3    ;  uncertainty k = 0.065198
        28         4         9        37     9      180.000000        0.079359         4    ;  uncertainty k = 0.074606
        28         4         9        38     9        0.000000        1.964323         1    ;  uncertainty k = 0.351664
        28         4         9        38     9      180.000000       -0.244446         2    ;  uncertainty k = 0.102497
        28         4         9        38     9        0.000000       -0.215725         3    ;  uncertainty k = 0.065198
        28         4         9        38     9      180.000000        0.079359         4    ;  uncertainty k = 0.074606
        29         5         6        31     9        0.000000        2.637306         1    ;  uncertainty k = 0.495157
        29         5         6        31     9      180.000000       -0.245820         2    ;  uncertainty k = 0.127404
        29         5         6        31     9        0.000000        0.285027         3    ;  uncertainty k = 0.084986
        29         5         6        31     9      180.000000        0.124395         4    ;  uncertainty k = 0.052420
        29         5         6        32     9        0.000000        2.637306         1    ;  uncertainty k = 0.495157
        29         5         6        32     9      180.000000       -0.245820         2    ;  uncertainty k = 0.127404
        29         5         6        32     9        0.000000        0.285027         3    ;  uncertainty k = 0.084986
        29         5         6        32     9      180.000000        0.124395         4    ;  uncertainty k = 0.052420
        30         5         6        31     9        0.000000        2.637306         1    ;  uncertainty k = 0.495157
        30         5         6        31     9      180.000000       -0.245820         2    ;  uncertainty k = 0.127404
        30         5         6        31     9        0.000000        0.285027         3    ;  uncertainty k = 0.084986
        30         5         6        31     9      180.000000        0.124395         4    ;  uncertainty k = 0.052420
        30         5         6        32     9        0.000000        2.637306         1    ;  uncertainty k = 0.495157
        30         5         6        32     9      180.000000       -0.245820         2    ;  uncertainty k = 0.127404
        30         5         6        32     9        0.000000        0.285027         3    ;  uncertainty k = 0.084986
        30         5         6        32     9      180.000000        0.124395         4    ;  uncertainty k = 0.052420
        31         6         7        33     9        0.000000        2.708906         1    ;  uncertainty k = 0.481339
        31         6         7        33     9      180.000000       -0.259314         2    ;  uncertainty k = 0.129327
        31         6         7        33     9        0.000000        0.271004         3    ;  uncertainty k = 0.083131
        31         6         7        33     9      180.000000        0.111025         4    ;  uncertainty k = 0.048932
        31         6         7        34     9        0.000000        2.708906         1    ;  uncertainty k = 0.481339
        31         6         7        34     9      180.000000       -0.259314         2    ;  uncertainty k = 0.129327
        31         6         7        34     9        0.000000        0.271004         3    ;  uncertainty k = 0.083131
        31         6         7        34     9      180.000000        0.111025         4    ;  uncertainty k = 0.048932
        32         6         7        33     9        0.000000        2.708906         1    ;  uncertainty k = 0.481339
        32         6         7        33     9      180.000000       -0.259314         2    ;  uncertainty k = 0.129327
        32         6         7        33     9        0.000000        0.271004         3    ;  uncertainty k = 0.083131
        32         6         7        33     9      180.000000        0.111025         4    ;  uncertainty k = 0.048932
        32         6         7        34     9        0.000000        2.708906         1    ;  uncertainty k = 0.481339
        32         6         7        34     9      180.000000       -0.259314         2    ;  uncertainty k = 0.129327
        32         6         7        34     9        0.000000        0.271004         3    ;  uncertainty k = 0.083131
        32         6         7        34     9      180.000000        0.111025         4    ;  uncertainty k = 0.048932
        33         7         8        35     9        0.000000        2.708906         1    ;  uncertainty k = 0.481339
        33         7         8        35     9      180.000000       -0.259314         2    ;  uncertainty k = 0.129327
        33         7         8        35     9        0.000000        0.271004         3    ;  uncertainty k = 0.083131
        33         7         8        35     9      180.000000        0.111025         4    ;  uncertainty k = 0.048932
        33         7         8        36     9        0.000000        2.708906         1    ;  uncertainty k = 0.481339
        33         7         8        36     9      180.000000       -0.259314         2    ;  uncertainty k = 0.129327
        33         7         8        36     9        0.000000        0.271004         3    ;  uncertainty k = 0.083131
        33         7         8        36     9      180.000000        0.111025         4    ;  uncertainty k = 0.048932
        34         7         8        35     9        0.000000        2.708906         1    ;  uncertainty k = 0.481339
        34         7         8        35     9      180.000000       -0.259314         2    ;  uncertainty k = 0.129327
        34         7         8        35     9        0.000000        0.271004         3    ;  uncertainty k = 0.083131
        34         7         8        35     9      180.000000        0.111025         4    ;  uncertainty k = 0.048932
        34         7         8        36     9        0.000000        2.708906         1    ;  uncertainty k = 0.481339
        34         7         8        36     9      180.000000       -0.259314         2    ;  uncertainty k = 0.129327
        34         7         8        36     9        0.000000        0.271004         3    ;  uncertainty k = 0.083131
        34         7         8        36     9      180.000000        0.111025         4    ;  uncertainty k = 0.048932
        35         8         9        37     9        0.000000        2.637306         1    ;  uncertainty k = 0.495157
        35         8         9        37     9      180.000000       -0.245820         2    ;  uncertainty k = 0.127404
        35         8         9        37     9        0.000000        0.285027         3    ;  uncertainty k = 0.084986
        35         8         9        37     9      180.000000        0.124395         4    ;  uncertainty k = 0.052420
        35         8         9        38     9        0.000000        2.637306         1    ;  uncertainty k = 0.495157
        35         8         9        38     9      180.000000       -0.245820         2    ;  uncertainty k = 0.127404
        35         8         9        38     9        0.000000        0.285027         3    ;  uncertainty k = 0.084986
        35         8         9        38     9      180.000000        0.124395         4    ;  uncertainty k = 0.052420
        36         8         9        37     9        0.000000        2.637306         1    ;  uncertainty k = 0.495157
        36         8         9        37     9      180.000000       -0.245820         2    ;  uncertainty k = 0.127404
        36         8         9        37     9        0.000000        0.285027         3    ;  uncertainty k = 0.084986
        36         8         9        37     9      180.000000        0.124395         4    ;  uncertainty k = 0.052420
        36         8         9        38     9        0.000000        2.637306         1    ;  uncertainty k = 0.495157
        36         8         9        38     9      180.000000       -0.245820         2    ;  uncertainty k = 0.127404
        36         8         9        38     9        0.000000        0.285027         3    ;  uncertainty k = 0.084986
        36         8         9        38     9      180.000000        0.124395         4    ;  uncertainty k = 0.052420
        39        10        11        45     9        0.000000       -0.355094         1    ;  uncertainty k = 0.387085
        39        10        11        45     9      180.000000        6.475709         2    ;  uncertainty k = 0.464153
        39        10        11        45     9        0.000000        0.607226         3    ;  uncertainty k = 0.302197
        39        10        11        45     9      180.000000        1.023497         4    ;  uncertainty k = 0.075718
        39        10        24        44     9        0.000000       -0.181166         1    ;  uncertainty k = 0.366155
        39        10        24        44     9      180.000000        7.810005         2    ;  uncertainty k = 0.425002
        39        10        24        44     9        0.000000       -0.366339         3    ;  uncertainty k = 0.308850
        39        10        24        44     9      180.000000        0.256742         4    ;  uncertainty k = 0.138610
        40        12        11        45     9        0.000000       -0.355094         1    ;  uncertainty k = 0.387085
        40        12        11        45     9      180.000000        6.475709         2    ;  uncertainty k = 0.464153
        40        12        11        45     9        0.000000        0.607226         3    ;  uncertainty k = 0.302197
        40        12        11        45     9      180.000000        1.023497         4    ;  uncertainty k = 0.075718
        40        12        13        41     9        0.000000       -0.181166         1    ;  uncertainty k = 0.366155
        40        12        13        41     9      180.000000        7.810005         2    ;  uncertainty k = 0.425002
        40        12        13        41     9        0.000000       -0.366339         3    ;  uncertainty k = 0.308850
        40        12        13        41     9      180.000000        0.256742         4    ;  uncertainty k = 0.138610
        46        45        49        47     9        0.000000       -1.978075         1    ;  uncertainty k = 0.501808
        46        45        49        47     9      180.000000       -1.305079         2    ;  uncertainty k = 0.286565
        46        45        49        47     9        0.000000        0.738955         3    ;  uncertainty k = 0.139840
        46        45        49        47     9      180.000000        0.028660         4    ;  uncertainty k = 0.089887
        46        45        49        48     9        0.000000       -1.978075         1    ;  uncertainty k = 0.501808
        46        45        49        48     9      180.000000       -1.305079         2    ;  uncertainty k = 0.286565
        46        45        49        48     9        0.000000        0.738955         3    ;  uncertainty k = 0.139840
        46        45        49        48     9      180.000000        0.028660         4    ;  uncertainty k = 0.089887
        46        45        49        50     9        0.000000       -1.978075         1    ;  uncertainty k = 0.501809
        46        45        49        50     9      180.000000       -1.305080         2    ;  uncertainty k = 0.286565
        46        45        49        50     9        0.000000        0.738955         3    ;  uncertainty k = 0.139840
        46        45        49        50     9      180.000000        0.028660         4    ;  uncertainty k = 0.089887

[ dihedrals ] ; impropers
;       ai        aj        ak        al funct           phase               k        pn
         1        14        21        22     4      180.000000       42.365689         2    ;  uncertainty k = 0.109636
         1        21        22        14     4      180.000000       42.365689         2    ;  uncertainty k = 0.109636
         1        22        14        21     4      180.000000       42.365689         2    ;  uncertainty k = 0.109636
         2        18        19        25     4      180.000000        5.131234         2    ;  uncertainty k = 0.308430
         2        19        25        18     4      180.000000        5.131234         2    ;  uncertainty k = 0.308430
         2        25        18        19     4      180.000000        5.131234         2    ;  uncertainty k = 0.308430
        10        11        24        39     4      180.000000        4.463241         2    ;  uncertainty k = 0.146010
        10        24        39        11     4      180.000000        4.463241         2    ;  uncertainty k = 0.146010
        10        39        11        24     4      180.000000        4.463241         2    ;  uncertainty k = 0.146010
        11        10        12        45     4      180.000000        5.636467         2    ;  uncertainty k = 0.312585
        11        12        45        10     4      180.000000        5.636467         2    ;  uncertainty k = 0.312585
        11        45        10        12     4      180.000000        5.636467         2    ;  uncertainty k = 0.312585
        12        11        13        40     4      180.000000        4.463241         2    ;  uncertainty k = 0.146010
        12        13        40        11     4      180.000000        4.463241         2    ;  uncertainty k = 0.146010
        12        40        11        13     4      180.000000        4.463241         2    ;  uncertainty k = 0.146010
        13        12        23        41     4      180.000000        2.803909         2    ;  uncertainty k = 0.387688
        13        23        41        12     4      180.000000        2.803909         2    ;  uncertainty k = 0.387688
        13        41        12        23     4      180.000000        2.803909         2    ;  uncertainty k = 0.387688
        15        14        16        17     4      180.000000       31.628471         2    ;  uncertainty k = 0.047312
        15        16        17        14     4      180.000000       31.628471         2    ;  uncertainty k = 0.047312
        15        17        14        16     4      180.000000       31.628471         2    ;  uncertainty k = 0.047312
        20        17        19        21     4      180.000000        9.434930         2    ;  uncertainty k = 0.065995
        20        19        21        17     4      180.000000        9.434930         2    ;  uncertainty k = 0.065995
        20        21        17        19     4      180.000000        9.434930         2    ;  uncertainty k = 0.065995
        22         1        23        43     4      180.000000        0.855683         2    ;  uncertainty k = 0.489448
        22        23        43         1     4      180.000000        0.855683         2    ;  uncertainty k = 0.489448
        22        43         1        23     4      180.000000        0.855683         2    ;  uncertainty k = 0.489448
        23        13        22        24     4      180.000000       21.826347         2    ;  uncertainty k = 0.090055
        23        22        24        13     4      180.000000       21.826347         2    ;  uncertainty k = 0.090055
        23        24        13        22     4      180.000000       21.826347         2    ;  uncertainty k = 0.090055
        24        10        23        44     4      180.000000        2.803909         2    ;  uncertainty k = 0.387687
        24        23        44        10     4      180.000000        2.803909         2    ;  uncertainty k = 0.387687
        24        44        10        23     4      180.000000        2.803909         2    ;  uncertainty k = 0.387687

[ pairs ]
;       ai        aj funct
         1        13     1
         1        16     1
         1        17     1
         1        19     1
         1        24     1
         2        15     1
         2        21     1
         3         6     1
         3         8     1
         3        14     1
         3        17     1
         3        29     1
         3        30     1
         3        37     1
         3        38     1
         4         7     1
         4        15     1
         4        31     1
         4        32     1
         4        35     1
         4        36     1
         5         8     1
         5        16     1
         5        26     1
         5        27     1
         5        33     1
         5        34     1
         5        37     1
         5        38     1
         6         9     1
         6        28     1
         6        35     1
         6        36     1
         7        29     1
         7        30     1
         7        37     1
         7        38     1
         8        28     1
         8        31     1
         8        32     1
         9        16     1
         9        26     1
         9        27     1
         9        29     1
         9        30     1
         9        33     1
         9        34     1
        10        13     1
        10        22     1
        10        40     1
        10        46     1
        10        49     1
        11        23     1
        11        41     1
        11        44     1
        11        47     1
        11        48     1
        11        50     1
        12        22     1
        12        24     1
        12        39     1
        12        46     1
        12        49     1
        13        43     1
        13        44     1
        13        45     1
        14        18     1
        14        20     1
        14        23     1
        14        43     1
        15        19     1
        15        21     1
        15        22     1
        15        26     1
        15        27     1
        16        18     1
        16        20     1
        16        28     1
        17        25     1
        17        42     1
        18        21     1
        18        42     1
        20        22     1
        20        25     1
        21        23     1
        21        42     1
        21        43     1
        22        41     1
        22        44     1
        23        39     1
        23        40     1
        24        41     1
        24        43     1
        24        45     1
        25        42     1
        26        28     1
        27        28     1
        28        29     1
        28        30     1
        28        37     1
        28        38     1
        29        31     1
        29        32     1
        30        31     1
        30        32     1
        31        33     1
        31        34     1
        32        33     1
        32        34     1
        33        35     1
        33        36     1
        34        35     1
        34        36     1
        35        37     1
        35        38     1
        36        37     1
        36        38     1
        39        44     1
        39        45     1
        40        41     1
        40        45     1
        46        47     1
        46        48     1
        46        50     1
