; ITP file created by ByteFF-joint-25, 2026-02-18 03:14:34.798043

[ atomtypes ]
;name           bonded.type        at.num        mass        charge   ptype           sigma         epsilon
 c0bf                                   6      0.0000       0.00000       A     3.31532e-01     4.13480e-01    ;  uncertainty sigma = 0.000015, epsilon = 0.000570
 c1bf                                   6      0.0000       0.00000       A     3.31515e-01     4.13133e-01    ;  uncertainty sigma = 0.000010, epsilon = 0.000674
 c2bf                                   6      0.0000       0.00000       A     3.39746e-01     4.50473e-01    ;  uncertainty sigma = 0.000018, epsilon = 0.001024
 c3bf                                   6      0.0000       0.00000       A     3.39768e-01     4.51022e-01    ;  uncertainty sigma = 0.000006, epsilon = 0.000645
 c4bf                                   6      0.0000       0.00000       A     3.39777e-01     4.50895e-01    ;  uncertainty sigma = 0.000002, epsilon = 0.000606
 c5bf                                   6      0.0000       0.00000       A     3.39768e-01     4.50841e-01    ;  uncertainty sigma = 0.000004, epsilon = 0.000577
 c6bf                                   6      0.0000       0.00000       A     3.39768e-01     4.50847e-01    ;  uncertainty sigma = 0.000004, epsilon = 0.000550
 c7bf                                   6      0.0000       0.00000       A     3.39768e-01     4.50841e-01    ;  uncertainty sigma = 0.000004, epsilon = 0.000577
 c8bf                                   6      0.0000       0.00000       A     3.39777e-01     4.50895e-01    ;  uncertainty sigma = 0.000002, epsilon = 0.000606
 c9bf                                   6      0.0000       0.00000       A     3.31553e-01     4.13413e-01    ;  uncertainty sigma = 0.000008, epsilon = 0.000904
 c10bf                                  6      0.0000       0.00000       A     3.31496e-01     4.12923e-01    ;  uncertainty sigma = 0.000039, epsilon = 0.002090
 c11bf                                  6      0.0000       0.00000       A     3.31538e-01     4.12724e-01    ;  uncertainty sigma = 0.000007, epsilon = 0.000706
 c12bf                                  6      0.0000       0.00000       A     3.31496e-01     4.13427e-01    ;  uncertainty sigma = 0.000013, epsilon = 0.000539
 n13bf                                  7      0.0000       0.00000       A     3.38454e-01     3.93128e-01    ;  uncertainty sigma = 0.000014, epsilon = 0.001611
 c14bf                                  6      0.0000       0.00000       A     3.31555e-01     4.13691e-01    ;  uncertainty sigma = 0.000019, epsilon = 0.001615
 o15bf                                  8      0.0000       0.00000       A     3.15563e-01     3.02719e-01    ;  uncertainty sigma = 0.000043, epsilon = 0.000667
 c16bf                                  6      0.0000       0.00000       A     3.31535e-01     4.13137e-01    ;  uncertainty sigma = 0.000017, epsilon = 0.001511
 n17bf                                  7      0.0000       0.00000       A     3.38417e-01     3.93071e-01    ;  uncertainty sigma = 0.000022, epsilon = 0.000674
 n18bf                                  7      0.0000       0.00000       A     3.20668e-01     8.53150e-01    ;  uncertainty sigma = 0.000013, epsilon = 0.002761
 c19bf                                  6      0.0000       0.00000       A     3.31502e-01     4.13357e-01    ;  uncertainty sigma = 0.000016, epsilon = 0.001431
 n20bf                                  7      0.0000       0.00000       A     3.38400e-01     3.93907e-01    ;  uncertainty sigma = 0.000032, epsilon = 0.000830
 n21bf                                  7      0.0000       0.00000       A     3.27850e-01     6.46412e-01    ;  uncertainty sigma = 0.000026, epsilon = 0.002331
 c22bf                                  6      0.0000       0.00000       A     3.31546e-01     4.13259e-01    ;  uncertainty sigma = 0.000013, epsilon = 0.000736
 c23bf                                  6      0.0000       0.00000       A     3.31513e-01     4.13698e-01    ;  uncertainty sigma = 0.000006, epsilon = 0.000576
 h24bf                                  1      0.0000       0.00000       A     2.44744e-01     6.72455e-02    ;  uncertainty sigma = 0.000032, epsilon = 0.000726
 h25bf                                  1      0.0000       0.00000       A     2.42151e-01     8.65744e-02    ;  uncertainty sigma = 0.000032, epsilon = 0.000680
 h26bf                                  1      0.0000       0.00000       A     2.42151e-01     8.65744e-02    ;  uncertainty sigma = 0.000032, epsilon = 0.000680
 h27bf                                  1      0.0000       0.00000       A     2.60029e-01     8.68866e-02    ;  uncertainty sigma = 0.000020, epsilon = 0.001012
 h28bf                                  1      0.0000       0.00000       A     2.60022e-01     8.68135e-02    ;  uncertainty sigma = 0.000005, epsilon = 0.000610
 h29bf                                  1      0.0000       0.00000       A     2.60022e-01     8.68135e-02    ;  uncertainty sigma = 0.000005, epsilon = 0.000610
 h30bf                                  1      0.0000       0.00000       A     2.60037e-01     8.67480e-02    ;  uncertainty sigma = 0.000010, epsilon = 0.000549
 h31bf                                  1      0.0000       0.00000       A     2.60037e-01     8.67480e-02    ;  uncertainty sigma = 0.000010, epsilon = 0.000549
 h32bf                                  1      0.0000       0.00000       A     2.60038e-01     8.68003e-02    ;  uncertainty sigma = 0.000010, epsilon = 0.000496
 h33bf                                  1      0.0000       0.00000       A     2.60038e-01     8.68003e-02    ;  uncertainty sigma = 0.000010, epsilon = 0.000496
 h34bf                                  1      0.0000       0.00000       A     2.60037e-01     8.67480e-02    ;  uncertainty sigma = 0.000010, epsilon = 0.000549
 h35bf                                  1      0.0000       0.00000       A     2.60037e-01     8.67480e-02    ;  uncertainty sigma = 0.000010, epsilon = 0.000549
 h36bf                                  1      0.0000       0.00000       A     2.60022e-01     8.68135e-02    ;  uncertainty sigma = 0.000005, epsilon = 0.000610
 h37bf                                  1      0.0000       0.00000       A     2.60022e-01     8.68135e-02    ;  uncertainty sigma = 0.000005, epsilon = 0.000610
 h38bf                                  1      0.0000       0.00000       A     2.62550e-01     6.71748e-02    ;  uncertainty sigma = 0.000016, epsilon = 0.000599
 h39bf                                  1      0.0000       0.00000       A     1.10659e-01     4.13535e-02    ;  uncertainty sigma = 0.000077, epsilon = 0.001060
 h40bf                                  1      0.0000       0.00000       A     1.10636e-01     4.13049e-02    ;  uncertainty sigma = 0.000070, epsilon = 0.000395
 h41bf                                  1      0.0000       0.00000       A     2.62560e-01     6.70500e-02    ;  uncertainty sigma = 0.000011, epsilon = 0.000403
 s42bf                                 16      0.0000       0.00000       A     4.06010e-01     2.55388e-01    ;  uncertainty sigma = 0.000028, epsilon = 0.002609
 o43bf                                  8      0.0000       0.00000       A     3.04835e-01     6.12783e-01    ;  uncertainty sigma = 0.000033, epsilon = 0.001965
 o44bf                                  8      0.0000       0.00000       A     3.04835e-01     6.12783e-01    ;  uncertainty sigma = 0.000033, epsilon = 0.001965
 h45bf                                  1      0.0000       0.00000       A     1.10685e-01     4.14802e-02    ;  uncertainty sigma = 0.000115, epsilon = 0.000805
 n46bf                                  7      0.0000       0.00000       A     3.65150e-01     1.34929e-01    ;  uncertainty sigma = 0.000065, epsilon = 0.002027
 h47bf                                  1      0.0000       0.00000       A     1.10685e-01     4.14802e-02    ;  uncertainty sigma = 0.000115, epsilon = 0.000805
 o48bf                                  8      0.0000       0.00000       A     3.15603e-01     3.04801e-01    ;  uncertainty sigma = 0.000016, epsilon = 0.001863
 c49bf                                  6      0.0000       0.00000       A     3.39776e-01     4.50782e-01    ;  uncertainty sigma = 0.000006, epsilon = 0.000532
 h50bf                                  1      0.0000       0.00000       A     2.42205e-01     8.67536e-02    ;  uncertainty sigma = 0.000015, epsilon = 0.000624
 h51bf                                  1      0.0000       0.00000       A     2.42205e-01     8.67536e-02    ;  uncertainty sigma = 0.000015, epsilon = 0.000624
 h52bf                                  1      0.0000       0.00000       A     2.42205e-01     8.67537e-02    ;  uncertainty sigma = 0.000015, epsilon = 0.000623
 h53bf                                  1      0.0000       0.00000       A     2.62566e-01     6.73184e-02    ;  uncertainty sigma = 0.000017, epsilon = 0.000719

[ moleculetype ]
;name             nrexcl
 MOL                   3

[ atoms ]
;       nr            type      resi   res      atom      cgnr      charge          mass ; qtot
         1            c0bf         1   UNL        c0         1     0.95663       12.0110 ; qtot    0.957
         2            c1bf         1   UNL        c1         2     0.41068       12.0110 ; qtot    1.367
         3            c2bf         1   UNL        c2         3     0.14743       12.0110 ; qtot    1.515
         4            c3bf         1   UNL        c3         4    -0.07357       12.0110 ; qtot    1.441
         5            c4bf         1   UNL        c4         5    -0.07055       12.0110 ; qtot    1.371
         6            c5bf         1   UNL        c5         6    -0.07454       12.0110 ; qtot    1.296
         7            c6bf         1   UNL        c6         7    -0.07568       12.0110 ; qtot    1.220
         8            c7bf         1   UNL        c7         8    -0.07454       12.0110 ; qtot    1.146
         9            c8bf         1   UNL        c8         9    -0.07055       12.0110 ; qtot    1.075
        10            c9bf         1   UNL        c9        10     0.01841       12.0110 ; qtot    1.094
        11           c10bf         1   UNL       c10        11    -0.30310       12.0110 ; qtot    0.791
        12           c11bf         1   UNL       c11        12     0.24538       12.0110 ; qtot    1.036
        13           c12bf         1   UNL       c12        13    -0.25528       12.0110 ; qtot    0.781
        14           n13bf         1   UNL       n13        14    -0.85541       14.0070 ; qtot   -0.075
        15           c14bf         1   UNL       c14        15     0.76711       12.0110 ; qtot    0.692
        16           o15bf         1   UNL       o15        16    -0.41736       15.9990 ; qtot    0.275
        17           c16bf         1   UNL       c16        17    -0.22388       12.0110 ; qtot    0.051
        18           n17bf         1   UNL       n17        18    -0.51902       14.0070 ; qtot   -0.468
        19           n18bf         1   UNL       n18        19    -0.38521       14.0070 ; qtot   -0.853
        20           c19bf         1   UNL       c19        20     0.49592       12.0110 ; qtot   -0.357
        21           n20bf         1   UNL       n20        21    -0.78034       14.0070 ; qtot   -1.137
        22           n21bf         1   UNL       n21        22    -0.74054       14.0070 ; qtot   -1.878
        23           c22bf         1   UNL       c22        23     0.25769       12.0110 ; qtot   -1.620
        24           c23bf         1   UNL       c23        24    -0.20963       12.0110 ; qtot   -1.830
        25           h24bf         1   UNL       h24        25     0.07138        1.0080 ; qtot   -1.759
        26           h25bf         1   UNL       h25        26     0.05737        1.0080 ; qtot   -1.701
        27           h26bf         1   UNL       h26        27     0.05737        1.0080 ; qtot   -1.644
        28           h27bf         1   UNL       h27        28     0.05674        1.0080 ; qtot   -1.587
        29           h28bf         1   UNL       h28        29     0.04108        1.0080 ; qtot   -1.546
        30           h29bf         1   UNL       h29        30     0.04108        1.0080 ; qtot   -1.505
        31           h30bf         1   UNL       h30        31     0.03886        1.0080 ; qtot   -1.466
        32           h31bf         1   UNL       h31        32     0.03886        1.0080 ; qtot   -1.427
        33           h32bf         1   UNL       h32        33     0.03826        1.0080 ; qtot   -1.389
        34           h33bf         1   UNL       h33        34     0.03826        1.0080 ; qtot   -1.351
        35           h34bf         1   UNL       h34        35     0.03886        1.0080 ; qtot   -1.312
        36           h35bf         1   UNL       h35        36     0.03886        1.0080 ; qtot   -1.273
        37           h36bf         1   UNL       h36        37     0.04108        1.0080 ; qtot   -1.232
        38           h37bf         1   UNL       h37        38     0.04108        1.0080 ; qtot   -1.191
        39           h38bf         1   UNL       h38        39     0.16454        1.0080 ; qtot   -1.026
        40           h39bf         1   UNL       h39        40     0.32141        1.0080 ; qtot   -0.705
        41           h40bf         1   UNL       h40        41     0.45698        1.0080 ; qtot   -0.248
        42           h41bf         1   UNL       h41        42     0.15898        1.0080 ; qtot   -0.089
        43           s42bf         1   UNL       s42        43     1.20506       32.0670 ; qtot    1.116
        44           o43bf         1   UNL       o43        44    -0.59725       15.9990 ; qtot    0.519
        45           o44bf         1   UNL       o44        45    -0.59725       15.9990 ; qtot   -0.078
        46           h45bf         1   UNL       h45        46     0.41723        1.0080 ; qtot    0.339
        47           n46bf         1   UNL       n46        47    -0.85038       14.0070 ; qtot   -0.511
        48           h47bf         1   UNL       h47        48     0.41723        1.0080 ; qtot   -0.094
        49           o48bf         1   UNL       o48        49    -0.33861       15.9990 ; qtot   -0.433
        50           c49bf         1   UNL       c49        50     0.12589       12.0110 ; qtot   -0.307
        51           h50bf         1   UNL       h50        51     0.04697        1.0080 ; qtot   -0.260
        52           h51bf         1   UNL       h51        52     0.04697        1.0080 ; qtot   -0.213
        53           h52bf         1   UNL       h52        53     0.04697        1.0080 ; qtot   -0.166
        54           h53bf         1   UNL       h53        54     0.16607        1.0080 ; qtot   -0.000

[ bonds ]
;       ai        aj funct               r               k
         1        14     1        0.137692   563792.212402    ;  uncertainty r = 0.000197, k = 15.011635
         1        21     1        0.135717   497270.596191    ;  uncertainty r = 0.000139, k = 6.796764
         1        22     1        0.140137   572144.941211    ;  uncertainty r = 0.000218, k = 16.793896
         2        18     1        0.131489   458656.699219    ;  uncertainty r = 0.000037, k = 5.835382
         2        19     1        0.139342   329079.414355    ;  uncertainty r = 0.000043, k = 9.668559
         2        25     1        0.108332   339946.501416    ;  uncertainty r = 0.000011, k = 1.564861
         3         4     1        0.152057   199736.687842    ;  uncertainty r = 0.000061, k = 5.790512
         3        16     1        0.143315   239169.610986    ;  uncertainty r = 0.000097, k = 7.333188
         3        26     1        0.109496   307818.647168    ;  uncertainty r = 0.000046, k = 1.114744
         3        27     1        0.109496   307818.647168    ;  uncertainty r = 0.000046, k = 1.114744
         4         5     1        0.153587   205328.599756    ;  uncertainty r = 0.000046, k = 2.392583
         4         9     1        0.153587   205328.599756    ;  uncertainty r = 0.000046, k = 2.392583
         4        28     1        0.109837   304071.280664    ;  uncertainty r = 0.000031, k = 1.439771
         5         6     1        0.153586   210762.322046    ;  uncertainty r = 0.000027, k = 3.760745
         5        29     1        0.109775   307348.917578    ;  uncertainty r = 0.000003, k = 1.364875
         5        30     1        0.109775   307348.917578    ;  uncertainty r = 0.000003, k = 1.364875
         6         7     1        0.153619   211447.099634    ;  uncertainty r = 0.000025, k = 2.144177
         6        31     1        0.109778   306677.214990    ;  uncertainty r = 0.000007, k = 1.120477
         6        32     1        0.109778   306677.214990    ;  uncertainty r = 0.000007, k = 1.120477
         7         8     1        0.153619   211447.099634    ;  uncertainty r = 0.000025, k = 2.144177
         7        33     1        0.109791   306489.006494    ;  uncertainty r = 0.000014, k = 1.016736
         7        34     1        0.109791   306489.006494    ;  uncertainty r = 0.000014, k = 1.016736
         8         9     1        0.153586   210762.322046    ;  uncertainty r = 0.000027, k = 3.760745
         8        35     1        0.109778   306677.214990    ;  uncertainty r = 0.000007, k = 1.120477
         8        36     1        0.109778   306677.214990    ;  uncertainty r = 0.000007, k = 1.120477
         9        37     1        0.109775   307348.917578    ;  uncertainty r = 0.000003, k = 1.364875
         9        38     1        0.109775   307348.917578    ;  uncertainty r = 0.000003, k = 1.364875
        10        11     1        0.139562   347744.206689    ;  uncertainty r = 0.000174, k = 8.085762
        10        24     1        0.138675   358491.499170    ;  uncertainty r = 0.000064, k = 2.662419
        10        54     1        0.108445   327536.487744    ;  uncertainty r = 0.000039, k = 2.015122
        11        12     1        0.140892   343804.111621    ;  uncertainty r = 0.000197, k = 12.701558
        11        43     1        0.179141   154391.528052    ;  uncertainty r = 0.000106, k = 30.448140
        12        13     1        0.139088   345455.060205    ;  uncertainty r = 0.000088, k = 3.635094
        12        49     1        0.136523   310257.568799    ;  uncertainty r = 0.000131, k = 5.789133
        13        23     1        0.140220   359377.151660    ;  uncertainty r = 0.000086, k = 3.868847
        13        39     1        0.108776   338901.548438    ;  uncertainty r = 0.000086, k = 2.819001
        14        15     1        0.133977   398017.785986    ;  uncertainty r = 0.000160, k = 21.625405
        15        16     1        0.133486   312483.919531    ;  uncertainty r = 0.000114, k = 9.032125
        15        17     1        0.140565   391002.895264    ;  uncertainty r = 0.000249, k = 16.686578
        17        18     1        0.138948   295428.858887    ;  uncertainty r = 0.000129, k = 8.760058
        17        20     1        0.141391   511113.445996    ;  uncertainty r = 0.000118, k = 11.674714
        19        20     1        0.138394   420661.438721    ;  uncertainty r = 0.000137, k = 16.534878
        19        40     1        0.101710   428654.783789    ;  uncertainty r = 0.000066, k = 2.300302
        20        21     1        0.134317   482282.713477    ;  uncertainty r = 0.000062, k = 12.474368
        22        23     1        0.140756   339579.814062    ;  uncertainty r = 0.000119, k = 5.673444
        22        41     1        0.102412   458651.591797    ;  uncertainty r = 0.000064, k = 10.180086
        23        24     1        0.140246   357883.664893    ;  uncertainty r = 0.000060, k = 5.053200
        24        42     1        0.108774   335806.859375    ;  uncertainty r = 0.000049, k = 2.081848
        43        44     1        0.148017   569429.580371    ;  uncertainty r = 0.000041, k = 7.607227
        43        45     1        0.148017   569429.580371    ;  uncertainty r = 0.000041, k = 7.607227
        43        47     1        0.172947   408977.981348    ;  uncertainty r = 0.000189, k = 20.901647
        46        47     1        0.102752   455164.550586    ;  uncertainty r = 0.000045, k = 2.025896
        47        48     1        0.102752   455164.550586    ;  uncertainty r = 0.000045, k = 2.025896
        49        50     1        0.143297   247173.273047    ;  uncertainty r = 0.000098, k = 2.764198
        50        51     1        0.109514   311275.120459    ;  uncertainty r = 0.000035, k = 1.086421
        50        52     1        0.109514   311275.120459    ;  uncertainty r = 0.000035, k = 1.086421
        50        53     1        0.109514   311275.069385    ;  uncertainty r = 0.000035, k = 1.086443

[ angles ]
;       ai        aj        ak funct           theta             cth
         1        14        15     1      126.742821      406.753291    ;  uncertainty theta = 0.002818, k = 0.376100
         1        21        20     1      109.784683      447.969004    ;  uncertainty theta = 0.006143, k = 0.312790
         1        22        23     1      116.141098      380.217425    ;  uncertainty theta = 0.003331, k = 0.117756
         1        22        41     1      117.661514      462.146920    ;  uncertainty theta = 0.005189, k = 0.078690
         2        18        17     1      106.111351      853.549407    ;  uncertainty theta = 0.003794, k = 0.182834
         2        19        20     1      102.354355      897.551379    ;  uncertainty theta = 0.005127, k = 0.150610
         2        19        40     1      117.932297      277.348969    ;  uncertainty theta = 0.004851, k = 0.101165
         3         4         5     1      109.370621      534.546189    ;  uncertainty theta = 0.000881, k = 0.079597
         3         4         9     1      109.370621      534.546189    ;  uncertainty theta = 0.000881, k = 0.079597
         3         4        28     1      104.519203      390.668774    ;  uncertainty theta = 0.001871, k = 0.051672
         3        16        15     1      109.298241      487.255900    ;  uncertainty theta = 0.006273, k = 0.134319
         4         3        16     1      108.360596      589.984285    ;  uncertainty theta = 0.002151, k = 0.068728
         4         3        26     1      110.388329      401.234498    ;  uncertainty theta = 0.001434, k = 0.050678
         4         3        27     1      110.388329      401.234498    ;  uncertainty theta = 0.001434, k = 0.050678
         4         5         6     1      109.808632      579.430436    ;  uncertainty theta = 0.001205, k = 0.063369
         4         5        29     1      108.107224      391.796365    ;  uncertainty theta = 0.000562, k = 0.017913
         4         5        30     1      108.107224      391.796365    ;  uncertainty theta = 0.000562, k = 0.017913
         4         9         8     1      109.808632      579.430436    ;  uncertainty theta = 0.001205, k = 0.063369
         4         9        37     1      108.107224      391.796365    ;  uncertainty theta = 0.000562, k = 0.017913
         4         9        38     1      108.107224      391.796365    ;  uncertainty theta = 0.000562, k = 0.017913
         5         4         9     1      109.660385      590.498730    ;  uncertainty theta = 0.000773, k = 0.120988
         5         4        28     1      107.825272      400.301755    ;  uncertainty theta = 0.001267, k = 0.020179
         5         6         7     1      109.478188      613.671677    ;  uncertainty theta = 0.000704, k = 0.027802
         5         6        31     1      108.525650      399.342996    ;  uncertainty theta = 0.001032, k = 0.020585
         5         6        32     1      108.525650      399.342996    ;  uncertainty theta = 0.001032, k = 0.020585
         6         5        29     1      108.752831      406.358231    ;  uncertainty theta = 0.000546, k = 0.018181
         6         5        30     1      108.752831      406.358231    ;  uncertainty theta = 0.000546, k = 0.018181
         6         7         8     1      108.993248      613.337461    ;  uncertainty theta = 0.001325, k = 0.034156
         6         7        33     1      108.795181      401.635590    ;  uncertainty theta = 0.001133, k = 0.009890
         6         7        34     1      108.795181      401.635590    ;  uncertainty theta = 0.001133, k = 0.009890
         7         6        31     1      108.826157      401.626844    ;  uncertainty theta = 0.001001, k = 0.013174
         7         6        32     1      108.826157      401.626844    ;  uncertainty theta = 0.001001, k = 0.013174
         7         8         9     1      109.478188      613.671677    ;  uncertainty theta = 0.000704, k = 0.027802
         7         8        35     1      108.826157      401.626844    ;  uncertainty theta = 0.001001, k = 0.013174
         7         8        36     1      108.826157      401.626844    ;  uncertainty theta = 0.001001, k = 0.013174
         8         7        33     1      108.795181      401.635590    ;  uncertainty theta = 0.001133, k = 0.009890
         8         7        34     1      108.795181      401.635590    ;  uncertainty theta = 0.001133, k = 0.009890
         8         9        37     1      108.752831      406.358231    ;  uncertainty theta = 0.000546, k = 0.018181
         8         9        38     1      108.752831      406.358231    ;  uncertainty theta = 0.000546, k = 0.018181
         9         4        28     1      107.825272      400.301755    ;  uncertainty theta = 0.001267, k = 0.020179
         9         8        35     1      108.525650      399.342996    ;  uncertainty theta = 0.001032, k = 0.020585
         9         8        36     1      108.525650      399.342996    ;  uncertainty theta = 0.001032, k = 0.020585
        10        11        12     1      124.332321      411.219795    ;  uncertainty theta = 0.006322, k = 0.225941
        10        11        43     1      116.462387      337.584593    ;  uncertainty theta = 0.005260, k = 0.146117
        10        24        23     1      118.801514      495.791934    ;  uncertainty theta = 0.003964, k = 0.156158
        10        24        42     1      120.632385      291.327248    ;  uncertainty theta = 0.004107, k = 0.116736
        11        10        24     1      122.425674      490.009821    ;  uncertainty theta = 0.005300, k = 0.139531
        11        10        54     1      117.716064      248.106776    ;  uncertainty theta = 0.006012, k = 0.233274
        11        12        13     1      124.068459      366.382600    ;  uncertainty theta = 0.007589, k = 0.214657
        11        12        49     1      117.504517      452.747572    ;  uncertainty theta = 0.002574, k = 0.153541
        11        43        44     1      114.628922      515.649303    ;  uncertainty theta = 0.009381, k = 0.155699
        11        43        45     1      114.628922      515.649303    ;  uncertainty theta = 0.009381, k = 0.155699
        11        43        47     1      107.710266      700.610213    ;  uncertainty theta = 0.005302, k = 0.103276
        12        11        43     1      116.832504      368.107728    ;  uncertainty theta = 0.001918, k = 0.389227
        12        13        23     1      120.495728      514.133069    ;  uncertainty theta = 0.003817, k = 0.105531
        12        13        39     1      118.469093      270.669961    ;  uncertainty theta = 0.002441, k = 0.150197
        12        49        50     1      111.047218      493.985183    ;  uncertainty theta = 0.002281, k = 0.103645
        13        12        49     1      120.255043      434.527706    ;  uncertainty theta = 0.002631, k = 0.301613
        13        23        22     1      119.495644      573.024580    ;  uncertainty theta = 0.003718, k = 0.160104
        13        23        24     1      119.107437      364.879518    ;  uncertainty theta = 0.005283, k = 0.189160
        14         1        21     1      129.092941      757.787864    ;  uncertainty theta = 0.006481, k = 0.120442
        14         1        22     1      120.655128      870.336864    ;  uncertainty theta = 0.004983, k = 0.128823
        14        15        16     1      118.935570      616.218302    ;  uncertainty theta = 0.007793, k = 0.186676
        14        15        17     1      121.320839      502.911839    ;  uncertainty theta = 0.004217, k = 0.154158
        15        17        18     1      125.572182      337.569367    ;  uncertainty theta = 0.011808, k = 0.247348
        15        17        20     1      115.411545      389.079632    ;  uncertainty theta = 0.002296, k = 0.591650
        16         3        26     1      105.912796      425.655923    ;  uncertainty theta = 0.002429, k = 0.021585
        16         3        27     1      105.912796      425.655923    ;  uncertainty theta = 0.002429, k = 0.021585
        16        15        17     1      120.841614      418.373793    ;  uncertainty theta = 0.012439, k = 0.222946
        17        20        19     1      106.195297      652.909446    ;  uncertainty theta = 0.002633, k = 0.118945
        17        20        21     1      124.131241      528.955765    ;  uncertainty theta = 0.002054, k = 0.262938
        18         2        19     1      113.227951      928.193356    ;  uncertainty theta = 0.003566, k = 0.156145
        18         2        25     1      123.515884      268.877032    ;  uncertainty theta = 0.002962, k = 0.132496
        18        17        20     1      111.612305      768.764927    ;  uncertainty theta = 0.003022, k = 0.071308
        19         2        25     1      119.012390      282.043838    ;  uncertainty theta = 0.003618, k = 0.085884
        19        20        21     1      130.784088      493.318920    ;  uncertainty theta = 0.002562, k = 0.208672
        20        19        40     1      119.864441      316.787906    ;  uncertainty theta = 0.004484, k = 0.091289
        21         1        22     1      120.506004      820.778656    ;  uncertainty theta = 0.005459, k = 0.118759
        22        23        24     1      120.216530      571.704886    ;  uncertainty theta = 0.003027, k = 0.091740
        23        13        39     1      119.715271      274.724201    ;  uncertainty theta = 0.004048, k = 0.093730
        23        22        41     1      113.406212      347.418743    ;  uncertainty theta = 0.005805, k = 0.058741
        23        24        42     1      119.618851      273.659335    ;  uncertainty theta = 0.001175, k = 0.096791
        24        10        54     1      120.362808      273.959492    ;  uncertainty theta = 0.004976, k = 0.048078
        26         3        27     1      107.711685      332.413935    ;  uncertainty theta = 0.002533, k = 0.071911
        29         5        30     1      104.326004      317.253224    ;  uncertainty theta = 0.001073, k = 0.013630
        31         6        32     1      104.066360      312.019010    ;  uncertainty theta = 0.001961, k = 0.032491
        33         7        34     1      103.945633      313.844945    ;  uncertainty theta = 0.001747, k = 0.045918
        35         8        36     1      104.066360      312.019010    ;  uncertainty theta = 0.001961, k = 0.032491
        37         9        38     1      104.326004      317.253224    ;  uncertainty theta = 0.001073, k = 0.013630
        43        47        46     1      116.169846      478.522623    ;  uncertainty theta = 0.003600, k = 0.082671
        43        47        48     1      116.169846      478.522623    ;  uncertainty theta = 0.003600, k = 0.082671
        44        43        45     1      126.205734      836.436990    ;  uncertainty theta = 0.003729, k = 0.063107
        44        43        47     1      116.193283     1129.734777    ;  uncertainty theta = 0.003383, k = 0.044803
        45        43        47     1      116.193283     1129.734777    ;  uncertainty theta = 0.003383, k = 0.044803
        46        47        48     1      109.904579      335.007420    ;  uncertainty theta = 0.001417, k = 0.131257
        49        50        51     1      108.603760      441.317928    ;  uncertainty theta = 0.001080, k = 0.061116
        49        50        52     1      108.603760      441.317960    ;  uncertainty theta = 0.001080, k = 0.061116
        49        50        53     1      108.603760      441.317960    ;  uncertainty theta = 0.001080, k = 0.061116
        51        50        52     1      109.118187      330.875963    ;  uncertainty theta = 0.001351, k = 0.013309
        51        50        53     1      109.118187      330.875963    ;  uncertainty theta = 0.001351, k = 0.013309
        52        50        53     1      109.118187      330.875963    ;  uncertainty theta = 0.001351, k = 0.013309

[ dihedrals ] ; propers for gromacs 4.5 or higher, use funct 9
;       ai        aj        ak        al funct           phase               k        pn
         1        14        15        16     9        0.000000        0.439457         1    ;  uncertainty k = 1.483412
         1        14        15        16     9      180.000000       14.711091         2    ;  uncertainty k = 0.661713
         1        14        15        16     9        0.000000        2.434957         3    ;  uncertainty k = 0.461929
         1        14        15        16     9      180.000000        1.704861         4    ;  uncertainty k = 0.321312
         1        14        15        17     9        0.000000       -0.025149         1    ;  uncertainty k = 1.002386
         1        14        15        17     9      180.000000       13.567653         2    ;  uncertainty k = 0.282700
         1        14        15        17     9        0.000000        0.983280         3    ;  uncertainty k = 0.510106
         1        14        15        17     9      180.000000        1.341124         4    ;  uncertainty k = 0.375485
         1        21        20        17     9        0.000000       -0.017905         1    ;  uncertainty k = 1.073337
         1        21        20        17     9      180.000000       12.505613         2    ;  uncertainty k = 0.302253
         1        21        20        17     9        0.000000       -1.162332         3    ;  uncertainty k = 0.668118
         1        21        20        17     9      180.000000        1.142664         4    ;  uncertainty k = 0.203257
         1        21        20        19     9        0.000000       -0.620344         1    ;  uncertainty k = 0.818592
         1        21        20        19     9      180.000000       16.881254         2    ;  uncertainty k = 0.563329
         1        21        20        19     9        0.000000        1.129661         3    ;  uncertainty k = 0.402579
         1        21        20        19     9      180.000000        1.161579         4    ;  uncertainty k = 0.378875
         1        22        23        13     9        0.000000       -0.206262         1    ;  uncertainty k = 0.645661
         1        22        23        13     9      180.000000        7.780346         2    ;  uncertainty k = 0.038421
         1        22        23        13     9        0.000000        0.932631         3    ;  uncertainty k = 0.227906
         1        22        23        13     9      180.000000       -0.036972         4    ;  uncertainty k = 0.109252
         1        22        23        24     9        0.000000        0.082054         1    ;  uncertainty k = 0.645574
         1        22        23        24     9      180.000000        8.377007         2    ;  uncertainty k = 0.140909
         1        22        23        24     9        0.000000        1.100793         3    ;  uncertainty k = 0.262909
         1        22        23        24     9      180.000000       -0.153620         4    ;  uncertainty k = 0.146552
         2        18        17        15     9        0.000000        0.735464         1    ;  uncertainty k = 0.750680
         2        18        17        15     9      180.000000        7.847477         2    ;  uncertainty k = 0.940977
         2        18        17        15     9        0.000000        0.398428         3    ;  uncertainty k = 0.869847
         2        18        17        15     9      180.000000        0.957178         4    ;  uncertainty k = 0.474924
         2        18        17        20     9        0.000000        0.121290         1    ;  uncertainty k = 1.156313
         2        18        17        20     9      180.000000       12.718757         2    ;  uncertainty k = 0.701871
         2        18        17        20     9        0.000000       -8.821906         3    ;  uncertainty k = 1.315956
         2        18        17        20     9      180.000000        2.424357         4    ;  uncertainty k = 0.269865
         2        19        20        17     9        0.000000        0.489619         1    ;  uncertainty k = 1.421474
         2        19        20        17     9      180.000000       13.059893         2    ;  uncertainty k = 1.109382
         2        19        20        17     9        0.000000       -9.373226         3    ;  uncertainty k = 1.895988
         2        19        20        17     9      180.000000        0.964849         4    ;  uncertainty k = 0.536529
         2        19        20        21     9        0.000000        0.801167         1    ;  uncertainty k = 2.152286
         2        19        20        21     9      180.000000        8.204403         2    ;  uncertainty k = 1.378239
         2        19        20        21     9        0.000000       -0.096554         3    ;  uncertainty k = 1.003206
         2        19        20        21     9      180.000000        0.365154         4    ;  uncertainty k = 0.210995
         3         4         5         6     9        0.000000       -4.769153         1    ;  uncertainty k = 0.573785
         3         4         5         6     9      180.000000        0.472126         2    ;  uncertainty k = 0.225074
         3         4         5         6     9        0.000000        0.768371         3    ;  uncertainty k = 0.170758
         3         4         5         6     9      180.000000       -0.381064         4    ;  uncertainty k = 0.118636
         3         4         5        29     9        0.000000        0.009695         1    ;  uncertainty k = 0.581490
         3         4         5        29     9      180.000000       -1.004637         2    ;  uncertainty k = 0.232678
         3         4         5        29     9        0.000000        0.571898         3    ;  uncertainty k = 0.095316
         3         4         5        29     9      180.000000       -0.185725         4    ;  uncertainty k = 0.080856
         3         4         5        30     9        0.000000        0.009695         1    ;  uncertainty k = 0.581490
         3         4         5        30     9      180.000000       -1.004637         2    ;  uncertainty k = 0.232678
         3         4         5        30     9        0.000000        0.571898         3    ;  uncertainty k = 0.095316
         3         4         5        30     9      180.000000       -0.185725         4    ;  uncertainty k = 0.080856
         3         4         9         8     9        0.000000       -4.769153         1    ;  uncertainty k = 0.573785
         3         4         9         8     9      180.000000        0.472126         2    ;  uncertainty k = 0.225074
         3         4         9         8     9        0.000000        0.768371         3    ;  uncertainty k = 0.170758
         3         4         9         8     9      180.000000       -0.381064         4    ;  uncertainty k = 0.118636
         3         4         9        37     9        0.000000        0.009695         1    ;  uncertainty k = 0.581490
         3         4         9        37     9      180.000000       -1.004637         2    ;  uncertainty k = 0.232678
         3         4         9        37     9        0.000000        0.571898         3    ;  uncertainty k = 0.095316
         3         4         9        37     9      180.000000       -0.185725         4    ;  uncertainty k = 0.080856
         3         4         9        38     9        0.000000        0.009695         1    ;  uncertainty k = 0.581490
         3         4         9        38     9      180.000000       -1.004637         2    ;  uncertainty k = 0.232678
         3         4         9        38     9        0.000000        0.571898         3    ;  uncertainty k = 0.095316
         3         4         9        38     9      180.000000       -0.185725         4    ;  uncertainty k = 0.080856
         3        16        15        14     9        0.000000        2.721736         1    ;  uncertainty k = 0.811251
         3        16        15        14     9      180.000000       12.314511         2    ;  uncertainty k = 0.053075
         3        16        15        14     9        0.000000        0.338905         3    ;  uncertainty k = 0.487919
         3        16        15        14     9      180.000000       -0.125844         4    ;  uncertainty k = 0.142563
         3        16        15        17     9        0.000000        5.661143         1    ;  uncertainty k = 0.811650
         3        16        15        17     9      180.000000        8.863071         2    ;  uncertainty k = 0.136950
         3        16        15        17     9        0.000000        0.973975         3    ;  uncertainty k = 0.244529
         3        16        15        17     9      180.000000       -0.213801         4    ;  uncertainty k = 0.237973
         4         3        16        15     9        0.000000       -5.993674         1    ;  uncertainty k = 0.554920
         4         3        16        15     9      180.000000        2.437510         2    ;  uncertainty k = 0.256287
         4         3        16        15     9        0.000000       -0.392327         3    ;  uncertainty k = 0.154757
         4         3        16        15     9      180.000000        0.858750         4    ;  uncertainty k = 0.086246
         4         5         6         7     9        0.000000       -7.967758         1    ;  uncertainty k = 1.187860
         4         5         6         7     9      180.000000        0.435463         2    ;  uncertainty k = 0.589253
         4         5         6         7     9        0.000000        1.944962         3    ;  uncertainty k = 0.175085
         4         5         6         7     9      180.000000       -1.434840         4    ;  uncertainty k = 0.216045
         4         5         6        31     9        0.000000       -1.697203         1    ;  uncertainty k = 0.467163
         4         5         6        31     9      180.000000       -0.356805         2    ;  uncertainty k = 0.119858
         4         5         6        31     9        0.000000        0.557954         3    ;  uncertainty k = 0.133654
         4         5         6        31     9      180.000000       -0.075956         4    ;  uncertainty k = 0.059799
         4         5         6        32     9        0.000000       -1.697203         1    ;  uncertainty k = 0.467163
         4         5         6        32     9      180.000000       -0.356805         2    ;  uncertainty k = 0.119858
         4         5         6        32     9        0.000000        0.557954         3    ;  uncertainty k = 0.133654
         4         5         6        32     9      180.000000       -0.075956         4    ;  uncertainty k = 0.059799
         4         9         8         7     9        0.000000       -7.967758         1    ;  uncertainty k = 1.187860
         4         9         8         7     9      180.000000        0.435463         2    ;  uncertainty k = 0.589253
         4         9         8         7     9        0.000000        1.944962         3    ;  uncertainty k = 0.175085
         4         9         8         7     9      180.000000       -1.434840         4    ;  uncertainty k = 0.216045
         4         9         8        35     9        0.000000       -1.697203         1    ;  uncertainty k = 0.467163
         4         9         8        35     9      180.000000       -0.356805         2    ;  uncertainty k = 0.119858
         4         9         8        35     9        0.000000        0.557954         3    ;  uncertainty k = 0.133654
         4         9         8        35     9      180.000000       -0.075956         4    ;  uncertainty k = 0.059799
         4         9         8        36     9        0.000000       -1.697203         1    ;  uncertainty k = 0.467163
         4         9         8        36     9      180.000000       -0.356805         2    ;  uncertainty k = 0.119858
         4         9         8        36     9        0.000000        0.557954         3    ;  uncertainty k = 0.133654
         4         9         8        36     9      180.000000       -0.075956         4    ;  uncertainty k = 0.059799
         5         4         3        16     9        0.000000       -1.401577         1    ;  uncertainty k = 0.555176
         5         4         3        16     9      180.000000       -1.846835         2    ;  uncertainty k = 0.534491
         5         4         3        16     9        0.000000        1.469365         3    ;  uncertainty k = 0.148457
         5         4         3        16     9      180.000000       -0.236568         4    ;  uncertainty k = 0.117513
         5         4         3        26     9        0.000000       -1.410245         1    ;  uncertainty k = 0.488994
         5         4         3        26     9      180.000000        0.149401         2    ;  uncertainty k = 0.184667
         5         4         3        26     9        0.000000        0.583306         3    ;  uncertainty k = 0.096375
         5         4         3        26     9      180.000000       -0.287185         4    ;  uncertainty k = 0.096275
         5         4         3        27     9        0.000000       -1.410245         1    ;  uncertainty k = 0.488994
         5         4         3        27     9      180.000000        0.149401         2    ;  uncertainty k = 0.184667
         5         4         3        27     9        0.000000        0.583306         3    ;  uncertainty k = 0.096375
         5         4         3        27     9      180.000000       -0.287185         4    ;  uncertainty k = 0.096275
         5         4         9         8     9        0.000000       -6.763638         1    ;  uncertainty k = 1.108795
         5         4         9         8     9      180.000000        0.639021         2    ;  uncertainty k = 0.390934
         5         4         9         8     9        0.000000        1.564762         3    ;  uncertainty k = 0.124122
         5         4         9         8     9      180.000000       -1.411959         4    ;  uncertainty k = 0.153360
         5         4         9        37     9        0.000000       -1.777372         1    ;  uncertainty k = 0.316771
         5         4         9        37     9      180.000000       -0.204743         2    ;  uncertainty k = 0.095816
         5         4         9        37     9        0.000000        0.391228         3    ;  uncertainty k = 0.135576
         5         4         9        37     9      180.000000       -0.085357         4    ;  uncertainty k = 0.038271
         5         4         9        38     9        0.000000       -1.777372         1    ;  uncertainty k = 0.316771
         5         4         9        38     9      180.000000       -0.204743         2    ;  uncertainty k = 0.095816
         5         4         9        38     9        0.000000        0.391228         3    ;  uncertainty k = 0.135576
         5         4         9        38     9      180.000000       -0.085357         4    ;  uncertainty k = 0.038271
         5         6         7         8     9        0.000000       -9.813552         1    ;  uncertainty k = 1.916609
         5         6         7         8     9      180.000000        1.261717         2    ;  uncertainty k = 0.612102
         5         6         7         8     9        0.000000        2.075019         3    ;  uncertainty k = 0.183645
         5         6         7         8     9      180.000000       -1.433814         4    ;  uncertainty k = 0.229907
         5         6         7        33     9        0.000000       -2.162965         1    ;  uncertainty k = 0.320424
         5         6         7        33     9      180.000000       -0.102975         2    ;  uncertainty k = 0.120033
         5         6         7        33     9        0.000000        0.610676         3    ;  uncertainty k = 0.139255
         5         6         7        33     9      180.000000       -0.086954         4    ;  uncertainty k = 0.029985
         5         6         7        34     9        0.000000       -2.162965         1    ;  uncertainty k = 0.320424
         5         6         7        34     9      180.000000       -0.102975         2    ;  uncertainty k = 0.120033
         5         6         7        34     9        0.000000        0.610676         3    ;  uncertainty k = 0.139255
         5         6         7        34     9      180.000000       -0.086954         4    ;  uncertainty k = 0.029985
         6         5         4         9     9        0.000000       -6.763638         1    ;  uncertainty k = 1.108795
         6         5         4         9     9      180.000000        0.639021         2    ;  uncertainty k = 0.390934
         6         5         4         9     9        0.000000        1.564762         3    ;  uncertainty k = 0.124122
         6         5         4         9     9      180.000000       -1.411959         4    ;  uncertainty k = 0.153360
         6         5         4        28     9        0.000000       -2.441010         1    ;  uncertainty k = 0.394227
         6         5         4        28     9      180.000000        0.168377         2    ;  uncertainty k = 0.037109
         6         5         4        28     9        0.000000        0.147084         3    ;  uncertainty k = 0.161746
         6         5         4        28     9      180.000000       -0.164065         4    ;  uncertainty k = 0.097547
         6         7         8         9     9        0.000000       -9.813552         1    ;  uncertainty k = 1.916609
         6         7         8         9     9      180.000000        1.261717         2    ;  uncertainty k = 0.612102
         6         7         8         9     9        0.000000        2.075019         3    ;  uncertainty k = 0.183645
         6         7         8         9     9      180.000000       -1.433814         4    ;  uncertainty k = 0.229907
         6         7         8        35     9        0.000000       -1.979013         1    ;  uncertainty k = 0.475575
         6         7         8        35     9      180.000000       -0.219552         2    ;  uncertainty k = 0.116376
         6         7         8        35     9        0.000000        0.575670         3    ;  uncertainty k = 0.105417
         6         7         8        35     9      180.000000       -0.051905         4    ;  uncertainty k = 0.014676
         6         7         8        36     9        0.000000       -1.979013         1    ;  uncertainty k = 0.475575
         6         7         8        36     9      180.000000       -0.219552         2    ;  uncertainty k = 0.116376
         6         7         8        36     9        0.000000        0.575670         3    ;  uncertainty k = 0.105417
         6         7         8        36     9      180.000000       -0.051905         4    ;  uncertainty k = 0.014676
         7         6         5        29     9        0.000000       -2.065110         1    ;  uncertainty k = 0.419468
         7         6         5        29     9      180.000000       -0.158572         2    ;  uncertainty k = 0.106512
         7         6         5        29     9        0.000000        0.592907         3    ;  uncertainty k = 0.115944
         7         6         5        29     9      180.000000       -0.058625         4    ;  uncertainty k = 0.041390
         7         6         5        30     9        0.000000       -2.065110         1    ;  uncertainty k = 0.419468
         7         6         5        30     9      180.000000       -0.158572         2    ;  uncertainty k = 0.106512
         7         6         5        30     9        0.000000        0.592907         3    ;  uncertainty k = 0.115944
         7         6         5        30     9      180.000000       -0.058625         4    ;  uncertainty k = 0.041390
         7         8         9        37     9        0.000000       -2.065110         1    ;  uncertainty k = 0.419468
         7         8         9        37     9      180.000000       -0.158572         2    ;  uncertainty k = 0.106512
         7         8         9        37     9        0.000000        0.592907         3    ;  uncertainty k = 0.115944
         7         8         9        37     9      180.000000       -0.058625         4    ;  uncertainty k = 0.041390
         7         8         9        38     9        0.000000       -2.065110         1    ;  uncertainty k = 0.419468
         7         8         9        38     9      180.000000       -0.158572         2    ;  uncertainty k = 0.106512
         7         8         9        38     9        0.000000        0.592907         3    ;  uncertainty k = 0.115944
         7         8         9        38     9      180.000000       -0.058625         4    ;  uncertainty k = 0.041390
         8         7         6        31     9        0.000000       -1.979013         1    ;  uncertainty k = 0.475575
         8         7         6        31     9      180.000000       -0.219552         2    ;  uncertainty k = 0.116376
         8         7         6        31     9        0.000000        0.575670         3    ;  uncertainty k = 0.105417
         8         7         6        31     9      180.000000       -0.051905         4    ;  uncertainty k = 0.014676
         8         7         6        32     9        0.000000       -1.979013         1    ;  uncertainty k = 0.475575
         8         7         6        32     9      180.000000       -0.219552         2    ;  uncertainty k = 0.116376
         8         7         6        32     9        0.000000        0.575670         3    ;  uncertainty k = 0.105417
         8         7         6        32     9      180.000000       -0.051905         4    ;  uncertainty k = 0.014676
         8         9         4        28     9        0.000000       -2.441010         1    ;  uncertainty k = 0.394227
         8         9         4        28     9      180.000000        0.168377         2    ;  uncertainty k = 0.037109
         8         9         4        28     9        0.000000        0.147084         3    ;  uncertainty k = 0.161746
         8         9         4        28     9      180.000000       -0.164065         4    ;  uncertainty k = 0.097547
         9         4         3        16     9        0.000000       -1.401577         1    ;  uncertainty k = 0.555176
         9         4         3        16     9      180.000000       -1.846835         2    ;  uncertainty k = 0.534491
         9         4         3        16     9        0.000000        1.469365         3    ;  uncertainty k = 0.148457
         9         4         3        16     9      180.000000       -0.236568         4    ;  uncertainty k = 0.117513
         9         4         3        26     9        0.000000       -1.410245         1    ;  uncertainty k = 0.488994
         9         4         3        26     9      180.000000        0.149401         2    ;  uncertainty k = 0.184667
         9         4         3        26     9        0.000000        0.583306         3    ;  uncertainty k = 0.096375
         9         4         3        26     9      180.000000       -0.287185         4    ;  uncertainty k = 0.096275
         9         4         3        27     9        0.000000       -1.410245         1    ;  uncertainty k = 0.488994
         9         4         3        27     9      180.000000        0.149401         2    ;  uncertainty k = 0.184667
         9         4         3        27     9        0.000000        0.583306         3    ;  uncertainty k = 0.096375
         9         4         3        27     9      180.000000       -0.287185         4    ;  uncertainty k = 0.096275
         9         4         5        29     9        0.000000       -1.777372         1    ;  uncertainty k = 0.316771
         9         4         5        29     9      180.000000       -0.204743         2    ;  uncertainty k = 0.095816
         9         4         5        29     9        0.000000        0.391228         3    ;  uncertainty k = 0.135576
         9         4         5        29     9      180.000000       -0.085357         4    ;  uncertainty k = 0.038271
         9         4         5        30     9        0.000000       -1.777372         1    ;  uncertainty k = 0.316771
         9         4         5        30     9      180.000000       -0.204743         2    ;  uncertainty k = 0.095816
         9         4         5        30     9        0.000000        0.391228         3    ;  uncertainty k = 0.135576
         9         4         5        30     9      180.000000       -0.085357         4    ;  uncertainty k = 0.038271
         9         8         7        33     9        0.000000       -2.162965         1    ;  uncertainty k = 0.320424
         9         8         7        33     9      180.000000       -0.102975         2    ;  uncertainty k = 0.120033
         9         8         7        33     9        0.000000        0.610676         3    ;  uncertainty k = 0.139255
         9         8         7        33     9      180.000000       -0.086954         4    ;  uncertainty k = 0.029985
         9         8         7        34     9        0.000000       -2.162965         1    ;  uncertainty k = 0.320424
         9         8         7        34     9      180.000000       -0.102975         2    ;  uncertainty k = 0.120033
         9         8         7        34     9        0.000000        0.610676         3    ;  uncertainty k = 0.139255
         9         8         7        34     9      180.000000       -0.086954         4    ;  uncertainty k = 0.029985
        10        11        12        13     9        0.000000       -0.334787         1    ;  uncertainty k = 0.317357
        10        11        12        13     9      180.000000        5.988241         2    ;  uncertainty k = 0.932589
        10        11        12        13     9        0.000000        0.443967         3    ;  uncertainty k = 0.378256
        10        11        12        13     9      180.000000        1.256562         4    ;  uncertainty k = 0.233110
        10        11        12        49     9        0.000000        0.249619         1    ;  uncertainty k = 0.220191
        10        11        12        49     9      180.000000        9.878570         2    ;  uncertainty k = 0.523231
        10        11        12        49     9        0.000000        1.012020         3    ;  uncertainty k = 0.239144
        10        11        12        49     9      180.000000        1.470437         4    ;  uncertainty k = 0.325147
        10        11        43        44     9        0.000000       -0.596520         1    ;  uncertainty k = 1.635681
        10        11        43        44     9      180.000000        0.615103         2    ;  uncertainty k = 0.462792
        10        11        43        44     9        0.000000        0.216858         3    ;  uncertainty k = 0.165248
        10        11        43        44     9      180.000000        0.115657         4    ;  uncertainty k = 0.159697
        10        11        43        45     9        0.000000       -0.596520         1    ;  uncertainty k = 1.635681
        10        11        43        45     9      180.000000        0.615103         2    ;  uncertainty k = 0.462792
        10        11        43        45     9        0.000000        0.216858         3    ;  uncertainty k = 0.165248
        10        11        43        45     9      180.000000        0.115657         4    ;  uncertainty k = 0.159697
        10        11        43        47     9        0.000000        3.622491         1    ;  uncertainty k = 0.826720
        10        11        43        47     9      180.000000        0.985207         2    ;  uncertainty k = 0.561394
        10        11        43        47     9        0.000000       -0.483521         3    ;  uncertainty k = 0.359077
        10        11        43        47     9      180.000000        0.317464         4    ;  uncertainty k = 0.145737
        10        24        23        13     9        0.000000        0.053414         1    ;  uncertainty k = 0.263165
        10        24        23        13     9      180.000000        8.487775         2    ;  uncertainty k = 0.281651
        10        24        23        13     9        0.000000        0.108157         3    ;  uncertainty k = 0.176213
        10        24        23        13     9      180.000000        1.255907         4    ;  uncertainty k = 0.223591
        10        24        23        22     9        0.000000        0.276674         1    ;  uncertainty k = 0.639644
        10        24        23        22     9      180.000000        9.683579         2    ;  uncertainty k = 0.397966
        10        24        23        22     9        0.000000        0.885252         3    ;  uncertainty k = 0.302270
        10        24        23        22     9      180.000000        1.442582         4    ;  uncertainty k = 0.120148
        11        10        24        23     9        0.000000       -0.079226         1    ;  uncertainty k = 0.484297
        11        10        24        23     9      180.000000       12.247864         2    ;  uncertainty k = 0.652045
        11        10        24        23     9        0.000000       -0.527346         3    ;  uncertainty k = 0.422754
        11        10        24        23     9      180.000000        0.858808         4    ;  uncertainty k = 0.460976
        11        10        24        42     9        0.000000       -0.173779         1    ;  uncertainty k = 0.458153
        11        10        24        42     9      180.000000        8.272121         2    ;  uncertainty k = 0.359558
        11        10        24        42     9        0.000000        1.134471         3    ;  uncertainty k = 0.251350
        11        10        24        42     9      180.000000        1.763816         4    ;  uncertainty k = 0.202294
        11        12        13        23     9        0.000000        0.180844         1    ;  uncertainty k = 0.458182
        11        12        13        23     9      180.000000        7.640901         2    ;  uncertainty k = 0.607307
        11        12        13        23     9        0.000000        0.567057         3    ;  uncertainty k = 0.368281
        11        12        13        23     9      180.000000        1.408748         4    ;  uncertainty k = 0.295789
        11        12        13        39     9        0.000000        0.043897         1    ;  uncertainty k = 0.425503
        11        12        13        39     9      180.000000        6.992908         2    ;  uncertainty k = 0.602225
        11        12        13        39     9        0.000000        1.335543         3    ;  uncertainty k = 0.420426
        11        12        13        39     9      180.000000        1.559925         4    ;  uncertainty k = 0.129121
        11        12        49        50     9        0.000000       -5.235005         1    ;  uncertainty k = 1.162689
        11        12        49        50     9      180.000000       10.203790         2    ;  uncertainty k = 0.252288
        11        12        49        50     9        0.000000       -0.628512         3    ;  uncertainty k = 0.257087
        11        12        49        50     9      180.000000        0.324774         4    ;  uncertainty k = 0.133363
        11        43        47        46     9        0.000000        9.003283         1    ;  uncertainty k = 1.272225
        11        43        47        46     9      180.000000       -6.694477         2    ;  uncertainty k = 0.833324
        11        43        47        46     9        0.000000        0.388346         3    ;  uncertainty k = 0.230425
        11        43        47        46     9      180.000000        0.323170         4    ;  uncertainty k = 0.177215
        11        43        47        48     9        0.000000        9.003283         1    ;  uncertainty k = 1.272225
        11        43        47        48     9      180.000000       -6.694477         2    ;  uncertainty k = 0.833324
        11        43        47        48     9        0.000000        0.388346         3    ;  uncertainty k = 0.230425
        11        43        47        48     9      180.000000        0.323170         4    ;  uncertainty k = 0.177215
        12        11        10        24     9        0.000000       -0.174986         1    ;  uncertainty k = 0.116480
        12        11        10        24     9      180.000000       10.389783         2    ;  uncertainty k = 0.548257
        12        11        10        24     9        0.000000       -0.106746         3    ;  uncertainty k = 0.303124
        12        11        10        24     9      180.000000        1.162983         4    ;  uncertainty k = 0.241362
        12        11        10        54     9        0.000000       -0.110745         1    ;  uncertainty k = 0.309048
        12        11        10        54     9      180.000000        7.216682         2    ;  uncertainty k = 0.402551
        12        11        10        54     9        0.000000        1.111214         3    ;  uncertainty k = 0.350746
        12        11        10        54     9      180.000000        1.571684         4    ;  uncertainty k = 0.127819
        12        11        43        44     9        0.000000       -2.872396         1    ;  uncertainty k = 1.988007
        12        11        43        44     9      180.000000        0.042714         2    ;  uncertainty k = 0.445597
        12        11        43        44     9        0.000000        1.269699         3    ;  uncertainty k = 0.293593
        12        11        43        44     9      180.000000        0.141038         4    ;  uncertainty k = 0.154324
        12        11        43        45     9        0.000000       -2.872396         1    ;  uncertainty k = 1.988007
        12        11        43        45     9      180.000000        0.042714         2    ;  uncertainty k = 0.445597
        12        11        43        45     9        0.000000        1.269699         3    ;  uncertainty k = 0.293593
        12        11        43        45     9      180.000000        0.141038         4    ;  uncertainty k = 0.154324
        12        11        43        47     9        0.000000        4.166773         1    ;  uncertainty k = 1.165984
        12        11        43        47     9      180.000000        0.091565         2    ;  uncertainty k = 0.613189
        12        11        43        47     9        0.000000        1.092063         3    ;  uncertainty k = 0.402709
        12        11        43        47     9      180.000000        0.328503         4    ;  uncertainty k = 0.204352
        12        13        23        22     9        0.000000        0.285824         1    ;  uncertainty k = 0.418417
        12        13        23        22     9      180.000000       10.202492         2    ;  uncertainty k = 0.276279
        12        13        23        22     9        0.000000        0.967121         3    ;  uncertainty k = 0.340689
        12        13        23        22     9      180.000000        1.495720         4    ;  uncertainty k = 0.102731
        12        13        23        24     9        0.000000        0.007687         1    ;  uncertainty k = 0.305773
        12        13        23        24     9      180.000000        7.524855         2    ;  uncertainty k = 0.478634
        12        13        23        24     9        0.000000        0.488054         3    ;  uncertainty k = 0.385135
        12        13        23        24     9      180.000000        1.458683         4    ;  uncertainty k = 0.159092
        12        49        50        51     9        0.000000        1.233844         1    ;  uncertainty k = 0.238697
        12        49        50        51     9      180.000000       -2.174226         2    ;  uncertainty k = 0.329602
        12        49        50        51     9        0.000000        0.915672         3    ;  uncertainty k = 0.097514
        12        49        50        51     9      180.000000        0.297531         4    ;  uncertainty k = 0.057224
        12        49        50        52     9        0.000000        1.233844         1    ;  uncertainty k = 0.238697
        12        49        50        52     9      180.000000       -2.174226         2    ;  uncertainty k = 0.329602
        12        49        50        52     9        0.000000        0.915672         3    ;  uncertainty k = 0.097514
        12        49        50        52     9      180.000000        0.297531         4    ;  uncertainty k = 0.057224
        12        49        50        53     9        0.000000        1.233844         1    ;  uncertainty k = 0.238697
        12        49        50        53     9      180.000000       -2.174226         2    ;  uncertainty k = 0.329602
        12        49        50        53     9        0.000000        0.915672         3    ;  uncertainty k = 0.097514
        12        49        50        53     9      180.000000        0.297531         4    ;  uncertainty k = 0.057224
        13        12        11        43     9        0.000000        0.241139         1    ;  uncertainty k = 0.224284
        13        12        11        43     9      180.000000        6.668827         2    ;  uncertainty k = 0.177770
        13        12        11        43     9        0.000000        1.126484         3    ;  uncertainty k = 0.174541
        13        12        11        43     9      180.000000        1.477513         4    ;  uncertainty k = 0.150009
        13        12        49        50     9        0.000000        3.084209         1    ;  uncertainty k = 0.696057
        13        12        49        50     9      180.000000        7.950752         2    ;  uncertainty k = 0.293236
        13        12        49        50     9        0.000000       -0.096197         3    ;  uncertainty k = 0.237725
        13        12        49        50     9      180.000000       -0.059987         4    ;  uncertainty k = 0.183388
        13        23        22        41     9        0.000000        3.984927         1    ;  uncertainty k = 1.004250
        13        23        22        41     9      180.000000        5.340674         2    ;  uncertainty k = 0.345672
        13        23        22        41     9        0.000000        0.876396         3    ;  uncertainty k = 0.108640
        13        23        22        41     9      180.000000        0.284807         4    ;  uncertainty k = 0.102245
        13        23        24        42     9        0.000000        0.137445         1    ;  uncertainty k = 0.169401
        13        23        24        42     9      180.000000        6.784299         2    ;  uncertainty k = 0.767180
        13        23        24        42     9        0.000000        1.243792         3    ;  uncertainty k = 0.239860
        13        23        24        42     9      180.000000        1.448860         4    ;  uncertainty k = 0.228367
        14         1        21        20     9        0.000000       -0.569211         1    ;  uncertainty k = 1.198436
        14         1        21        20     9      180.000000       11.705623         2    ;  uncertainty k = 0.201703
        14         1        21        20     9        0.000000        1.549284         3    ;  uncertainty k = 0.327469
        14         1        21        20     9      180.000000        1.034972         4    ;  uncertainty k = 0.274565
        14         1        22        23     9        0.000000        6.216631         1    ;  uncertainty k = 0.582030
        14         1        22        23     9      180.000000       10.375735         2    ;  uncertainty k = 0.092539
        14         1        22        23     9        0.000000        1.035764         3    ;  uncertainty k = 0.170822
        14         1        22        23     9      180.000000       -0.626376         4    ;  uncertainty k = 0.122715
        14         1        22        41     9        0.000000       10.989769         1    ;  uncertainty k = 0.665768
        14         1        22        41     9      180.000000        7.943536         2    ;  uncertainty k = 0.368631
        14         1        22        41     9        0.000000        1.823236         3    ;  uncertainty k = 0.487915
        14         1        22        41     9      180.000000       -0.184907         4    ;  uncertainty k = 0.190157
        14        15        17        18     9        0.000000       -0.731058         1    ;  uncertainty k = 0.864379
        14        15        17        18     9      180.000000        6.125128         2    ;  uncertainty k = 1.039238
        14        15        17        18     9        0.000000        0.476608         3    ;  uncertainty k = 0.307824
        14        15        17        18     9      180.000000        0.809778         4    ;  uncertainty k = 0.340764
        14        15        17        20     9        0.000000       -0.966331         1    ;  uncertainty k = 1.162075
        14        15        17        20     9      180.000000        7.460241         2    ;  uncertainty k = 1.086916
        14        15        17        20     9        0.000000       -1.612651         3    ;  uncertainty k = 0.450811
        14        15        17        20     9      180.000000        0.938826         4    ;  uncertainty k = 0.404342
        15        14         1        21     9        0.000000       -0.669008         1    ;  uncertainty k = 0.721813
        15        14         1        21     9      180.000000        8.795149         2    ;  uncertainty k = 0.627345
        15        14         1        21     9        0.000000        0.717881         3    ;  uncertainty k = 0.557557
        15        14         1        21     9      180.000000        0.880531         4    ;  uncertainty k = 0.186606
        15        14         1        22     9        0.000000        0.229087         1    ;  uncertainty k = 0.688918
        15        14         1        22     9      180.000000        9.277547         2    ;  uncertainty k = 0.439346
        15        14         1        22     9        0.000000        1.567587         3    ;  uncertainty k = 0.412730
        15        14         1        22     9      180.000000        0.940598         4    ;  uncertainty k = 0.318151
        15        16         3        26     9        0.000000        2.789968         1    ;  uncertainty k = 0.641542
        15        16         3        26     9      180.000000       -0.102846         2    ;  uncertainty k = 0.488013
        15        16         3        26     9        0.000000       -0.110985         3    ;  uncertainty k = 0.163330
        15        16         3        26     9      180.000000        0.362110         4    ;  uncertainty k = 0.079581
        15        16         3        27     9        0.000000        2.789968         1    ;  uncertainty k = 0.641542
        15        16         3        27     9      180.000000       -0.102846         2    ;  uncertainty k = 0.488013
        15        16         3        27     9        0.000000       -0.110985         3    ;  uncertainty k = 0.163330
        15        16         3        27     9      180.000000        0.362110         4    ;  uncertainty k = 0.079581
        15        17        20        19     9        0.000000       -0.201800         1    ;  uncertainty k = 1.093354
        15        17        20        19     9      180.000000        5.944362         2    ;  uncertainty k = 0.590805
        15        17        20        19     9        0.000000       -1.126909         3    ;  uncertainty k = 0.876721
        15        17        20        19     9      180.000000        1.089007         4    ;  uncertainty k = 0.496862
        15        17        20        21     9        0.000000       -0.664820         1    ;  uncertainty k = 0.925139
        15        17        20        21     9      180.000000        8.335492         2    ;  uncertainty k = 0.426544
        15        17        20        21     9        0.000000       -0.968838         3    ;  uncertainty k = 0.383142
        15        17        20        21     9      180.000000        1.088374         4    ;  uncertainty k = 0.430231
        16         3         4        28     9        0.000000        0.836449         1    ;  uncertainty k = 0.754872
        16         3         4        28     9      180.000000       -2.904885         2    ;  uncertainty k = 0.496428
        16         3         4        28     9        0.000000        0.974953         3    ;  uncertainty k = 0.324588
        16         3         4        28     9      180.000000        0.006211         4    ;  uncertainty k = 0.094009
        16        15        17        18     9        0.000000       -0.571554         1    ;  uncertainty k = 1.227049
        16        15        17        18     9      180.000000        5.455057         2    ;  uncertainty k = 0.843928
        16        15        17        18     9        0.000000        1.073310         3    ;  uncertainty k = 0.409656
        16        15        17        18     9      180.000000        0.755817         4    ;  uncertainty k = 0.377782
        16        15        17        20     9        0.000000       -0.294054         1    ;  uncertainty k = 0.910090
        16        15        17        20     9      180.000000        6.067322         2    ;  uncertainty k = 0.469502
        16        15        17        20     9        0.000000        0.254823         3    ;  uncertainty k = 0.175682
        16        15        17        20     9      180.000000        0.779851         4    ;  uncertainty k = 0.188373
        17        18         2        19     9        0.000000       -0.251459         1    ;  uncertainty k = 0.772105
        17        18         2        19     9      180.000000       26.332435         2    ;  uncertainty k = 0.164446
        17        18         2        19     9        0.000000       -7.592141         3    ;  uncertainty k = 1.555684
        17        18         2        19     9      180.000000        2.162582         4    ;  uncertainty k = 0.347843
        17        18         2        25     9        0.000000       -0.441891         1    ;  uncertainty k = 0.932204
        17        18         2        25     9      180.000000       19.605513         2    ;  uncertainty k = 0.577464
        17        18         2        25     9        0.000000        1.174875         3    ;  uncertainty k = 0.321243
        17        18         2        25     9      180.000000        1.181780         4    ;  uncertainty k = 0.376203
        17        20        19        40     9        0.000000        5.220849         1    ;  uncertainty k = 2.806861
        17        20        19        40     9      180.000000        7.905035         2    ;  uncertainty k = 1.212591
        17        20        19        40     9        0.000000        0.998820         3    ;  uncertainty k = 0.342826
        17        20        19        40     9      180.000000        0.111169         4    ;  uncertainty k = 0.367643
        18         2        19        20     9        0.000000       -0.294456         1    ;  uncertainty k = 0.809873
        18         2        19        20     9      180.000000       15.938010         2    ;  uncertainty k = 0.725656
        18         2        19        20     9        0.000000       -8.760846         3    ;  uncertainty k = 1.693059
        18         2        19        20     9      180.000000        1.176542         4    ;  uncertainty k = 0.635383
        18         2        19        40     9        0.000000        4.604604         1    ;  uncertainty k = 2.184798
        18         2        19        40     9      180.000000       13.438023         2    ;  uncertainty k = 0.671989
        18         2        19        40     9        0.000000        1.978624         3    ;  uncertainty k = 0.675906
        18         2        19        40     9      180.000000       -0.476904         4    ;  uncertainty k = 0.383926
        18        17        20        19     9        0.000000       -0.119814         1    ;  uncertainty k = 0.866797
        18        17        20        19     9      180.000000       12.283409         2    ;  uncertainty k = 1.047799
        18        17        20        19     9        0.000000       -4.968661         3    ;  uncertainty k = 1.102648
        18        17        20        19     9      180.000000        1.733553         4    ;  uncertainty k = 0.757939
        18        17        20        21     9        0.000000       -0.138727         1    ;  uncertainty k = 1.007199
        18        17        20        21     9      180.000000       10.890369         2    ;  uncertainty k = 0.487032
        18        17        20        21     9        0.000000       -1.550200         3    ;  uncertainty k = 0.500552
        18        17        20        21     9      180.000000        1.331306         4    ;  uncertainty k = 0.391157
        20        19         2        25     9        0.000000        1.548072         1    ;  uncertainty k = 1.691717
        20        19         2        25     9      180.000000        7.211242         2    ;  uncertainty k = 0.764056
        20        19         2        25     9        0.000000        1.238367         3    ;  uncertainty k = 0.228369
        20        19         2        25     9      180.000000        0.084909         4    ;  uncertainty k = 0.180500
        20        21         1        22     9        0.000000        1.205033         1    ;  uncertainty k = 1.114743
        20        21         1        22     9      180.000000       12.786283         2    ;  uncertainty k = 0.667109
        20        21         1        22     9        0.000000        1.778340         3    ;  uncertainty k = 0.661797
        20        21         1        22     9      180.000000        1.268669         4    ;  uncertainty k = 0.399150
        21         1        22        23     9        0.000000        5.700113         1    ;  uncertainty k = 0.289732
        21         1        22        23     9      180.000000        9.813362         2    ;  uncertainty k = 0.291121
        21         1        22        23     9        0.000000        0.853703         3    ;  uncertainty k = 0.198912
        21         1        22        23     9      180.000000       -0.507954         4    ;  uncertainty k = 0.092790
        21         1        22        41     9        0.000000        9.780754         1    ;  uncertainty k = 0.828208
        21         1        22        41     9      180.000000        7.356527         2    ;  uncertainty k = 0.252356
        21         1        22        41     9        0.000000        1.589087         3    ;  uncertainty k = 0.357384
        21         1        22        41     9      180.000000       -0.113173         4    ;  uncertainty k = 0.148399
        21        20        19        40     9        0.000000        5.475291         1    ;  uncertainty k = 1.041200
        21        20        19        40     9      180.000000        3.993478         2    ;  uncertainty k = 0.889662
        21        20        19        40     9        0.000000        1.468016         3    ;  uncertainty k = 0.489444
        21        20        19        40     9      180.000000        0.136727         4    ;  uncertainty k = 0.127968
        22        23        13        39     9        0.000000       -0.074868         1    ;  uncertainty k = 0.522045
        22        23        13        39     9      180.000000        8.127829         2    ;  uncertainty k = 0.233987
        22        23        13        39     9        0.000000        0.892375         3    ;  uncertainty k = 0.252660
        22        23        13        39     9      180.000000        0.951632         4    ;  uncertainty k = 0.102493
        22        23        24        42     9        0.000000       -0.062330         1    ;  uncertainty k = 0.442606
        22        23        24        42     9      180.000000        8.133717         2    ;  uncertainty k = 0.172431
        22        23        24        42     9        0.000000        0.860890         3    ;  uncertainty k = 0.199186
        22        23        24        42     9      180.000000        0.938331         4    ;  uncertainty k = 0.151820
        23        13        12        49     9        0.000000        0.134919         1    ;  uncertainty k = 0.204802
        23        13        12        49     9      180.000000       11.994874         2    ;  uncertainty k = 0.381818
        23        13        12        49     9        0.000000        1.221041         3    ;  uncertainty k = 0.273085
        23        13        12        49     9      180.000000        1.615056         4    ;  uncertainty k = 0.167839
        23        24        10        54     9        0.000000       -0.133953         1    ;  uncertainty k = 0.262055
        23        24        10        54     9      180.000000        8.297561         2    ;  uncertainty k = 0.383496
        23        24        10        54     9        0.000000        1.167673         3    ;  uncertainty k = 0.396147
        23        24        10        54     9      180.000000        1.596730         4    ;  uncertainty k = 0.166722
        24        10        11        43     9        0.000000        0.031604         1    ;  uncertainty k = 0.402179
        24        10        11        43     9      180.000000        9.320827         2    ;  uncertainty k = 0.413974
        24        10        11        43     9        0.000000        1.438275         3    ;  uncertainty k = 0.413122
        24        10        11        43     9      180.000000        1.781868         4    ;  uncertainty k = 0.129249
        24        23        13        39     9        0.000000        0.313376         1    ;  uncertainty k = 0.313282
        24        23        13        39     9      180.000000        6.781572         2    ;  uncertainty k = 0.581734
        24        23        13        39     9        0.000000        1.254162         3    ;  uncertainty k = 0.237846
        24        23        13        39     9      180.000000        1.466058         4    ;  uncertainty k = 0.265684
        24        23        22        41     9        0.000000        2.644363         1    ;  uncertainty k = 0.979503
        24        23        22        41     9      180.000000        6.035533         2    ;  uncertainty k = 0.383128
        24        23        22        41     9        0.000000        0.764472         3    ;  uncertainty k = 0.275963
        24        23        22        41     9      180.000000        0.193841         4    ;  uncertainty k = 0.107781
        25         2        19        40     9        0.000000       -1.075218         1    ;  uncertainty k = 1.539051
        25         2        19        40     9      180.000000        1.573146         2    ;  uncertainty k = 0.351370
        25         2        19        40     9        0.000000        1.047946         3    ;  uncertainty k = 0.426121
        25         2        19        40     9      180.000000        0.027943         4    ;  uncertainty k = 0.247597
        26         3         4        28     9        0.000000        0.575094         1    ;  uncertainty k = 0.340548
        26         3         4        28     9      180.000000       -0.369163         2    ;  uncertainty k = 0.323255
        26         3         4        28     9        0.000000       -0.053194         3    ;  uncertainty k = 0.111182
        26         3         4        28     9      180.000000       -0.140807         4    ;  uncertainty k = 0.050348
        27         3         4        28     9        0.000000        0.575094         1    ;  uncertainty k = 0.340548
        27         3         4        28     9      180.000000       -0.369163         2    ;  uncertainty k = 0.323255
        27         3         4        28     9        0.000000       -0.053194         3    ;  uncertainty k = 0.111182
        27         3         4        28     9      180.000000       -0.140807         4    ;  uncertainty k = 0.050348
        28         4         5        29     9        0.000000        1.964323         1    ;  uncertainty k = 0.351664
        28         4         5        29     9      180.000000       -0.244446         2    ;  uncertainty k = 0.102497
        28         4         5        29     9        0.000000       -0.215725         3    ;  uncertainty k = 0.065198
        28         4         5        29     9      180.000000        0.079359         4    ;  uncertainty k = 0.074606
        28         4         5        30     9        0.000000        1.964323         1    ;  uncertainty k = 0.351664
        28         4         5        30     9      180.000000       -0.244446         2    ;  uncertainty k = 0.102497
        28         4         5        30     9        0.000000       -0.215725         3    ;  uncertainty k = 0.065198
        28         4         5        30     9      180.000000        0.079359         4    ;  uncertainty k = 0.074606
        28         4         9        37     9        0.000000        1.964323         1    ;  uncertainty k = 0.351664
        28         4         9        37     9      180.000000       -0.244446         2    ;  uncertainty k = 0.102497
        28         4         9        37     9        0.000000       -0.215725         3    ;  uncertainty k = 0.065198
        28         4         9        37     9      180.000000        0.079359         4    ;  uncertainty k = 0.074606
        28         4         9        38     9        0.000000        1.964323         1    ;  uncertainty k = 0.351664
        28         4         9        38     9      180.000000       -0.244446         2    ;  uncertainty k = 0.102497
        28         4         9        38     9        0.000000       -0.215725         3    ;  uncertainty k = 0.065198
        28         4         9        38     9      180.000000        0.079359         4    ;  uncertainty k = 0.074606
        29         5         6        31     9        0.000000        2.637306         1    ;  uncertainty k = 0.495157
        29         5         6        31     9      180.000000       -0.245820         2    ;  uncertainty k = 0.127404
        29         5         6        31     9        0.000000        0.285027         3    ;  uncertainty k = 0.084986
        29         5         6        31     9      180.000000        0.124395         4    ;  uncertainty k = 0.052420
        29         5         6        32     9        0.000000        2.637306         1    ;  uncertainty k = 0.495157
        29         5         6        32     9      180.000000       -0.245820         2    ;  uncertainty k = 0.127404
        29         5         6        32     9        0.000000        0.285027         3    ;  uncertainty k = 0.084986
        29         5         6        32     9      180.000000        0.124395         4    ;  uncertainty k = 0.052420
        30         5         6        31     9        0.000000        2.637306         1    ;  uncertainty k = 0.495157
        30         5         6        31     9      180.000000       -0.245820         2    ;  uncertainty k = 0.127404
        30         5         6        31     9        0.000000        0.285027         3    ;  uncertainty k = 0.084986
        30         5         6        31     9      180.000000        0.124395         4    ;  uncertainty k = 0.052420
        30         5         6        32     9        0.000000        2.637306         1    ;  uncertainty k = 0.495157
        30         5         6        32     9      180.000000       -0.245820         2    ;  uncertainty k = 0.127404
        30         5         6        32     9        0.000000        0.285027         3    ;  uncertainty k = 0.084986
        30         5         6        32     9      180.000000        0.124395         4    ;  uncertainty k = 0.052420
        31         6         7        33     9        0.000000        2.708906         1    ;  uncertainty k = 0.481339
        31         6         7        33     9      180.000000       -0.259314         2    ;  uncertainty k = 0.129327
        31         6         7        33     9        0.000000        0.271004         3    ;  uncertainty k = 0.083131
        31         6         7        33     9      180.000000        0.111025         4    ;  uncertainty k = 0.048932
        31         6         7        34     9        0.000000        2.708906         1    ;  uncertainty k = 0.481339
        31         6         7        34     9      180.000000       -0.259314         2    ;  uncertainty k = 0.129327
        31         6         7        34     9        0.000000        0.271004         3    ;  uncertainty k = 0.083131
        31         6         7        34     9      180.000000        0.111025         4    ;  uncertainty k = 0.048932
        32         6         7        33     9        0.000000        2.708906         1    ;  uncertainty k = 0.481339
        32         6         7        33     9      180.000000       -0.259314         2    ;  uncertainty k = 0.129327
        32         6         7        33     9        0.000000        0.271004         3    ;  uncertainty k = 0.083131
        32         6         7        33     9      180.000000        0.111025         4    ;  uncertainty k = 0.048932
        32         6         7        34     9        0.000000        2.708906         1    ;  uncertainty k = 0.481339
        32         6         7        34     9      180.000000       -0.259314         2    ;  uncertainty k = 0.129327
        32         6         7        34     9        0.000000        0.271004         3    ;  uncertainty k = 0.083131
        32         6         7        34     9      180.000000        0.111025         4    ;  uncertainty k = 0.048932
        33         7         8        35     9        0.000000        2.708906         1    ;  uncertainty k = 0.481339
        33         7         8        35     9      180.000000       -0.259314         2    ;  uncertainty k = 0.129327
        33         7         8        35     9        0.000000        0.271004         3    ;  uncertainty k = 0.083131
        33         7         8        35     9      180.000000        0.111025         4    ;  uncertainty k = 0.048932
        33         7         8        36     9        0.000000        2.708906         1    ;  uncertainty k = 0.481339
        33         7         8        36     9      180.000000       -0.259314         2    ;  uncertainty k = 0.129327
        33         7         8        36     9        0.000000        0.271004         3    ;  uncertainty k = 0.083131
        33         7         8        36     9      180.000000        0.111025         4    ;  uncertainty k = 0.048932
        34         7         8        35     9        0.000000        2.708906         1    ;  uncertainty k = 0.481339
        34         7         8        35     9      180.000000       -0.259314         2    ;  uncertainty k = 0.129327
        34         7         8        35     9        0.000000        0.271004         3    ;  uncertainty k = 0.083131
        34         7         8        35     9      180.000000        0.111025         4    ;  uncertainty k = 0.048932
        34         7         8        36     9        0.000000        2.708906         1    ;  uncertainty k = 0.481339
        34         7         8        36     9      180.000000       -0.259314         2    ;  uncertainty k = 0.129327
        34         7         8        36     9        0.000000        0.271004         3    ;  uncertainty k = 0.083131
        34         7         8        36     9      180.000000        0.111025         4    ;  uncertainty k = 0.048932
        35         8         9        37     9        0.000000        2.637306         1    ;  uncertainty k = 0.495157
        35         8         9        37     9      180.000000       -0.245820         2    ;  uncertainty k = 0.127404
        35         8         9        37     9        0.000000        0.285027         3    ;  uncertainty k = 0.084986
        35         8         9        37     9      180.000000        0.124395         4    ;  uncertainty k = 0.052420
        35         8         9        38     9        0.000000        2.637306         1    ;  uncertainty k = 0.495157
        35         8         9        38     9      180.000000       -0.245820         2    ;  uncertainty k = 0.127404
        35         8         9        38     9        0.000000        0.285027         3    ;  uncertainty k = 0.084986
        35         8         9        38     9      180.000000        0.124395         4    ;  uncertainty k = 0.052420
        36         8         9        37     9        0.000000        2.637306         1    ;  uncertainty k = 0.495157
        36         8         9        37     9      180.000000       -0.245820         2    ;  uncertainty k = 0.127404
        36         8         9        37     9        0.000000        0.285027         3    ;  uncertainty k = 0.084986
        36         8         9        37     9      180.000000        0.124395         4    ;  uncertainty k = 0.052420
        36         8         9        38     9        0.000000        2.637306         1    ;  uncertainty k = 0.495157
        36         8         9        38     9      180.000000       -0.245820         2    ;  uncertainty k = 0.127404
        36         8         9        38     9        0.000000        0.285027         3    ;  uncertainty k = 0.084986
        36         8         9        38     9      180.000000        0.124395         4    ;  uncertainty k = 0.052420
        39        13        12        49     9        0.000000       -0.016321         1    ;  uncertainty k = 0.096932
        39        13        12        49     9      180.000000        9.660232         2    ;  uncertainty k = 0.381526
        39        13        12        49     9        0.000000        0.843655         3    ;  uncertainty k = 0.122470
        39        13        12        49     9      180.000000        1.290057         4    ;  uncertainty k = 0.313643
        42        24        10        54     9        0.000000       -0.223268         1    ;  uncertainty k = 0.205337
        42        24        10        54     9      180.000000        7.657874         2    ;  uncertainty k = 0.591287
        42        24        10        54     9        0.000000       -0.240506         3    ;  uncertainty k = 0.259791
        42        24        10        54     9      180.000000        0.328909         4    ;  uncertainty k = 0.178902
        43        11        10        54     9        0.000000       -0.617788         1    ;  uncertainty k = 0.529516
        43        11        10        54     9      180.000000        7.051360         2    ;  uncertainty k = 0.402109
        43        11        10        54     9        0.000000        0.795477         3    ;  uncertainty k = 0.216560
        43        11        10        54     9      180.000000        1.025621         4    ;  uncertainty k = 0.269622
        43        11        12        49     9        0.000000       -0.466302         1    ;  uncertainty k = 0.445641
        43        11        12        49     9      180.000000        9.462945         2    ;  uncertainty k = 0.340210
        43        11        12        49     9        0.000000        1.086794         3    ;  uncertainty k = 0.389447
        43        11        12        49     9      180.000000        1.164147         4    ;  uncertainty k = 0.304061
        44        43        47        46     9        0.000000       11.495875         1    ;  uncertainty k = 0.252665
        44        43        47        46     9      180.000000        1.949624         2    ;  uncertainty k = 0.553011
        44        43        47        46     9        0.000000        0.839048         3    ;  uncertainty k = 0.105773
        44        43        47        46     9      180.000000       -0.431765         4    ;  uncertainty k = 0.122055
        44        43        47        48     9        0.000000       11.495875         1    ;  uncertainty k = 0.252665
        44        43        47        48     9      180.000000        1.949624         2    ;  uncertainty k = 0.553011
        44        43        47        48     9        0.000000        0.839048         3    ;  uncertainty k = 0.105773
        44        43        47        48     9      180.000000       -0.431765         4    ;  uncertainty k = 0.122055
        45        43        47        46     9        0.000000       11.495875         1    ;  uncertainty k = 0.252665
        45        43        47        46     9      180.000000        1.949624         2    ;  uncertainty k = 0.553011
        45        43        47        46     9        0.000000        0.839048         3    ;  uncertainty k = 0.105773
        45        43        47        46     9      180.000000       -0.431765         4    ;  uncertainty k = 0.122055
        45        43        47        48     9        0.000000       11.495875         1    ;  uncertainty k = 0.252665
        45        43        47        48     9      180.000000        1.949624         2    ;  uncertainty k = 0.553011
        45        43        47        48     9        0.000000        0.839048         3    ;  uncertainty k = 0.105773
        45        43        47        48     9      180.000000       -0.431765         4    ;  uncertainty k = 0.122055

[ dihedrals ] ; impropers
;       ai        aj        ak        al funct           phase               k        pn
         1        14        21        22     4      180.000000       42.401816         2    ;  uncertainty k = 0.110120
         1        21        22        14     4      180.000000       42.401816         2    ;  uncertainty k = 0.110120
         1        22        14        21     4      180.000000       42.401816         2    ;  uncertainty k = 0.110120
         2        18        19        25     4      180.000000        5.131234         2    ;  uncertainty k = 0.308430
         2        19        25        18     4      180.000000        5.131234         2    ;  uncertainty k = 0.308430
         2        25        18        19     4      180.000000        5.131234         2    ;  uncertainty k = 0.308430
        10        11        24        54     4      180.000000        5.701239         2    ;  uncertainty k = 0.245315
        10        24        54        11     4      180.000000        5.701239         2    ;  uncertainty k = 0.245315
        10        54        11        24     4      180.000000        5.701239         2    ;  uncertainty k = 0.245315
        11        10        12        43     4      180.000000        3.886765         2    ;  uncertainty k = 0.451845
        11        12        43        10     4      180.000000        3.886765         2    ;  uncertainty k = 0.451845
        11        43        10        12     4      180.000000        3.886765         2    ;  uncertainty k = 0.451845
        12        11        13        49     4      180.000000       23.534388         2    ;  uncertainty k = 0.097280
        12        13        49        11     4      180.000000       23.534388         2    ;  uncertainty k = 0.097280
        12        49        11        13     4      180.000000       23.534388         2    ;  uncertainty k = 0.097280
        13        12        23        39     4      180.000000        1.813990         2    ;  uncertainty k = 0.420005
        13        23        39        12     4      180.000000        1.813990         2    ;  uncertainty k = 0.420005
        13        39        12        23     4      180.000000        1.813990         2    ;  uncertainty k = 0.420005
        15        14        16        17     4      180.000000       31.628471         2    ;  uncertainty k = 0.047312
        15        16        17        14     4      180.000000       31.628471         2    ;  uncertainty k = 0.047312
        15        17        14        16     4      180.000000       31.628471         2    ;  uncertainty k = 0.047312
        20        17        19        21     4      180.000000        9.434930         2    ;  uncertainty k = 0.065995
        20        19        21        17     4      180.000000        9.434930         2    ;  uncertainty k = 0.065995
        20        21        17        19     4      180.000000        9.434930         2    ;  uncertainty k = 0.065995
        22         1        23        41     4      180.000000        0.904360         2    ;  uncertainty k = 0.560724
        22        23        41         1     4      180.000000        0.904360         2    ;  uncertainty k = 0.560724
        22        41         1        23     4      180.000000        0.904360         2    ;  uncertainty k = 0.560724
        23        13        22        24     4      180.000000       22.156798         2    ;  uncertainty k = 0.101646
        23        22        24        13     4      180.000000       22.156798         2    ;  uncertainty k = 0.101646
        23        24        13        22     4      180.000000       22.156798         2    ;  uncertainty k = 0.101646
        24        10        23        42     4      180.000000        1.916301         2    ;  uncertainty k = 0.435438
        24        23        42        10     4      180.000000        1.916301         2    ;  uncertainty k = 0.435438
        24        42        10        23     4      180.000000        1.916301         2    ;  uncertainty k = 0.435438
        47        43        46        48     4      180.000000        0.094477         2    ;  uncertainty k = 0.211258
        47        46        48        43     4      180.000000        0.094477         2    ;  uncertainty k = 0.211258
        47        48        43        46     4      180.000000        0.094477         2    ;  uncertainty k = 0.211258

[ pairs ]
;       ai        aj funct
         1        13     1
         1        16     1
         1        17     1
         1        19     1
         1        24     1
         2        15     1
         2        21     1
         3         6     1
         3         8     1
         3        14     1
         3        17     1
         3        29     1
         3        30     1
         3        37     1
         3        38     1
         4         7     1
         4        15     1
         4        31     1
         4        32     1
         4        35     1
         4        36     1
         5         8     1
         5        16     1
         5        26     1
         5        27     1
         5        33     1
         5        34     1
         5        37     1
         5        38     1
         6         9     1
         6        28     1
         6        35     1
         6        36     1
         7        29     1
         7        30     1
         7        37     1
         7        38     1
         8        28     1
         8        31     1
         8        32     1
         9        16     1
         9        26     1
         9        27     1
         9        29     1
         9        30     1
         9        33     1
         9        34     1
        10        13     1
        10        22     1
        10        44     1
        10        45     1
        10        47     1
        10        49     1
        11        23     1
        11        39     1
        11        42     1
        11        46     1
        11        48     1
        11        50     1
        12        22     1
        12        24     1
        12        44     1
        12        45     1
        12        47     1
        12        51     1
        12        52     1
        12        53     1
        12        54     1
        13        41     1
        13        42     1
        13        43     1
        13        50     1
        14        18     1
        14        20     1
        14        23     1
        14        41     1
        15        19     1
        15        21     1
        15        22     1
        15        26     1
        15        27     1
        16        18     1
        16        20     1
        16        28     1
        17        25     1
        17        40     1
        18        21     1
        18        40     1
        20        22     1
        20        25     1
        21        23     1
        21        40     1
        21        41     1
        22        39     1
        22        42     1
        23        49     1
        23        54     1
        24        39     1
        24        41     1
        24        43     1
        25        40     1
        26        28     1
        27        28     1
        28        29     1
        28        30     1
        28        37     1
        28        38     1
        29        31     1
        29        32     1
        30        31     1
        30        32     1
        31        33     1
        31        34     1
        32        33     1
        32        34     1
        33        35     1
        33        36     1
        34        35     1
        34        36     1
        35        37     1
        35        38     1
        36        37     1
        36        38     1
        39        49     1
        42        54     1
        43        49     1
        43        54     1
        44        46     1
        44        48     1
        45        46     1
        45        48     1
