; ITP file created by ByteFF-joint-25, 2025-07-14 11:27:49.135362

[ atomtypes ]
;name           bonded.type        at.num        mass        charge   ptype           sigma         epsilon
 f0bf                                   9      0.0000       0.00000       A     3.03439e-01     3.47939e-01    ;  uncertainty sigma = 0.000014, epsilon = 0.000730
 c1bf                                   6      0.0000       0.00000       A     3.31522e-01     4.13270e-01    ;  uncertainty sigma = 0.000003, epsilon = 0.000629
 c2bf                                   6      0.0000       0.00000       A     3.31517e-01     4.13283e-01    ;  uncertainty sigma = 0.000005, epsilon = 0.000586
 c3bf                                   6      0.0000       0.00000       A     3.31518e-01     4.13523e-01    ;  uncertainty sigma = 0.000004, epsilon = 0.000559
 c4bf                                   6      0.0000       0.00000       A     3.31517e-01     4.13283e-01    ;  uncertainty sigma = 0.000005, epsilon = 0.000586
 c5bf                                   6      0.0000       0.00000       A     3.31518e-01     4.13523e-01    ;  uncertainty sigma = 0.000004, epsilon = 0.000559
 c6bf                                   6      0.0000       0.00000       A     3.31539e-01     4.13063e-01    ;  uncertainty sigma = 0.000004, epsilon = 0.000645
 c7bf                                   6      0.0000       0.00000       A     3.39797e-01     4.50319e-01    ;  uncertainty sigma = 0.000011, epsilon = 0.000769
 c8bf                                   6      0.0000       0.00000       A     3.39807e-01     4.50970e-01    ;  uncertainty sigma = 0.000008, epsilon = 0.001019
 c9bf                                   6      0.0000       0.00000       A     3.31508e-01     4.13240e-01    ;  uncertainty sigma = 0.000012, epsilon = 0.001062
 o10bf                                  8      0.0000       0.00000       A     3.04795e-01     6.11677e-01    ;  uncertainty sigma = 0.000021, epsilon = 0.001090
 c11bf                                  6      0.0000       0.00000       A     3.31494e-01     4.12846e-01    ;  uncertainty sigma = 0.000010, epsilon = 0.001641
 c12bf                                  6      0.0000       0.00000       A     3.39770e-01     4.50869e-01    ;  uncertainty sigma = 0.000014, epsilon = 0.000809
 c13bf                                  6      0.0000       0.00000       A     3.31529e-01     4.13056e-01    ;  uncertainty sigma = 0.000014, epsilon = 0.001106
 n14bf                                  7      0.0000       0.00000       A     3.38435e-01     3.93086e-01    ;  uncertainty sigma = 0.000039, epsilon = 0.001724
 c15bf                                  6      0.0000       0.00000       A     3.31537e-01     4.13073e-01    ;  uncertainty sigma = 0.000017, epsilon = 0.001187
 n16bf                                  7      0.0000       0.00000       A     3.36867e-01     4.69651e-01    ;  uncertainty sigma = 0.000042, epsilon = 0.002086
 n17bf                                  7      0.0000       0.00000       A     3.38438e-01     3.93920e-01    ;  uncertainty sigma = 0.000024, epsilon = 0.000872
 c18bf                                  6      0.0000       0.00000       A     3.31531e-01     4.12747e-01    ;  uncertainty sigma = 0.000015, epsilon = 0.000913
 h19bf                                  1      0.0000       0.00000       A     2.62567e-01     6.70836e-02    ;  uncertainty sigma = 0.000012, epsilon = 0.000443
 h20bf                                  1      0.0000       0.00000       A     2.62567e-01     6.70836e-02    ;  uncertainty sigma = 0.000012, epsilon = 0.000443
 h21bf                                  1      0.0000       0.00000       A     2.62562e-01     6.69941e-02    ;  uncertainty sigma = 0.000011, epsilon = 0.000488
 h22bf                                  1      0.0000       0.00000       A     2.60082e-01     8.72397e-02    ;  uncertainty sigma = 0.000032, epsilon = 0.000639
 h23bf                                  1      0.0000       0.00000       A     2.60017e-01     8.65482e-02    ;  uncertainty sigma = 0.000011, epsilon = 0.000948
 h24bf                                  1      0.0000       0.00000       A     2.60017e-01     8.65482e-02    ;  uncertainty sigma = 0.000011, epsilon = 0.000948
 h25bf                                  1      0.0000       0.00000       A     2.60043e-01     8.67081e-02    ;  uncertainty sigma = 0.000017, epsilon = 0.001169
 h26bf                                  1      0.0000       0.00000       A     2.60043e-01     8.67081e-02    ;  uncertainty sigma = 0.000017, epsilon = 0.001169
 h27bf                                  1      0.0000       0.00000       A     1.10707e-01     4.06772e-02    ;  uncertainty sigma = 0.000046, epsilon = 0.001139
 h28bf                                  1      0.0000       0.00000       A     1.10707e-01     4.06772e-02    ;  uncertainty sigma = 0.000046, epsilon = 0.001139
 h29bf                                  1      0.0000       0.00000       A     2.62562e-01     6.69941e-02    ;  uncertainty sigma = 0.000011, epsilon = 0.000488
 c30bf                                  6      0.0000       0.00000       A     3.39783e-01     4.51138e-01    ;  uncertainty sigma = 0.000009, epsilon = 0.000707
 h31bf                                  1      0.0000       0.00000       A     2.60035e-01     8.66577e-02    ;  uncertainty sigma = 0.000008, epsilon = 0.000584
 h32bf                                  1      0.0000       0.00000       A     2.60035e-01     8.66577e-02    ;  uncertainty sigma = 0.000008, epsilon = 0.000584
 h33bf                                  1      0.0000       0.00000       A     2.60035e-01     8.66578e-02    ;  uncertainty sigma = 0.000008, epsilon = 0.000585

[ moleculetype ]
;name             nrexcl
 MOL                   3

[ atoms ]
;       nr            type      resi   res      atom      cgnr      charge          mass ; qtot
         1            f0bf         1   UNL        f0         1    -0.14344       18.9980 ; qtot   -0.143
         2            c1bf         1   UNL        c1         2     0.12572       12.0110 ; qtot   -0.018
         3            c2bf         1   UNL        c2         3    -0.16456       12.0110 ; qtot   -0.182
         4            c3bf         1   UNL        c3         4    -0.09650       12.0110 ; qtot   -0.279
         5            c4bf         1   UNL        c4         5    -0.16456       12.0110 ; qtot   -0.443
         6            c5bf         1   UNL        c5         6    -0.09650       12.0110 ; qtot   -0.540
         7            c6bf         1   UNL        c6         7    -0.09992       12.0110 ; qtot   -0.640
         8            c7bf         1   UNL        c7         8    -0.00341       12.0110 ; qtot   -0.643
         9            c8bf         1   UNL        c8         9    -0.17251       12.0110 ; qtot   -0.816
        10            c9bf         1   UNL        c9        10     0.59844       12.0110 ; qtot   -0.217
        11           o10bf         1   UNL       o10        11    -0.52103       15.9990 ; qtot   -0.738
        12           c11bf         1   UNL       c11        12    -0.47758       12.0110 ; qtot   -1.216
        13           c12bf         1   UNL       c12        13    -0.13301       12.0110 ; qtot   -1.349
        14           c13bf         1   UNL       c13        14     0.53118       12.0110 ; qtot   -0.818
        15           n14bf         1   UNL       n14        15    -0.78398       14.0070 ; qtot   -1.602
        16           c15bf         1   UNL       c15        16     0.90749       12.0110 ; qtot   -0.694
        17           n16bf         1   UNL       n16        17    -0.92842       14.0070 ; qtot   -1.623
        18           n17bf         1   UNL       n17        18    -0.79012       14.0070 ; qtot   -2.413
        19           c18bf         1   UNL       c18        19     0.55652       12.0110 ; qtot   -1.856
        20           h19bf         1   UNL       h19        20     0.15167        1.0080 ; qtot   -1.705
        21           h20bf         1   UNL       h20        21     0.15167        1.0080 ; qtot   -1.553
        22           h21bf         1   UNL       h21        22     0.13769        1.0080 ; qtot   -1.415
        23           h22bf         1   UNL       h22        23     0.06152        1.0080 ; qtot   -1.354
        24           h23bf         1   UNL       h23        24     0.07831        1.0080 ; qtot   -1.275
        25           h24bf         1   UNL       h24        25     0.07831        1.0080 ; qtot   -1.197
        26           h25bf         1   UNL       h25        26     0.07687        1.0080 ; qtot   -1.120
        27           h26bf         1   UNL       h26        27     0.07687        1.0080 ; qtot   -1.043
        28           h27bf         1   UNL       h27        28     0.42595        1.0080 ; qtot   -0.617
        29           h28bf         1   UNL       h28        29     0.42595        1.0080 ; qtot   -0.191
        30           h29bf         1   UNL       h29        30     0.13769        1.0080 ; qtot   -0.054
        31           c30bf         1   UNL       c30        31    -0.15541       12.0110 ; qtot   -0.209
        32           h31bf         1   UNL       h31        32     0.06969        1.0080 ; qtot   -0.139
        33           h32bf         1   UNL       h32        33     0.06969        1.0080 ; qtot   -0.070
        34           h33bf         1   UNL       h33        34     0.06972        1.0080 ; qtot    0.000

[ bonds ]
;       ai        aj funct               r               k
         1         2     1        0.135626   340851.102441    ;  uncertainty r = 0.000032, k = 2.026590
         2         3     1        0.138936   362685.790625    ;  uncertainty r = 0.000012, k = 0.636918
         2         5     1        0.138936   362685.790625    ;  uncertainty r = 0.000012, k = 0.636918
         3         4     1        0.139539   370670.682910    ;  uncertainty r = 0.000023, k = 0.983100
         3        20     1        0.108794   336729.898193    ;  uncertainty r = 0.000011, k = 0.656360
         4         7     1        0.139883   349886.719092    ;  uncertainty r = 0.000040, k = 1.384950
         4        30     1        0.108820   334247.818848    ;  uncertainty r = 0.000026, k = 0.847939
         5         6     1        0.139539   370670.682910    ;  uncertainty r = 0.000023, k = 0.983100
         5        21     1        0.108794   336729.898193    ;  uncertainty r = 0.000011, k = 0.656360
         6         7     1        0.139883   349886.719092    ;  uncertainty r = 0.000040, k = 1.384950
         6        22     1        0.108820   334247.818848    ;  uncertainty r = 0.000026, k = 0.847939
         7         8     1        0.151384   221380.945801    ;  uncertainty r = 0.000053, k = 5.920668
         8         9     1        0.153636   202413.794092    ;  uncertainty r = 0.000095, k = 5.169691
         8        13     1        0.153590   201031.329907    ;  uncertainty r = 0.000075, k = 7.734879
         8        23     1        0.109674   301680.419873    ;  uncertainty r = 0.000040, k = 4.346452
         9        10     1        0.152038   193460.419702    ;  uncertainty r = 0.000039, k = 12.726084
         9        24     1        0.109629   311386.206885    ;  uncertainty r = 0.000020, k = 1.565001
         9        25     1        0.109629   311386.206885    ;  uncertainty r = 0.000020, k = 1.565001
        10        11     1        0.123060   726164.559570    ;  uncertainty r = 0.000061, k = 10.063645
        10        12     1        0.148261   297180.602441    ;  uncertainty r = 0.000188, k = 26.161640
        12        14     1        0.141906   425547.607080    ;  uncertainty r = 0.000081, k = 25.615228
        12        19     1        0.142802   375943.355420    ;  uncertainty r = 0.000291, k = 19.864260
        13        14     1        0.150820   235195.704785    ;  uncertainty r = 0.000139, k = 13.617093
        13        26     1        0.109638   309931.791895    ;  uncertainty r = 0.000026, k = 2.457324
        13        27     1        0.109638   309931.791895    ;  uncertainty r = 0.000026, k = 2.457324
        14        15     1        0.134188   435773.099805    ;  uncertainty r = 0.000075, k = 26.198234
        15        16     1        0.136187   615512.673242    ;  uncertainty r = 0.000130, k = 12.848212
        16        17     1        0.140031   671109.258691    ;  uncertainty r = 0.000284, k = 13.485473
        16        18     1        0.136195   616595.446680    ;  uncertainty r = 0.000245, k = 19.197319
        17        28     1        0.102294   440101.282324    ;  uncertainty r = 0.000017, k = 2.101026
        17        29     1        0.102294   440101.282324    ;  uncertainty r = 0.000017, k = 2.101026
        18        19     1        0.133950   423047.141016    ;  uncertainty r = 0.000151, k = 10.346185
        19        31     1        0.150328   234712.874658    ;  uncertainty r = 0.000137, k = 10.961709
        31        32     1        0.109333   310195.130566    ;  uncertainty r = 0.000024, k = 2.369140
        31        33     1        0.109333   310195.130566    ;  uncertainty r = 0.000024, k = 2.369140
        31        34     1        0.109333   310195.130566    ;  uncertainty r = 0.000024, k = 2.369140

[ angles ]
;       ai        aj        ak funct           theta             cth
         1         2         3     1      119.122940      518.408428    ;  uncertainty theta = 0.001805, k = 0.036427
         1         2         5     1      119.122940      518.408428    ;  uncertainty theta = 0.001805, k = 0.036427
         2         3         4     1      118.141769      493.647966    ;  uncertainty theta = 0.001482, k = 0.029760
         2         3        20     1      120.931297      281.433278    ;  uncertainty theta = 0.001265, k = 0.015501
         2         5         6     1      118.141769      493.647966    ;  uncertainty theta = 0.001482, k = 0.029760
         2         5        21     1      120.931297      281.433278    ;  uncertainty theta = 0.001265, k = 0.015501
         3         2         5     1      121.678688      368.198448    ;  uncertainty theta = 0.004362, k = 0.083149
         3         4         7     1      122.106651      518.618343    ;  uncertainty theta = 0.002888, k = 0.062360
         3         4        30     1      119.223244      290.115416    ;  uncertainty theta = 0.001360, k = 0.028745
         4         3        20     1      121.653091      280.043676    ;  uncertainty theta = 0.001656, k = 0.041393
         4         7         6     1      119.777000      476.337987    ;  uncertainty theta = 0.003695, k = 0.119383
         4         7         8     1      120.185753      416.211342    ;  uncertainty theta = 0.002384, k = 0.122596
         5         6         7     1      122.106651      518.618343    ;  uncertainty theta = 0.002888, k = 0.062360
         5         6        22     1      119.223244      290.115416    ;  uncertainty theta = 0.001360, k = 0.028745
         6         5        21     1      121.653091      280.043676    ;  uncertainty theta = 0.001656, k = 0.041393
         6         7         8     1      120.185753      416.211342    ;  uncertainty theta = 0.002384, k = 0.122596
         7         4        30     1      118.551208      264.563049    ;  uncertainty theta = 0.001477, k = 0.062472
         7         6        22     1      118.551208      264.563049    ;  uncertainty theta = 0.001477, k = 0.062472
         7         8         9     1      110.414780      559.428623    ;  uncertainty theta = 0.000995, k = 0.106061
         7         8        13     1      110.295570      555.720634    ;  uncertainty theta = 0.000935, k = 0.111089
         7         8        23     1      105.806908      396.660163    ;  uncertainty theta = 0.001847, k = 0.120792
         8         9        10     1      111.441612      511.633688    ;  uncertainty theta = 0.003594, k = 0.033491
         8         9        24     1      108.419510      382.161852    ;  uncertainty theta = 0.002760, k = 0.074189
         8         9        25     1      108.419510      382.161852    ;  uncertainty theta = 0.002760, k = 0.074189
         8        13        14     1      109.773598      539.426490    ;  uncertainty theta = 0.002624, k = 0.088245
         8        13        26     1      108.186256      389.043561    ;  uncertainty theta = 0.002747, k = 0.067616
         8        13        27     1      108.186256      389.043561    ;  uncertainty theta = 0.002747, k = 0.067616
         9         8        13     1      109.082077      631.318586    ;  uncertainty theta = 0.002937, k = 0.124054
         9         8        23     1      106.723465      397.547195    ;  uncertainty theta = 0.001168, k = 0.130517
         9        10        11     1      123.024559      588.879358    ;  uncertainty theta = 0.003153, k = 0.043786
         9        10        12     1      117.787064      341.157331    ;  uncertainty theta = 0.008681, k = 0.354810
        10         9        24     1      106.364281      369.943335    ;  uncertainty theta = 0.002331, k = 0.055850
        10         9        25     1      106.364273      369.943399    ;  uncertainty theta = 0.002331, k = 0.055850
        10        12        14     1      121.880104      449.765380    ;  uncertainty theta = 0.005054, k = 0.325557
        10        12        19     1      119.844833      413.430032    ;  uncertainty theta = 0.006191, k = 0.210306
        11        10        12     1      122.618698      582.810847    ;  uncertainty theta = 0.000980, k = 0.170090
        12        14        13     1      121.406960      377.845027    ;  uncertainty theta = 0.003295, k = 0.127018
        12        14        15     1      122.582092      627.540243    ;  uncertainty theta = 0.005967, k = 0.297346
        12        19        18     1      122.383156      662.067117    ;  uncertainty theta = 0.004833, k = 0.112198
        12        19        31     1      119.523659      414.817590    ;  uncertainty theta = 0.005180, k = 0.263123
        13         8        23     1      106.707680      397.795958    ;  uncertainty theta = 0.002248, k = 0.025575
        13        14        15     1      120.266136      463.793329    ;  uncertainty theta = 0.002339, k = 0.296190
        14        12        19     1      121.323036      479.233640    ;  uncertainty theta = 0.010961, k = 0.177569
        14        13        26     1      107.223305      389.087357    ;  uncertainty theta = 0.001281, k = 0.057403
        14        13        27     1      107.223305      389.087357    ;  uncertainty theta = 0.001281, k = 0.057403
        14        15        16     1      114.856422      431.793767    ;  uncertainty theta = 0.004539, k = 0.303258
        15        16        17     1      124.786148      813.740756    ;  uncertainty theta = 0.008641, k = 0.090113
        15        16        18     1      127.372116      752.813555    ;  uncertainty theta = 0.005980, k = 0.150087
        16        17        28     1      119.001221      455.807077    ;  uncertainty theta = 0.002454, k = 0.026560
        16        17        29     1      119.001221      455.807077    ;  uncertainty theta = 0.002454, k = 0.026560
        16        18        19     1      116.977066      428.127851    ;  uncertainty theta = 0.011152, k = 0.310340
        17        16        18     1      124.984985      814.915846    ;  uncertainty theta = 0.007499, k = 0.078164
        18        19        31     1      119.909103      538.938157    ;  uncertainty theta = 0.005365, k = 0.206680
        19        31        32     1      108.595581      388.106891    ;  uncertainty theta = 0.000958, k = 0.020113
        19        31        33     1      108.595581      388.106891    ;  uncertainty theta = 0.000958, k = 0.020113
        19        31        34     1      108.595581      388.106891    ;  uncertainty theta = 0.000958, k = 0.020113
        24         9        25     1      106.233719      302.159611    ;  uncertainty theta = 0.001972, k = 0.042779
        26        13        27     1      105.683983      310.775832    ;  uncertainty theta = 0.002270, k = 0.064381
        28        17        29     1      107.578018      266.499560    ;  uncertainty theta = 0.002398, k = 0.032762
        32        31        33     1      107.176285      313.113914    ;  uncertainty theta = 0.001145, k = 0.022349
        32        31        34     1      107.176285      313.113977    ;  uncertainty theta = 0.001145, k = 0.022349
        33        31        34     1      107.176285      313.113946    ;  uncertainty theta = 0.001145, k = 0.022348

[ dihedrals ] ; propers for gromacs 4.5 or higher, use funct 9
;       ai        aj        ak        al funct           phase               k        pn
         1         2         3         4     9        0.000000       -0.026879         1    ;  uncertainty k = 0.241384
         1         2         3         4     9      180.000000       12.064670         2    ;  uncertainty k = 0.547144
         1         2         3         4     9        0.000000        1.507683         3    ;  uncertainty k = 0.292719
         1         2         3         4     9      180.000000        1.551314         4    ;  uncertainty k = 0.254704
         1         2         3        20     9        0.000000       -0.348946         1    ;  uncertainty k = 0.239521
         1         2         3        20     9      180.000000        8.773120         2    ;  uncertainty k = 0.299320
         1         2         3        20     9        0.000000        0.779293         3    ;  uncertainty k = 0.244355
         1         2         3        20     9      180.000000        0.947408         4    ;  uncertainty k = 0.197188
         1         2         5         6     9        0.000000       -0.026879         1    ;  uncertainty k = 0.241384
         1         2         5         6     9      180.000000       12.064670         2    ;  uncertainty k = 0.547144
         1         2         5         6     9        0.000000        1.507683         3    ;  uncertainty k = 0.292719
         1         2         5         6     9      180.000000        1.551314         4    ;  uncertainty k = 0.254704
         1         2         5        21     9        0.000000       -0.348946         1    ;  uncertainty k = 0.239521
         1         2         5        21     9      180.000000        8.773120         2    ;  uncertainty k = 0.299320
         1         2         5        21     9        0.000000        0.779293         3    ;  uncertainty k = 0.244355
         1         2         5        21     9      180.000000        0.947408         4    ;  uncertainty k = 0.197188
         2         3         4         7     9        0.000000       -0.087347         1    ;  uncertainty k = 0.183103
         2         3         4         7     9      180.000000       13.921510         2    ;  uncertainty k = 0.217555
         2         3         4         7     9        0.000000       -0.900065         3    ;  uncertainty k = 0.533975
         2         3         4         7     9      180.000000        0.790756         4    ;  uncertainty k = 0.280387
         2         3         4        30     9        0.000000       -0.067418         1    ;  uncertainty k = 0.091158
         2         3         4        30     9      180.000000        7.990807         2    ;  uncertainty k = 0.487718
         2         3         4        30     9        0.000000        1.377658         3    ;  uncertainty k = 0.330487
         2         3         4        30     9      180.000000        1.812139         4    ;  uncertainty k = 0.173146
         2         5         6         7     9        0.000000       -0.087347         1    ;  uncertainty k = 0.183103
         2         5         6         7     9      180.000000       13.921510         2    ;  uncertainty k = 0.217555
         2         5         6         7     9        0.000000       -0.900065         3    ;  uncertainty k = 0.533975
         2         5         6         7     9      180.000000        0.790756         4    ;  uncertainty k = 0.280387
         2         5         6        22     9        0.000000       -0.067418         1    ;  uncertainty k = 0.091158
         2         5         6        22     9      180.000000        7.990807         2    ;  uncertainty k = 0.487718
         2         5         6        22     9        0.000000        1.377658         3    ;  uncertainty k = 0.330487
         2         5         6        22     9      180.000000        1.812139         4    ;  uncertainty k = 0.173146
         3         2         5         6     9        0.000000        0.005292         1    ;  uncertainty k = 0.203764
         3         2         5         6     9      180.000000        9.381058         2    ;  uncertainty k = 0.474458
         3         2         5         6     9        0.000000       -0.221684         3    ;  uncertainty k = 0.409373
         3         2         5         6     9      180.000000        1.156805         4    ;  uncertainty k = 0.270444
         3         2         5        21     9        0.000000        0.112258         1    ;  uncertainty k = 0.116024
         3         2         5        21     9      180.000000        5.609769         2    ;  uncertainty k = 0.669228
         3         2         5        21     9        0.000000        1.285149         3    ;  uncertainty k = 0.303254
         3         2         5        21     9      180.000000        1.500968         4    ;  uncertainty k = 0.193386
         3         4         7         6     9        0.000000       -0.178719         1    ;  uncertainty k = 0.166935
         3         4         7         6     9      180.000000       11.783378         2    ;  uncertainty k = 0.321961
         3         4         7         6     9        0.000000       -0.441091         3    ;  uncertainty k = 0.303362
         3         4         7         6     9      180.000000        0.800950         4    ;  uncertainty k = 0.354493
         3         4         7         8     9        0.000000        0.159170         1    ;  uncertainty k = 0.270990
         3         4         7         8     9      180.000000        8.902218         2    ;  uncertainty k = 0.586434
         3         4         7         8     9        0.000000        1.358610         3    ;  uncertainty k = 0.468680
         3         4         7         8     9      180.000000        1.823519         4    ;  uncertainty k = 0.206208
         4         3         2         5     9        0.000000        0.005292         1    ;  uncertainty k = 0.203764
         4         3         2         5     9      180.000000        9.381058         2    ;  uncertainty k = 0.474458
         4         3         2         5     9        0.000000       -0.221684         3    ;  uncertainty k = 0.409373
         4         3         2         5     9      180.000000        1.156805         4    ;  uncertainty k = 0.270444
         4         7         6         5     9        0.000000       -0.178719         1    ;  uncertainty k = 0.166935
         4         7         6         5     9      180.000000       11.783378         2    ;  uncertainty k = 0.321961
         4         7         6         5     9        0.000000       -0.441091         3    ;  uncertainty k = 0.303362
         4         7         6         5     9      180.000000        0.800950         4    ;  uncertainty k = 0.354493
         4         7         6        22     9        0.000000        0.074506         1    ;  uncertainty k = 0.214992
         4         7         6        22     9      180.000000        7.141181         2    ;  uncertainty k = 0.431965
         4         7         6        22     9        0.000000        1.474884         3    ;  uncertainty k = 0.399377
         4         7         6        22     9      180.000000        1.613585         4    ;  uncertainty k = 0.169026
         4         7         8         9     9        0.000000       -0.595869         1    ;  uncertainty k = 0.378805
         4         7         8         9     9      180.000000        2.446017         2    ;  uncertainty k = 0.232017
         4         7         8         9     9        0.000000        0.280244         3    ;  uncertainty k = 0.099471
         4         7         8         9     9      180.000000        0.264959         4    ;  uncertainty k = 0.057692
         4         7         8        13     9        0.000000       -0.600687         1    ;  uncertainty k = 0.393021
         4         7         8        13     9      180.000000        2.433873         2    ;  uncertainty k = 0.197899
         4         7         8        13     9        0.000000        0.262516         3    ;  uncertainty k = 0.071908
         4         7         8        13     9      180.000000        0.268110         4    ;  uncertainty k = 0.050171
         4         7         8        23     9        0.000000       -0.288460         1    ;  uncertainty k = 0.287340
         4         7         8        23     9      180.000000        1.657792         2    ;  uncertainty k = 0.127252
         4         7         8        23     9        0.000000        0.471713         3    ;  uncertainty k = 0.124603
         4         7         8        23     9      180.000000        0.327793         4    ;  uncertainty k = 0.027933
         5         2         3        20     9        0.000000        0.112258         1    ;  uncertainty k = 0.116024
         5         2         3        20     9      180.000000        5.609769         2    ;  uncertainty k = 0.669228
         5         2         3        20     9        0.000000        1.285149         3    ;  uncertainty k = 0.303254
         5         2         3        20     9      180.000000        1.500968         4    ;  uncertainty k = 0.193386
         5         6         7         8     9        0.000000        0.159170         1    ;  uncertainty k = 0.270990
         5         6         7         8     9      180.000000        8.902218         2    ;  uncertainty k = 0.586434
         5         6         7         8     9        0.000000        1.358610         3    ;  uncertainty k = 0.468680
         5         6         7         8     9      180.000000        1.823519         4    ;  uncertainty k = 0.206208
         6         7         4        30     9        0.000000        0.074506         1    ;  uncertainty k = 0.214992
         6         7         4        30     9      180.000000        7.141181         2    ;  uncertainty k = 0.431965
         6         7         4        30     9        0.000000        1.474884         3    ;  uncertainty k = 0.399377
         6         7         4        30     9      180.000000        1.613585         4    ;  uncertainty k = 0.169026
         6         7         8         9     9        0.000000       -0.595869         1    ;  uncertainty k = 0.378805
         6         7         8         9     9      180.000000        2.446017         2    ;  uncertainty k = 0.232017
         6         7         8         9     9        0.000000        0.280244         3    ;  uncertainty k = 0.099471
         6         7         8         9     9      180.000000        0.264959         4    ;  uncertainty k = 0.057692
         6         7         8        13     9        0.000000       -0.600687         1    ;  uncertainty k = 0.393021
         6         7         8        13     9      180.000000        2.433873         2    ;  uncertainty k = 0.197899
         6         7         8        13     9        0.000000        0.262516         3    ;  uncertainty k = 0.071908
         6         7         8        13     9      180.000000        0.268110         4    ;  uncertainty k = 0.050171
         6         7         8        23     9        0.000000       -0.288460         1    ;  uncertainty k = 0.287340
         6         7         8        23     9      180.000000        1.657792         2    ;  uncertainty k = 0.127252
         6         7         8        23     9        0.000000        0.471713         3    ;  uncertainty k = 0.124603
         6         7         8        23     9      180.000000        0.327793         4    ;  uncertainty k = 0.027933
         7         4         3        20     9        0.000000        0.152721         1    ;  uncertainty k = 0.174142
         7         4         3        20     9      180.000000        7.405022         2    ;  uncertainty k = 0.475052
         7         4         3        20     9        0.000000        1.563252         3    ;  uncertainty k = 0.284926
         7         4         3        20     9      180.000000        1.877852         4    ;  uncertainty k = 0.197961
         7         6         5        21     9        0.000000        0.152721         1    ;  uncertainty k = 0.174142
         7         6         5        21     9      180.000000        7.405022         2    ;  uncertainty k = 0.475052
         7         6         5        21     9        0.000000        1.563252         3    ;  uncertainty k = 0.284926
         7         6         5        21     9      180.000000        1.877852         4    ;  uncertainty k = 0.197961
         7         8         9        10     9        0.000000       -2.058571         1    ;  uncertainty k = 0.824711
         7         8         9        10     9      180.000000        0.231328         2    ;  uncertainty k = 0.340291
         7         8         9        10     9        0.000000        0.691419         3    ;  uncertainty k = 0.225325
         7         8         9        10     9      180.000000       -0.106908         4    ;  uncertainty k = 0.116152
         7         8         9        24     9        0.000000        0.764328         1    ;  uncertainty k = 0.329789
         7         8         9        24     9      180.000000       -0.235842         2    ;  uncertainty k = 0.322362
         7         8         9        24     9        0.000000        0.806509         3    ;  uncertainty k = 0.072377
         7         8         9        24     9      180.000000       -0.032639         4    ;  uncertainty k = 0.091448
         7         8         9        25     9        0.000000        0.764328         1    ;  uncertainty k = 0.329789
         7         8         9        25     9      180.000000       -0.235842         2    ;  uncertainty k = 0.322362
         7         8         9        25     9        0.000000        0.806509         3    ;  uncertainty k = 0.072377
         7         8         9        25     9      180.000000       -0.032639         4    ;  uncertainty k = 0.091448
         7         8        13        14     9        0.000000       -2.092008         1    ;  uncertainty k = 0.552557
         7         8        13        14     9      180.000000        0.296540         2    ;  uncertainty k = 0.649451
         7         8        13        14     9        0.000000        1.015319         3    ;  uncertainty k = 0.197277
         7         8        13        14     9      180.000000       -0.010792         4    ;  uncertainty k = 0.025419
         7         8        13        26     9        0.000000        0.705397         1    ;  uncertainty k = 0.235839
         7         8        13        26     9      180.000000       -0.120276         2    ;  uncertainty k = 0.277998
         7         8        13        26     9        0.000000        0.783207         3    ;  uncertainty k = 0.155014
         7         8        13        26     9      180.000000       -0.061569         4    ;  uncertainty k = 0.095531
         7         8        13        27     9        0.000000        0.705397         1    ;  uncertainty k = 0.235839
         7         8        13        27     9      180.000000       -0.120276         2    ;  uncertainty k = 0.277998
         7         8        13        27     9        0.000000        0.783207         3    ;  uncertainty k = 0.155014
         7         8        13        27     9      180.000000       -0.061569         4    ;  uncertainty k = 0.095531
         8         7         4        30     9        0.000000       -0.013945         1    ;  uncertainty k = 0.228460
         8         7         4        30     9      180.000000        7.910175         2    ;  uncertainty k = 0.283633
         8         7         4        30     9        0.000000        0.705124         3    ;  uncertainty k = 0.329697
         8         7         4        30     9      180.000000        0.944167         4    ;  uncertainty k = 0.135707
         8         7         6        22     9        0.000000       -0.013945         1    ;  uncertainty k = 0.228460
         8         7         6        22     9      180.000000        7.910175         2    ;  uncertainty k = 0.283633
         8         7         6        22     9        0.000000        0.705124         3    ;  uncertainty k = 0.329697
         8         7         6        22     9      180.000000        0.944167         4    ;  uncertainty k = 0.135707
         8         9        10        11     9        0.000000       -1.521633         1    ;  uncertainty k = 1.493715
         8         9        10        11     9      180.000000        4.475972         2    ;  uncertainty k = 0.871397
         8         9        10        11     9        0.000000        1.379971         3    ;  uncertainty k = 0.658058
         8         9        10        11     9      180.000000        0.566435         4    ;  uncertainty k = 0.215829
         8         9        10        12     9        0.000000       -3.082437         1    ;  uncertainty k = 1.082701
         8         9        10        12     9      180.000000        2.406037         2    ;  uncertainty k = 0.957956
         8         9        10        12     9        0.000000        0.278736         3    ;  uncertainty k = 0.385233
         8         9        10        12     9      180.000000        0.273598         4    ;  uncertainty k = 0.139210
         8        13        14        12     9        0.000000       -2.613266         1    ;  uncertainty k = 1.872074
         8        13        14        12     9      180.000000        2.882950         2    ;  uncertainty k = 0.997435
         8        13        14        12     9        0.000000       -0.063048         3    ;  uncertainty k = 0.295417
         8        13        14        12     9      180.000000        0.537521         4    ;  uncertainty k = 0.239374
         8        13        14        15     9        0.000000       -2.400103         1    ;  uncertainty k = 1.206538
         8        13        14        15     9      180.000000        3.236011         2    ;  uncertainty k = 0.568697
         8        13        14        15     9        0.000000        0.584843         3    ;  uncertainty k = 0.358702
         8        13        14        15     9      180.000000        0.419682         4    ;  uncertainty k = 0.161002
         9         8        13        14     9        0.000000       -0.033800         1    ;  uncertainty k = 1.581022
         9         8        13        14     9      180.000000       -1.144849         2    ;  uncertainty k = 0.663263
         9         8        13        14     9        0.000000        0.725832         3    ;  uncertainty k = 0.207044
         9         8        13        14     9      180.000000       -0.389374         4    ;  uncertainty k = 0.167099
         9         8        13        26     9        0.000000       -0.706215         1    ;  uncertainty k = 0.113449
         9         8        13        26     9      180.000000       -0.557623         2    ;  uncertainty k = 0.273758
         9         8        13        26     9        0.000000        0.241656         3    ;  uncertainty k = 0.139798
         9         8        13        26     9      180.000000        0.067418         4    ;  uncertainty k = 0.096832
         9         8        13        27     9        0.000000       -0.706215         1    ;  uncertainty k = 0.113449
         9         8        13        27     9      180.000000       -0.557623         2    ;  uncertainty k = 0.273758
         9         8        13        27     9        0.000000        0.241656         3    ;  uncertainty k = 0.139798
         9         8        13        27     9      180.000000        0.067418         4    ;  uncertainty k = 0.096832
         9        10        12        14     9        0.000000        0.701091         1    ;  uncertainty k = 2.342135
         9        10        12        14     9      180.000000        0.541529         2    ;  uncertainty k = 0.573933
         9        10        12        14     9        0.000000       -0.404231         3    ;  uncertainty k = 0.501310
         9        10        12        14     9      180.000000        0.701000         4    ;  uncertainty k = 0.241885
         9        10        12        19     9        0.000000       -1.413725         1    ;  uncertainty k = 2.495240
         9        10        12        19     9      180.000000        1.102673         2    ;  uncertainty k = 1.041045
         9        10        12        19     9        0.000000        0.126739         3    ;  uncertainty k = 0.372048
         9        10        12        19     9      180.000000        0.449240         4    ;  uncertainty k = 0.173933
        10         9         8        13     9        0.000000       -0.711530         1    ;  uncertainty k = 2.650037
        10         9         8        13     9      180.000000       -0.647655         2    ;  uncertainty k = 0.670460
        10         9         8        13     9        0.000000        0.385246         3    ;  uncertainty k = 0.292977
        10         9         8        13     9      180.000000       -0.307088         4    ;  uncertainty k = 0.354286
        10         9         8        23     9        0.000000       -1.953594         1    ;  uncertainty k = 0.824606
        10         9         8        23     9      180.000000       -0.016858         2    ;  uncertainty k = 0.443005
        10         9         8        23     9        0.000000        0.212758         3    ;  uncertainty k = 0.118242
        10         9         8        23     9      180.000000        0.001621         4    ;  uncertainty k = 0.041465
        10        12        14        13     9        0.000000       -0.686589         1    ;  uncertainty k = 0.942766
        10        12        14        13     9      180.000000        4.031019         2    ;  uncertainty k = 1.060284
        10        12        14        13     9        0.000000        0.904649         3    ;  uncertainty k = 0.433832
        10        12        14        13     9      180.000000        1.173462         4    ;  uncertainty k = 0.243333
        10        12        14        15     9        0.000000        0.219638         1    ;  uncertainty k = 1.063648
        10        12        14        15     9      180.000000        6.772061         2    ;  uncertainty k = 0.944432
        10        12        14        15     9        0.000000        0.807797         3    ;  uncertainty k = 0.405334
        10        12        14        15     9      180.000000        1.638098         4    ;  uncertainty k = 0.382541
        10        12        19        18     9        0.000000        0.327635         1    ;  uncertainty k = 0.996879
        10        12        19        18     9      180.000000        6.585292         2    ;  uncertainty k = 0.568303
        10        12        19        18     9        0.000000        0.934079         3    ;  uncertainty k = 0.395644
        10        12        19        18     9      180.000000        1.613069         4    ;  uncertainty k = 0.350603
        10        12        19        31     9        0.000000       -0.202352         1    ;  uncertainty k = 0.594063
        10        12        19        31     9      180.000000        5.535986         2    ;  uncertainty k = 0.328217
        10        12        19        31     9        0.000000        1.032216         3    ;  uncertainty k = 0.354537
        10        12        19        31     9      180.000000        1.109959         4    ;  uncertainty k = 0.233836
        11        10         9        24     9        0.000000        2.194847         1    ;  uncertainty k = 1.056900
        11        10         9        24     9      180.000000        4.796457         2    ;  uncertainty k = 0.457058
        11        10         9        24     9        0.000000        0.413717         3    ;  uncertainty k = 0.204815
        11        10         9        24     9      180.000000        0.156087         4    ;  uncertainty k = 0.105850
        11        10         9        25     9        0.000000        2.194847         1    ;  uncertainty k = 1.056900
        11        10         9        25     9      180.000000        4.796457         2    ;  uncertainty k = 0.457058
        11        10         9        25     9        0.000000        0.413717         3    ;  uncertainty k = 0.204815
        11        10         9        25     9      180.000000        0.156087         4    ;  uncertainty k = 0.105850
        11        10        12        14     9        0.000000       -0.989668         1    ;  uncertainty k = 1.513462
        11        10        12        14     9      180.000000        5.695362         2    ;  uncertainty k = 0.794610
        11        10        12        14     9        0.000000        0.309699         3    ;  uncertainty k = 0.308417
        11        10        12        14     9      180.000000       -0.037909         4    ;  uncertainty k = 0.253201
        11        10        12        19     9        0.000000       -1.898612         1    ;  uncertainty k = 0.697428
        11        10        12        19     9      180.000000        6.001138         2    ;  uncertainty k = 0.509028
        11        10        12        19     9        0.000000        0.395640         3    ;  uncertainty k = 0.237072
        11        10        12        19     9      180.000000       -0.115474         4    ;  uncertainty k = 0.092380
        12        10         9        24     9        0.000000       -2.801852         1    ;  uncertainty k = 1.096585
        12        10         9        24     9      180.000000        2.731390         2    ;  uncertainty k = 0.974385
        12        10         9        24     9        0.000000        0.599439         3    ;  uncertainty k = 0.227203
        12        10         9        24     9      180.000000        0.081298         4    ;  uncertainty k = 0.124129
        12        10         9        25     9        0.000000       -2.801852         1    ;  uncertainty k = 1.096585
        12        10         9        25     9      180.000000        2.731390         2    ;  uncertainty k = 0.974385
        12        10         9        25     9        0.000000        0.599439         3    ;  uncertainty k = 0.227203
        12        10         9        25     9      180.000000        0.081298         4    ;  uncertainty k = 0.124129
        12        14        13        26     9        0.000000       -1.132268         1    ;  uncertainty k = 0.828701
        12        14        13        26     9      180.000000        3.145267         2    ;  uncertainty k = 0.532302
        12        14        13        26     9        0.000000        0.611178         3    ;  uncertainty k = 0.263423
        12        14        13        26     9      180.000000        0.199087         4    ;  uncertainty k = 0.056807
        12        14        13        27     9        0.000000       -1.132268         1    ;  uncertainty k = 0.828701
        12        14        13        27     9      180.000000        3.145267         2    ;  uncertainty k = 0.532302
        12        14        13        27     9        0.000000        0.611178         3    ;  uncertainty k = 0.263423
        12        14        13        27     9      180.000000        0.199087         4    ;  uncertainty k = 0.056807
        12        14        15        16     9        0.000000       -0.685846         1    ;  uncertainty k = 1.232120
        12        14        15        16     9      180.000000       14.546698         2    ;  uncertainty k = 0.501982
        12        14        15        16     9        0.000000        0.211203         3    ;  uncertainty k = 0.853222
        12        14        15        16     9      180.000000        1.471272         4    ;  uncertainty k = 0.256908
        12        19        18        16     9        0.000000       -1.120230         1    ;  uncertainty k = 1.041988
        12        19        18        16     9      180.000000       14.169933         2    ;  uncertainty k = 0.501930
        12        19        18        16     9        0.000000        0.589475         3    ;  uncertainty k = 0.833010
        12        19        18        16     9      180.000000        1.367106         4    ;  uncertainty k = 0.506018
        12        19        31        32     9        0.000000        0.250334         1    ;  uncertainty k = 0.478459
        12        19        31        32     9      180.000000        4.154631         2    ;  uncertainty k = 0.481025
        12        19        31        32     9        0.000000        0.220305         3    ;  uncertainty k = 0.116089
        12        19        31        32     9      180.000000        0.283475         4    ;  uncertainty k = 0.058799
        12        19        31        33     9        0.000000        0.250334         1    ;  uncertainty k = 0.478459
        12        19        31        33     9      180.000000        4.154631         2    ;  uncertainty k = 0.481025
        12        19        31        33     9        0.000000        0.220305         3    ;  uncertainty k = 0.116089
        12        19        31        33     9      180.000000        0.283475         4    ;  uncertainty k = 0.058799
        12        19        31        34     9        0.000000        0.250334         1    ;  uncertainty k = 0.478459
        12        19        31        34     9      180.000000        4.154631         2    ;  uncertainty k = 0.481025
        12        19        31        34     9        0.000000        0.220305         3    ;  uncertainty k = 0.116089
        12        19        31        34     9      180.000000        0.283475         4    ;  uncertainty k = 0.058799
        13         8         9        24     9        0.000000       -0.770985         1    ;  uncertainty k = 0.304423
        13         8         9        24     9      180.000000       -0.676981         2    ;  uncertainty k = 0.233712
        13         8         9        24     9        0.000000        0.238088         3    ;  uncertainty k = 0.071110
        13         8         9        24     9      180.000000        0.042742         4    ;  uncertainty k = 0.074162
        13         8         9        25     9        0.000000       -0.770985         1    ;  uncertainty k = 0.304423
        13         8         9        25     9      180.000000       -0.676981         2    ;  uncertainty k = 0.233712
        13         8         9        25     9        0.000000        0.238088         3    ;  uncertainty k = 0.071110
        13         8         9        25     9      180.000000        0.042742         4    ;  uncertainty k = 0.074162
        13        14        12        19     9        0.000000        0.079645         1    ;  uncertainty k = 0.625522
        13        14        12        19     9      180.000000        4.543911         2    ;  uncertainty k = 1.241236
        13        14        12        19     9        0.000000        0.761025         3    ;  uncertainty k = 0.179771
        13        14        12        19     9      180.000000        1.358701         4    ;  uncertainty k = 0.414277
        13        14        15        16     9        0.000000        0.462029         1    ;  uncertainty k = 1.582270
        13        14        15        16     9      180.000000       17.027929         2    ;  uncertainty k = 0.675626
        13        14        15        16     9        0.000000        1.539619         3    ;  uncertainty k = 0.688805
        13        14        15        16     9      180.000000        1.336756         4    ;  uncertainty k = 0.519888
        14        12        19        18     9        0.000000        0.627820         1    ;  uncertainty k = 0.975341
        14        12        19        18     9      180.000000        7.952031         2    ;  uncertainty k = 0.835245
        14        12        19        18     9        0.000000       -0.105299         3    ;  uncertainty k = 0.501250
        14        12        19        18     9      180.000000        1.192430         4    ;  uncertainty k = 0.436934
        14        12        19        31     9        0.000000       -0.196404         1    ;  uncertainty k = 0.866706
        14        12        19        31     9      180.000000        5.042924         2    ;  uncertainty k = 1.482511
        14        12        19        31     9        0.000000        0.806257         3    ;  uncertainty k = 0.391334
        14        12        19        31     9      180.000000        0.938862         4    ;  uncertainty k = 0.372765
        14        13         8        23     9        0.000000       -0.637861         1    ;  uncertainty k = 0.465440
        14        13         8        23     9      180.000000       -0.167277         2    ;  uncertainty k = 0.341217
        14        13         8        23     9        0.000000        0.495355         3    ;  uncertainty k = 0.225916
        14        13         8        23     9      180.000000        0.040956         4    ;  uncertainty k = 0.059597
        14        15        16        17     9        0.000000        1.225385         1    ;  uncertainty k = 1.304319
        14        15        16        17     9      180.000000        9.637900         2    ;  uncertainty k = 0.646051
        14        15        16        17     9        0.000000        2.136188         3    ;  uncertainty k = 0.368571
        14        15        16        17     9      180.000000        0.929466         4    ;  uncertainty k = 0.168866
        14        15        16        18     9        0.000000        0.354678         1    ;  uncertainty k = 2.056634
        14        15        16        18     9      180.000000        6.801902         2    ;  uncertainty k = 1.157186
        14        15        16        18     9        0.000000        0.847388         3    ;  uncertainty k = 0.344815
        14        15        16        18     9      180.000000        0.645534         4    ;  uncertainty k = 0.075867
        15        14        12        19     9        0.000000        0.236061         1    ;  uncertainty k = 0.416765
        15        14        12        19     9      180.000000        8.345250         2    ;  uncertainty k = 0.975378
        15        14        12        19     9        0.000000       -0.210054         3    ;  uncertainty k = 0.320602
        15        14        12        19     9      180.000000        1.318436         4    ;  uncertainty k = 0.206544
        15        14        13        26     9        0.000000        1.847495         1    ;  uncertainty k = 0.846487
        15        14        13        26     9      180.000000        3.717513         2    ;  uncertainty k = 0.345568
        15        14        13        26     9        0.000000        0.317728         3    ;  uncertainty k = 0.249496
        15        14        13        26     9      180.000000        0.238148         4    ;  uncertainty k = 0.094919
        15        14        13        27     9        0.000000        1.847495         1    ;  uncertainty k = 0.846487
        15        14        13        27     9      180.000000        3.717513         2    ;  uncertainty k = 0.345568
        15        14        13        27     9        0.000000        0.317728         3    ;  uncertainty k = 0.249496
        15        14        13        27     9      180.000000        0.238148         4    ;  uncertainty k = 0.094919
        15        16        17        28     9        0.000000       20.384539         1    ;  uncertainty k = 0.246114
        15        16        17        28     9      180.000000       11.734634         2    ;  uncertainty k = 0.277221
        15        16        17        28     9        0.000000        1.025883         3    ;  uncertainty k = 0.249330
        15        16        17        28     9      180.000000       -0.493878         4    ;  uncertainty k = 0.192183
        15        16        17        29     9        0.000000       20.384539         1    ;  uncertainty k = 0.246114
        15        16        17        29     9      180.000000       11.734634         2    ;  uncertainty k = 0.277221
        15        16        17        29     9        0.000000        1.025883         3    ;  uncertainty k = 0.249330
        15        16        17        29     9      180.000000       -0.493878         4    ;  uncertainty k = 0.192183
        15        16        18        19     9        0.000000       -0.180154         1    ;  uncertainty k = 1.669256
        15        16        18        19     9      180.000000        6.771524         2    ;  uncertainty k = 1.120712
        15        16        18        19     9        0.000000        0.677677         3    ;  uncertainty k = 0.500196
        15        16        18        19     9      180.000000        0.687824         4    ;  uncertainty k = 0.089590
        16        18        19        31     9        0.000000        0.522921         1    ;  uncertainty k = 0.987726
        16        18        19        31     9      180.000000       15.886674         2    ;  uncertainty k = 0.533495
        16        18        19        31     9        0.000000        2.178602         3    ;  uncertainty k = 0.351815
        16        18        19        31     9      180.000000        1.583201         4    ;  uncertainty k = 0.443731
        17        16        18        19     9        0.000000        0.921804         1    ;  uncertainty k = 1.286627
        17        16        18        19     9      180.000000        8.767295         2    ;  uncertainty k = 0.339745
        17        16        18        19     9        0.000000        2.058055         3    ;  uncertainty k = 0.524779
        17        16        18        19     9      180.000000        0.955625         4    ;  uncertainty k = 0.222444
        18        16        17        28     9        0.000000       21.010182         1    ;  uncertainty k = 0.424040
        18        16        17        28     9      180.000000       12.083276         2    ;  uncertainty k = 0.296126
        18        16        17        28     9        0.000000        0.947676         3    ;  uncertainty k = 0.153764
        18        16        17        28     9      180.000000       -0.537403         4    ;  uncertainty k = 0.183040
        18        16        17        29     9        0.000000       21.010182         1    ;  uncertainty k = 0.424040
        18        16        17        29     9      180.000000       12.083276         2    ;  uncertainty k = 0.296126
        18        16        17        29     9        0.000000        0.947676         3    ;  uncertainty k = 0.153764
        18        16        17        29     9      180.000000       -0.537403         4    ;  uncertainty k = 0.183040
        18        19        31        32     9        0.000000        0.243475         1    ;  uncertainty k = 0.297047
        18        19        31        32     9      180.000000        4.592599         2    ;  uncertainty k = 0.236926
        18        19        31        32     9        0.000000        0.686160         3    ;  uncertainty k = 0.055959
        18        19        31        32     9      180.000000        0.379812         4    ;  uncertainty k = 0.096353
        18        19        31        33     9        0.000000        0.243475         1    ;  uncertainty k = 0.297047
        18        19        31        33     9      180.000000        4.592599         2    ;  uncertainty k = 0.236926
        18        19        31        33     9        0.000000        0.686160         3    ;  uncertainty k = 0.055959
        18        19        31        33     9      180.000000        0.379812         4    ;  uncertainty k = 0.096353
        18        19        31        34     9        0.000000        0.243475         1    ;  uncertainty k = 0.297047
        18        19        31        34     9      180.000000        4.592599         2    ;  uncertainty k = 0.236926
        18        19        31        34     9        0.000000        0.686160         3    ;  uncertainty k = 0.055959
        18        19        31        34     9      180.000000        0.379812         4    ;  uncertainty k = 0.096353
        20         3         4        30     9        0.000000       -0.006849         1    ;  uncertainty k = 0.098910
        20         3         4        30     9      180.000000        7.619947         2    ;  uncertainty k = 0.278774
        20         3         4        30     9        0.000000       -0.461402         3    ;  uncertainty k = 0.233830
        20         3         4        30     9      180.000000        0.104799         4    ;  uncertainty k = 0.114056
        21         5         6        22     9        0.000000       -0.006849         1    ;  uncertainty k = 0.098910
        21         5         6        22     9      180.000000        7.619947         2    ;  uncertainty k = 0.278774
        21         5         6        22     9        0.000000       -0.461402         3    ;  uncertainty k = 0.233830
        21         5         6        22     9      180.000000        0.104799         4    ;  uncertainty k = 0.114056
        23         8         9        24     9        0.000000        1.028347         1    ;  uncertainty k = 0.272152
        23         8         9        24     9      180.000000       -0.103949         2    ;  uncertainty k = 0.135353
        23         8         9        24     9        0.000000        0.071415         3    ;  uncertainty k = 0.141615
        23         8         9        24     9      180.000000        0.048657         4    ;  uncertainty k = 0.062000
        23         8         9        25     9        0.000000        1.028347         1    ;  uncertainty k = 0.272152
        23         8         9        25     9      180.000000       -0.103949         2    ;  uncertainty k = 0.135353
        23         8         9        25     9        0.000000        0.071415         3    ;  uncertainty k = 0.141615
        23         8         9        25     9      180.000000        0.048657         4    ;  uncertainty k = 0.062000
        23         8        13        26     9        0.000000        0.973094         1    ;  uncertainty k = 0.325793
        23         8        13        26     9      180.000000       -0.160116         2    ;  uncertainty k = 0.383466
        23         8        13        26     9        0.000000        0.083960         3    ;  uncertainty k = 0.076352
        23         8        13        26     9      180.000000        0.086176         4    ;  uncertainty k = 0.076931
        23         8        13        27     9        0.000000        0.973094         1    ;  uncertainty k = 0.325793
        23         8        13        27     9      180.000000       -0.160116         2    ;  uncertainty k = 0.383466
        23         8        13        27     9        0.000000        0.083960         3    ;  uncertainty k = 0.076352
        23         8        13        27     9      180.000000        0.086176         4    ;  uncertainty k = 0.076931

[ dihedrals ] ; impropers
;       ai        aj        ak        al funct           phase               k        pn
         2         1         3         5     4      180.000000       16.708416         2    ;  uncertainty k = 0.071322
         2         3         5         1     4      180.000000       16.708416         2    ;  uncertainty k = 0.071322
         2         5         1         3     4      180.000000       16.708416         2    ;  uncertainty k = 0.071322
         3         2         4        20     4      180.000000        2.013757         2    ;  uncertainty k = 0.087766
         3         4        20         2     4      180.000000        2.013757         2    ;  uncertainty k = 0.087766
         3        20         2         4     4      180.000000        2.013757         2    ;  uncertainty k = 0.087766
         4         3         7        30     4      180.000000        4.591524         2    ;  uncertainty k = 0.126227
         4         7        30         3     4      180.000000        4.591524         2    ;  uncertainty k = 0.126227
         4        30         3         7     4      180.000000        4.591524         2    ;  uncertainty k = 0.126227
         5         2         6        21     4      180.000000        2.013757         2    ;  uncertainty k = 0.087766
         5         6        21         2     4      180.000000        2.013757         2    ;  uncertainty k = 0.087766
         5        21         2         6     4      180.000000        2.013757         2    ;  uncertainty k = 0.087766
         6         5         7        22     4      180.000000        4.591524         2    ;  uncertainty k = 0.126227
         6         7        22         5     4      180.000000        4.591524         2    ;  uncertainty k = 0.126227
         6        22         5         7     4      180.000000        4.591524         2    ;  uncertainty k = 0.126227
         7         4         6         8     4      180.000000       12.664544         2    ;  uncertainty k = 0.091909
         7         6         8         4     4      180.000000       12.664544         2    ;  uncertainty k = 0.091909
         7         8         4         6     4      180.000000       12.664544         2    ;  uncertainty k = 0.091909
        10         9        11        12     4      180.000000       57.800028         2    ;  uncertainty k = 0.031757
        10        11        12         9     4      180.000000       57.800028         2    ;  uncertainty k = 0.031757
        10        12         9        11     4      180.000000       57.800028         2    ;  uncertainty k = 0.031757
        12        10        14        19     4      180.000000        5.789902         2    ;  uncertainty k = 0.414560
        12        14        19        10     4      180.000000        5.789902         2    ;  uncertainty k = 0.414560
        12        19        10        14     4      180.000000        5.789902         2    ;  uncertainty k = 0.414560
        14        12        13        15     4      180.000000       32.228008         2    ;  uncertainty k = 0.082477
        14        13        15        12     4      180.000000       32.228008         2    ;  uncertainty k = 0.082477
        14        15        12        13     4      180.000000       32.228008         2    ;  uncertainty k = 0.082477
        16        15        17        18     4      180.000000       48.213115         2    ;  uncertainty k = 0.078355
        16        17        18        15     4      180.000000       48.213115         2    ;  uncertainty k = 0.078355
        16        18        15        17     4      180.000000       48.213115         2    ;  uncertainty k = 0.078355
        17        16        28        29     4      180.000000        0.305100         2    ;  uncertainty k = 0.433595
        17        28        29        16     4      180.000000        0.305100         2    ;  uncertainty k = 0.433595
        17        29        16        28     4      180.000000        0.305100         2    ;  uncertainty k = 0.433595
        19        12        18        31     4      180.000000       33.732348         2    ;  uncertainty k = 0.081526
        19        18        31        12     4      180.000000       33.732348         2    ;  uncertainty k = 0.081526
        19        31        12        18     4      180.000000       33.732348         2    ;  uncertainty k = 0.081526

[ pairs ]
;       ai        aj funct
         1         4     1
         1         6     1
         1        20     1
         1        21     1
         2         7     1
         2        22     1
         2        30     1
         3         6     1
         3         8     1
         3        21     1
         4         5     1
         4         9     1
         4        13     1
         4        22     1
         4        23     1
         5         8     1
         5        20     1
         6         9     1
         6        13     1
         6        23     1
         6        30     1
         7        10     1
         7        14     1
         7        20     1
         7        21     1
         7        24     1
         7        25     1
         7        26     1
         7        27     1
         8        11     1
         8        12     1
         8        15     1
         8        22     1
         8        30     1
         9        14     1
         9        19     1
         9        26     1
         9        27     1
        10        13     1
        10        15     1
        10        18     1
        10        23     1
        10        31     1
        11        14     1
        11        19     1
        11        24     1
        11        25     1
        12        16     1
        12        24     1
        12        25     1
        12        26     1
        12        27     1
        12        32     1
        12        33     1
        12        34     1
        13        16     1
        13        19     1
        13        24     1
        13        25     1
        14        17     1
        14        18     1
        14        23     1
        14        31     1
        15        19     1
        15        26     1
        15        27     1
        15        28     1
        15        29     1
        16        31     1
        17        19     1
        18        28     1
        18        29     1
        18        32     1
        18        33     1
        18        34     1
        20        30     1
        21        22     1
        23        24     1
        23        25     1
        23        26     1
        23        27     1
