; ITP file created by ByteFF-joint-25, 2025-07-14 11:27:49.669933

[ atomtypes ]
;name           bonded.type        at.num        mass        charge   ptype           sigma         epsilon
 f0bf                                   9      0.0000       0.00000       A     3.03439e-01     3.47939e-01    ;  uncertainty sigma = 0.000014, epsilon = 0.000730
 c1bf                                   6      0.0000       0.00000       A     3.31522e-01     4.13270e-01    ;  uncertainty sigma = 0.000003, epsilon = 0.000629
 c2bf                                   6      0.0000       0.00000       A     3.31517e-01     4.13283e-01    ;  uncertainty sigma = 0.000005, epsilon = 0.000586
 c3bf                                   6      0.0000       0.00000       A     3.31518e-01     4.13523e-01    ;  uncertainty sigma = 0.000004, epsilon = 0.000559
 c4bf                                   6      0.0000       0.00000       A     3.31517e-01     4.13283e-01    ;  uncertainty sigma = 0.000005, epsilon = 0.000586
 c5bf                                   6      0.0000       0.00000       A     3.31518e-01     4.13523e-01    ;  uncertainty sigma = 0.000004, epsilon = 0.000559
 c6bf                                   6      0.0000       0.00000       A     3.31540e-01     4.13083e-01    ;  uncertainty sigma = 0.000005, epsilon = 0.000647
 c7bf                                   6      0.0000       0.00000       A     3.39808e-01     4.50393e-01    ;  uncertainty sigma = 0.000011, epsilon = 0.000765
 c8bf                                   6      0.0000       0.00000       A     3.39784e-01     4.50700e-01    ;  uncertainty sigma = 0.000015, epsilon = 0.000684
 c9bf                                   6      0.0000       0.00000       A     3.31462e-01     4.13176e-01    ;  uncertainty sigma = 0.000047, epsilon = 0.001833
 n10bf                                  7      0.0000       0.00000       A     3.38388e-01     3.93364e-01    ;  uncertainty sigma = 0.000042, epsilon = 0.002395
 o11bf                                  8      0.0000       0.00000       A     3.24285e-01     3.88037e-01    ;  uncertainty sigma = 0.000023, epsilon = 0.001869
 c12bf                                  6      0.0000       0.00000       A     3.31558e-01     4.12915e-01    ;  uncertainty sigma = 0.000022, epsilon = 0.001008
 c13bf                                  6      0.0000       0.00000       A     3.39765e-01     4.50886e-01    ;  uncertainty sigma = 0.000013, epsilon = 0.000884
 c14bf                                  6      0.0000       0.00000       A     3.31558e-01     4.13094e-01    ;  uncertainty sigma = 0.000016, epsilon = 0.000723
 n15bf                                  7      0.0000       0.00000       A     3.38426e-01     3.93147e-01    ;  uncertainty sigma = 0.000037, epsilon = 0.001714
 c16bf                                  6      0.0000       0.00000       A     3.31531e-01     4.13128e-01    ;  uncertainty sigma = 0.000018, epsilon = 0.001137
 n17bf                                  7      0.0000       0.00000       A     3.36868e-01     4.69648e-01    ;  uncertainty sigma = 0.000038, epsilon = 0.001840
 n18bf                                  7      0.0000       0.00000       A     3.38457e-01     3.93858e-01    ;  uncertainty sigma = 0.000020, epsilon = 0.000824
 c19bf                                  6      0.0000       0.00000       A     3.31502e-01     4.13464e-01    ;  uncertainty sigma = 0.000021, epsilon = 0.000666
 h20bf                                  1      0.0000       0.00000       A     2.62567e-01     6.70836e-02    ;  uncertainty sigma = 0.000012, epsilon = 0.000443
 h21bf                                  1      0.0000       0.00000       A     2.62567e-01     6.70836e-02    ;  uncertainty sigma = 0.000012, epsilon = 0.000443
 h22bf                                  1      0.0000       0.00000       A     2.62562e-01     6.69941e-02    ;  uncertainty sigma = 0.000011, epsilon = 0.000488
 h23bf                                  1      0.0000       0.00000       A     2.60064e-01     8.72129e-02    ;  uncertainty sigma = 0.000042, epsilon = 0.000636
 h24bf                                  1      0.0000       0.00000       A     2.59998e-01     8.66362e-02    ;  uncertainty sigma = 0.000030, epsilon = 0.000898
 h25bf                                  1      0.0000       0.00000       A     2.59998e-01     8.66362e-02    ;  uncertainty sigma = 0.000030, epsilon = 0.000898
 h26bf                                  1      0.0000       0.00000       A     5.38150e-02     1.95465e-02    ;  uncertainty sigma = 0.000051, epsilon = 0.001777
 h27bf                                  1      0.0000       0.00000       A     2.60043e-01     8.67081e-02    ;  uncertainty sigma = 0.000017, epsilon = 0.001169
 h28bf                                  1      0.0000       0.00000       A     2.60043e-01     8.67081e-02    ;  uncertainty sigma = 0.000017, epsilon = 0.001169
 h29bf                                  1      0.0000       0.00000       A     1.10707e-01     4.06772e-02    ;  uncertainty sigma = 0.000046, epsilon = 0.001139
 h30bf                                  1      0.0000       0.00000       A     1.10707e-01     4.06772e-02    ;  uncertainty sigma = 0.000046, epsilon = 0.001139
 h31bf                                  1      0.0000       0.00000       A     2.62562e-01     6.69941e-02    ;  uncertainty sigma = 0.000011, epsilon = 0.000488
 h32bf                                  1      0.0000       0.00000       A     2.53573e-01     6.76296e-02    ;  uncertainty sigma = 0.000028, epsilon = 0.000791

[ moleculetype ]
;name             nrexcl
 MOL                   3

[ atoms ]
;       nr            type      resi   res      atom      cgnr      charge          mass ; qtot
         1            f0bf         1   UNL        f0         1    -0.14344       18.9980 ; qtot   -0.143
         2            c1bf         1   UNL        c1         2     0.12572       12.0110 ; qtot   -0.018
         3            c2bf         1   UNL        c2         3    -0.16456       12.0110 ; qtot   -0.182
         4            c3bf         1   UNL        c3         4    -0.09741       12.0110 ; qtot   -0.280
         5            c4bf         1   UNL        c4         5    -0.16456       12.0110 ; qtot   -0.444
         6            c5bf         1   UNL        c5         6    -0.09741       12.0110 ; qtot   -0.542
         7            c6bf         1   UNL        c6         7    -0.09769       12.0110 ; qtot   -0.639
         8            c7bf         1   UNL        c7         8    -0.00627       12.0110 ; qtot   -0.646
         9            c8bf         1   UNL        c8         9    -0.12517       12.0110 ; qtot   -0.771
        10            c9bf         1   UNL        c9        10     0.44108       12.0110 ; qtot   -0.330
        11           n10bf         1   UNL       n10        11    -0.42277       14.0070 ; qtot   -0.752
        12           o11bf         1   UNL       o11        12    -0.38446       15.9990 ; qtot   -1.137
        13           c12bf         1   UNL       c12        13    -0.45076       12.0110 ; qtot   -1.588
        14           c13bf         1   UNL       c13        14    -0.13275       12.0110 ; qtot   -1.720
        15           c14bf         1   UNL       c14        15     0.51261       12.0110 ; qtot   -1.208
        16           n15bf         1   UNL       n15        16    -0.77404       14.0070 ; qtot   -1.982
        17           c16bf         1   UNL       c16        17     0.88921       12.0110 ; qtot   -1.093
        18           n17bf         1   UNL       n17        18    -0.92787       14.0070 ; qtot   -2.021
        19           n18bf         1   UNL       n18        19    -0.75674       14.0070 ; qtot   -2.777
        20           c19bf         1   UNL       c19        20     0.51719       12.0110 ; qtot   -2.260
        21           h20bf         1   UNL       h20        21     0.15167        1.0080 ; qtot   -2.108
        22           h21bf         1   UNL       h21        22     0.15167        1.0080 ; qtot   -1.957
        23           h22bf         1   UNL       h22        23     0.13769        1.0080 ; qtot   -1.819
        24           h23bf         1   UNL       h23        24     0.06079        1.0080 ; qtot   -1.758
        25           h24bf         1   UNL       h24        25     0.07378        1.0080 ; qtot   -1.684
        26           h25bf         1   UNL       h25        26     0.07378        1.0080 ; qtot   -1.611
        27           h26bf         1   UNL       h26        27     0.42538        1.0080 ; qtot   -1.185
        28           h27bf         1   UNL       h27        28     0.07515        1.0080 ; qtot   -1.110
        29           h28bf         1   UNL       h28        29     0.07515        1.0080 ; qtot   -1.035
        30           h29bf         1   UNL       h29        30     0.42693        1.0080 ; qtot   -0.608
        31           h30bf         1   UNL       h30        31     0.42693        1.0080 ; qtot   -0.181
        32           h31bf         1   UNL       h31        32     0.13769        1.0080 ; qtot   -0.043
        33           h32bf         1   UNL       h32        33     0.04348        1.0080 ; qtot    0.000

[ bonds ]
;       ai        aj funct               r               k
         1         2     1        0.135626   340851.102441    ;  uncertainty r = 0.000032, k = 2.026590
         2         3     1        0.138936   362685.790625    ;  uncertainty r = 0.000012, k = 0.636918
         2         5     1        0.138936   362685.790625    ;  uncertainty r = 0.000012, k = 0.636918
         3         4     1        0.139539   370670.682910    ;  uncertainty r = 0.000023, k = 0.983100
         3        21     1        0.108794   336729.898193    ;  uncertainty r = 0.000011, k = 0.656360
         4         7     1        0.139882   349971.578906    ;  uncertainty r = 0.000032, k = 1.465717
         4        32     1        0.108820   334247.818848    ;  uncertainty r = 0.000026, k = 0.847939
         5         6     1        0.139539   370670.682910    ;  uncertainty r = 0.000023, k = 0.983100
         5        22     1        0.108794   336729.898193    ;  uncertainty r = 0.000011, k = 0.656360
         6         7     1        0.139882   349971.578906    ;  uncertainty r = 0.000032, k = 1.465717
         6        23     1        0.108820   334247.818848    ;  uncertainty r = 0.000026, k = 0.847939
         7         8     1        0.151345   221595.993799    ;  uncertainty r = 0.000054, k = 5.393544
         8         9     1        0.153853   198135.485547    ;  uncertainty r = 0.000076, k = 9.705563
         8        14     1        0.153679   199567.542798    ;  uncertainty r = 0.000086, k = 9.603953
         8        24     1        0.109654   302265.883643    ;  uncertainty r = 0.000036, k = 4.272317
         9        10     1        0.150908   224263.115039    ;  uncertainty r = 0.000158, k = 24.837568
         9        25     1        0.109622   310487.990137    ;  uncertainty r = 0.000030, k = 1.893283
         9        26     1        0.109622   310487.990137    ;  uncertainty r = 0.000030, k = 1.893283
        10        11     1        0.128594   543382.137402    ;  uncertainty r = 0.000103, k = 14.862596
        10        13     1        0.147256   275661.935986    ;  uncertainty r = 0.000107, k = 43.543197
        11        12     1        0.140074   319960.904248    ;  uncertainty r = 0.000204, k = 25.508082
        12        27     1        0.097177   448930.942188    ;  uncertainty r = 0.000095, k = 7.665798
        13        15     1        0.141501   418011.350732    ;  uncertainty r = 0.000195, k = 17.856549
        13        20     1        0.141179   421730.166748    ;  uncertainty r = 0.000122, k = 14.523871
        14        15     1        0.150681   234435.567188    ;  uncertainty r = 0.000110, k = 11.046896
        14        28     1        0.109640   310115.914453    ;  uncertainty r = 0.000022, k = 2.596545
        14        29     1        0.109640   310115.914453    ;  uncertainty r = 0.000022, k = 2.596545
        15        16     1        0.134017   427053.734717    ;  uncertainty r = 0.000115, k = 16.882425
        16        17     1        0.136316   613827.121875    ;  uncertainty r = 0.000194, k = 17.124932
        17        18     1        0.139782   696744.175195    ;  uncertainty r = 0.000198, k = 11.556484
        17        19     1        0.136832   581630.649414    ;  uncertainty r = 0.000159, k = 14.385658
        18        30     1        0.102280   439973.290332    ;  uncertainty r = 0.000017, k = 2.625454
        18        31     1        0.102280   439973.290332    ;  uncertainty r = 0.000017, k = 2.625452
        19        20     1        0.133452   423305.780859    ;  uncertainty r = 0.000089, k = 3.408555
        20        33     1        0.108652   327898.169824    ;  uncertainty r = 0.000101, k = 4.662893

[ angles ]
;       ai        aj        ak funct           theta             cth
         1         2         3     1      119.122940      518.408428    ;  uncertainty theta = 0.001805, k = 0.036427
         1         2         5     1      119.122940      518.408428    ;  uncertainty theta = 0.001805, k = 0.036427
         2         3         4     1      118.141769      493.647966    ;  uncertainty theta = 0.001482, k = 0.029760
         2         3        21     1      120.931297      281.433278    ;  uncertainty theta = 0.001265, k = 0.015501
         2         5         6     1      118.141769      493.647966    ;  uncertainty theta = 0.001482, k = 0.029760
         2         5        22     1      120.931297      281.433278    ;  uncertainty theta = 0.001265, k = 0.015501
         3         2         5     1      121.678688      368.198448    ;  uncertainty theta = 0.004362, k = 0.083149
         3         4         7     1      122.109459      518.541029    ;  uncertainty theta = 0.002991, k = 0.058280
         3         4        32     1      119.223244      290.115416    ;  uncertainty theta = 0.001360, k = 0.028745
         4         3        21     1      121.653091      280.043676    ;  uncertainty theta = 0.001656, k = 0.041393
         4         7         6     1      119.704933      475.771478    ;  uncertainty theta = 0.003667, k = 0.123353
         4         7         8     1      120.263527      417.177475    ;  uncertainty theta = 0.002840, k = 0.121078
         5         6         7     1      122.109459      518.541029    ;  uncertainty theta = 0.002991, k = 0.058280
         5         6        23     1      119.223244      290.115416    ;  uncertainty theta = 0.001360, k = 0.028745
         6         5        22     1      121.653091      280.043676    ;  uncertainty theta = 0.001656, k = 0.041393
         6         7         8     1      120.263527      417.177475    ;  uncertainty theta = 0.002840, k = 0.121078
         7         4        32     1      118.573875      264.344227    ;  uncertainty theta = 0.001452, k = 0.064676
         7         6        23     1      118.573875      264.344227    ;  uncertainty theta = 0.001452, k = 0.064676
         7         8         9     1      110.151077      548.059821    ;  uncertainty theta = 0.001745, k = 0.106816
         7         8        14     1      110.343788      561.545904    ;  uncertainty theta = 0.001187, k = 0.089315
         7         8        24     1      105.840775      396.418071    ;  uncertainty theta = 0.001712, k = 0.117594
         8         9        10     1      110.519470      521.994923    ;  uncertainty theta = 0.006470, k = 0.206860
         8         9        25     1      108.324440      388.470859    ;  uncertainty theta = 0.002098, k = 0.059289
         8         9        26     1      108.324440      388.470859    ;  uncertainty theta = 0.002098, k = 0.059289
         8        14        15     1      109.839417      539.090741    ;  uncertainty theta = 0.002850, k = 0.067326
         8        14        28     1      108.198509      390.202530    ;  uncertainty theta = 0.002750, k = 0.061267
         8        14        29     1      108.198509      390.202530    ;  uncertainty theta = 0.002750, k = 0.061267
         9         8        14     1      109.474144      615.137699    ;  uncertainty theta = 0.002923, k = 0.158028
         9         8        24     1      106.524437      399.418043    ;  uncertainty theta = 0.002347, k = 0.053096
         9        10        11     1      124.011642      299.501709    ;  uncertainty theta = 0.014362, k = 0.695455
         9        10        13     1      118.269608      385.390030    ;  uncertainty theta = 0.002954, k = 0.216736
        10         9        25     1      107.904663      387.795179    ;  uncertainty theta = 0.001292, k = 0.131612
        10         9        26     1      107.904663      387.795147    ;  uncertainty theta = 0.001292, k = 0.131612
        10        11        12     1      105.572830      752.006582    ;  uncertainty theta = 0.005765, k = 0.118698
        10        13        15     1      121.880150      439.769772    ;  uncertainty theta = 0.005328, k = 0.203352
        10        13        20     1      122.911636      419.896985    ;  uncertainty theta = 0.007837, k = 0.100439
        11        10        13     1      122.396652      350.589271    ;  uncertainty theta = 0.027168, k = 0.544497
        11        12        27     1      101.159744      454.526168    ;  uncertainty theta = 0.007213, k = 0.106575
        13        15        14     1      121.117638      384.686898    ;  uncertainty theta = 0.002189, k = 0.260448
        13        15        16     1      121.433395      650.388742    ;  uncertainty theta = 0.002119, k = 0.185720
        13        20        19     1      122.959717      738.326097    ;  uncertainty theta = 0.003066, k = 0.201689
        13        20        33     1      118.638161      254.004635    ;  uncertainty theta = 0.006235, k = 0.142246
        14         8        24     1      106.810951      399.219652    ;  uncertainty theta = 0.002277, k = 0.023572
        14        15        16     1      120.554153      470.907170    ;  uncertainty theta = 0.003697, k = 0.314755
        15        13        20     1      118.571121      444.073893    ;  uncertainty theta = 0.006096, k = 0.446492
        15        14        28     1      107.265945      390.055149    ;  uncertainty theta = 0.001784, k = 0.069291
        15        14        29     1      107.265945      390.055149    ;  uncertainty theta = 0.001784, k = 0.069291
        15        16        17     1      115.479080      436.578496    ;  uncertainty theta = 0.006725, k = 0.286431
        16        17        18     1      124.629234      810.203611    ;  uncertainty theta = 0.008213, k = 0.092084
        16        17        19     1      126.904709      741.559031    ;  uncertainty theta = 0.005602, k = 0.136133
        17        18        30     1      118.918655      455.494599    ;  uncertainty theta = 0.002825, k = 0.029219
        17        18        31     1      118.918655      455.494599    ;  uncertainty theta = 0.002825, k = 0.029219
        17        19        20     1      115.953003      413.843701    ;  uncertainty theta = 0.006845, k = 0.231271
        18        17        19     1      124.807961      807.002024    ;  uncertainty theta = 0.006940, k = 0.121158
        19        20        33     1      118.113380      321.497938    ;  uncertainty theta = 0.004891, k = 0.081700
        25         9        26     1      105.898094      311.829972    ;  uncertainty theta = 0.001554, k = 0.041920
        28        14        29     1      105.585487      311.081383    ;  uncertainty theta = 0.002164, k = 0.065378
        30        18        31     1      107.607529      265.714692    ;  uncertainty theta = 0.002791, k = 0.046311

[ dihedrals ] ; propers for gromacs 4.5 or higher, use funct 9
;       ai        aj        ak        al funct           phase               k        pn
         1         2         3         4     9        0.000000       -0.026879         1    ;  uncertainty k = 0.241384
         1         2         3         4     9      180.000000       12.064670         2    ;  uncertainty k = 0.547144
         1         2         3         4     9        0.000000        1.507683         3    ;  uncertainty k = 0.292719
         1         2         3         4     9      180.000000        1.551314         4    ;  uncertainty k = 0.254704
         1         2         3        21     9        0.000000       -0.348946         1    ;  uncertainty k = 0.239521
         1         2         3        21     9      180.000000        8.773120         2    ;  uncertainty k = 0.299320
         1         2         3        21     9        0.000000        0.779293         3    ;  uncertainty k = 0.244355
         1         2         3        21     9      180.000000        0.947408         4    ;  uncertainty k = 0.197188
         1         2         5         6     9        0.000000       -0.026879         1    ;  uncertainty k = 0.241384
         1         2         5         6     9      180.000000       12.064670         2    ;  uncertainty k = 0.547144
         1         2         5         6     9        0.000000        1.507683         3    ;  uncertainty k = 0.292719
         1         2         5         6     9      180.000000        1.551314         4    ;  uncertainty k = 0.254704
         1         2         5        22     9        0.000000       -0.348946         1    ;  uncertainty k = 0.239521
         1         2         5        22     9      180.000000        8.773120         2    ;  uncertainty k = 0.299320
         1         2         5        22     9        0.000000        0.779293         3    ;  uncertainty k = 0.244355
         1         2         5        22     9      180.000000        0.947408         4    ;  uncertainty k = 0.197188
         2         3         4         7     9        0.000000       -0.089162         1    ;  uncertainty k = 0.184245
         2         3         4         7     9      180.000000       13.938922         2    ;  uncertainty k = 0.216261
         2         3         4         7     9        0.000000       -0.897238         3    ;  uncertainty k = 0.530900
         2         3         4         7     9      180.000000        0.790453         4    ;  uncertainty k = 0.283270
         2         3         4        32     9        0.000000       -0.067418         1    ;  uncertainty k = 0.091158
         2         3         4        32     9      180.000000        7.990807         2    ;  uncertainty k = 0.487718
         2         3         4        32     9        0.000000        1.377658         3    ;  uncertainty k = 0.330487
         2         3         4        32     9      180.000000        1.812139         4    ;  uncertainty k = 0.173146
         2         5         6         7     9        0.000000       -0.089162         1    ;  uncertainty k = 0.184245
         2         5         6         7     9      180.000000       13.938922         2    ;  uncertainty k = 0.216261
         2         5         6         7     9        0.000000       -0.897238         3    ;  uncertainty k = 0.530900
         2         5         6         7     9      180.000000        0.790453         4    ;  uncertainty k = 0.283270
         2         5         6        23     9        0.000000       -0.067418         1    ;  uncertainty k = 0.091158
         2         5         6        23     9      180.000000        7.990807         2    ;  uncertainty k = 0.487718
         2         5         6        23     9        0.000000        1.377658         3    ;  uncertainty k = 0.330487
         2         5         6        23     9      180.000000        1.812139         4    ;  uncertainty k = 0.173146
         3         2         5         6     9        0.000000        0.005292         1    ;  uncertainty k = 0.203764
         3         2         5         6     9      180.000000        9.381058         2    ;  uncertainty k = 0.474458
         3         2         5         6     9        0.000000       -0.221684         3    ;  uncertainty k = 0.409373
         3         2         5         6     9      180.000000        1.156805         4    ;  uncertainty k = 0.270444
         3         2         5        22     9        0.000000        0.112258         1    ;  uncertainty k = 0.116024
         3         2         5        22     9      180.000000        5.609769         2    ;  uncertainty k = 0.669228
         3         2         5        22     9        0.000000        1.285149         3    ;  uncertainty k = 0.303254
         3         2         5        22     9      180.000000        1.500968         4    ;  uncertainty k = 0.193386
         3         4         7         6     9        0.000000       -0.181610         1    ;  uncertainty k = 0.166624
         3         4         7         6     9      180.000000       11.751389         2    ;  uncertainty k = 0.329679
         3         4         7         6     9        0.000000       -0.435087         3    ;  uncertainty k = 0.310803
         3         4         7         6     9      180.000000        0.805885         4    ;  uncertainty k = 0.361556
         3         4         7         8     9        0.000000        0.150167         1    ;  uncertainty k = 0.253554
         3         4         7         8     9      180.000000        8.925130         2    ;  uncertainty k = 0.586528
         3         4         7         8     9        0.000000        1.362522         3    ;  uncertainty k = 0.464781
         3         4         7         8     9      180.000000        1.822664         4    ;  uncertainty k = 0.199965
         4         3         2         5     9        0.000000        0.005292         1    ;  uncertainty k = 0.203764
         4         3         2         5     9      180.000000        9.381058         2    ;  uncertainty k = 0.474458
         4         3         2         5     9        0.000000       -0.221684         3    ;  uncertainty k = 0.409373
         4         3         2         5     9      180.000000        1.156805         4    ;  uncertainty k = 0.270444
         4         7         6         5     9        0.000000       -0.181610         1    ;  uncertainty k = 0.166624
         4         7         6         5     9      180.000000       11.751389         2    ;  uncertainty k = 0.329679
         4         7         6         5     9        0.000000       -0.435087         3    ;  uncertainty k = 0.310803
         4         7         6         5     9      180.000000        0.805885         4    ;  uncertainty k = 0.361556
         4         7         6        23     9        0.000000        0.082903         1    ;  uncertainty k = 0.210572
         4         7         6        23     9      180.000000        7.134742         2    ;  uncertainty k = 0.422219
         4         7         6        23     9        0.000000        1.477232         3    ;  uncertainty k = 0.399121
         4         7         6        23     9      180.000000        1.613051         4    ;  uncertainty k = 0.162315
         4         7         8         9     9        0.000000       -0.624413         1    ;  uncertainty k = 0.314702
         4         7         8         9     9      180.000000        2.395354         2    ;  uncertainty k = 0.218817
         4         7         8         9     9        0.000000        0.279858         3    ;  uncertainty k = 0.090436
         4         7         8         9     9      180.000000        0.245810         4    ;  uncertainty k = 0.053917
         4         7         8        14     9        0.000000       -0.587755         1    ;  uncertainty k = 0.358424
         4         7         8        14     9      180.000000        2.477980         2    ;  uncertainty k = 0.209132
         4         7         8        14     9        0.000000        0.267679         3    ;  uncertainty k = 0.056427
         4         7         8        14     9      180.000000        0.275148         4    ;  uncertainty k = 0.055539
         4         7         8        24     9        0.000000       -0.242202         1    ;  uncertainty k = 0.350769
         4         7         8        24     9      180.000000        1.630036         2    ;  uncertainty k = 0.091346
         4         7         8        24     9        0.000000        0.470865         3    ;  uncertainty k = 0.127741
         4         7         8        24     9      180.000000        0.331258         4    ;  uncertainty k = 0.032594
         5         2         3        21     9        0.000000        0.112258         1    ;  uncertainty k = 0.116024
         5         2         3        21     9      180.000000        5.609769         2    ;  uncertainty k = 0.669228
         5         2         3        21     9        0.000000        1.285149         3    ;  uncertainty k = 0.303254
         5         2         3        21     9      180.000000        1.500968         4    ;  uncertainty k = 0.193386
         5         6         7         8     9        0.000000        0.150167         1    ;  uncertainty k = 0.253554
         5         6         7         8     9      180.000000        8.925130         2    ;  uncertainty k = 0.586528
         5         6         7         8     9        0.000000        1.362522         3    ;  uncertainty k = 0.464781
         5         6         7         8     9      180.000000        1.822664         4    ;  uncertainty k = 0.199965
         6         7         4        32     9        0.000000        0.082903         1    ;  uncertainty k = 0.210572
         6         7         4        32     9      180.000000        7.134742         2    ;  uncertainty k = 0.422219
         6         7         4        32     9        0.000000        1.477232         3    ;  uncertainty k = 0.399121
         6         7         4        32     9      180.000000        1.613051         4    ;  uncertainty k = 0.162315
         6         7         8         9     9        0.000000       -0.624413         1    ;  uncertainty k = 0.314702
         6         7         8         9     9      180.000000        2.395354         2    ;  uncertainty k = 0.218817
         6         7         8         9     9        0.000000        0.279858         3    ;  uncertainty k = 0.090436
         6         7         8         9     9      180.000000        0.245810         4    ;  uncertainty k = 0.053917
         6         7         8        14     9        0.000000       -0.587755         1    ;  uncertainty k = 0.358424
         6         7         8        14     9      180.000000        2.477980         2    ;  uncertainty k = 0.209132
         6         7         8        14     9        0.000000        0.267679         3    ;  uncertainty k = 0.056427
         6         7         8        14     9      180.000000        0.275148         4    ;  uncertainty k = 0.055539
         6         7         8        24     9        0.000000       -0.242202         1    ;  uncertainty k = 0.350769
         6         7         8        24     9      180.000000        1.630036         2    ;  uncertainty k = 0.091346
         6         7         8        24     9        0.000000        0.470865         3    ;  uncertainty k = 0.127741
         6         7         8        24     9      180.000000        0.331258         4    ;  uncertainty k = 0.032594
         7         4         3        21     9        0.000000        0.153450         1    ;  uncertainty k = 0.171456
         7         4         3        21     9      180.000000        7.416704         2    ;  uncertainty k = 0.464514
         7         4         3        21     9        0.000000        1.563586         3    ;  uncertainty k = 0.286229
         7         4         3        21     9      180.000000        1.875793         4    ;  uncertainty k = 0.195790
         7         6         5        22     9        0.000000        0.153450         1    ;  uncertainty k = 0.171456
         7         6         5        22     9      180.000000        7.416704         2    ;  uncertainty k = 0.464514
         7         6         5        22     9        0.000000        1.563586         3    ;  uncertainty k = 0.286229
         7         6         5        22     9      180.000000        1.875793         4    ;  uncertainty k = 0.195790
         7         8         9        10     9        0.000000       -2.117842         1    ;  uncertainty k = 0.797363
         7         8         9        10     9      180.000000        0.237039         2    ;  uncertainty k = 0.355656
         7         8         9        10     9        0.000000        0.884969         3    ;  uncertainty k = 0.302024
         7         8         9        10     9      180.000000        0.025794         4    ;  uncertainty k = 0.086750
         7         8         9        25     9        0.000000        0.690606         1    ;  uncertainty k = 0.278373
         7         8         9        25     9      180.000000       -0.221042         2    ;  uncertainty k = 0.291374
         7         8         9        25     9        0.000000        0.794615         3    ;  uncertainty k = 0.069228
         7         8         9        25     9      180.000000       -0.056345         4    ;  uncertainty k = 0.083594
         7         8         9        26     9        0.000000        0.690606         1    ;  uncertainty k = 0.278373
         7         8         9        26     9      180.000000       -0.221042         2    ;  uncertainty k = 0.291374
         7         8         9        26     9        0.000000        0.794615         3    ;  uncertainty k = 0.069228
         7         8         9        26     9      180.000000       -0.056345         4    ;  uncertainty k = 0.083594
         7         8        14        15     9        0.000000       -2.020354         1    ;  uncertainty k = 0.451482
         7         8        14        15     9      180.000000        0.240362         2    ;  uncertainty k = 0.655693
         7         8        14        15     9        0.000000        1.060127         3    ;  uncertainty k = 0.139565
         7         8        14        15     9      180.000000       -0.001707         4    ;  uncertainty k = 0.022898
         7         8        14        28     9        0.000000        0.769346         1    ;  uncertainty k = 0.220795
         7         8        14        28     9      180.000000       -0.155491         2    ;  uncertainty k = 0.284941
         7         8        14        28     9        0.000000        0.807774         3    ;  uncertainty k = 0.142534
         7         8        14        28     9      180.000000       -0.059024         4    ;  uncertainty k = 0.092482
         7         8        14        29     9        0.000000        0.769346         1    ;  uncertainty k = 0.220795
         7         8        14        29     9      180.000000       -0.155491         2    ;  uncertainty k = 0.284941
         7         8        14        29     9        0.000000        0.807774         3    ;  uncertainty k = 0.142534
         7         8        14        29     9      180.000000       -0.059024         4    ;  uncertainty k = 0.092482
         8         7         4        32     9        0.000000       -0.027510         1    ;  uncertainty k = 0.252725
         8         7         4        32     9      180.000000        7.978930         2    ;  uncertainty k = 0.277828
         8         7         4        32     9        0.000000        0.698997         3    ;  uncertainty k = 0.321975
         8         7         4        32     9      180.000000        0.939691         4    ;  uncertainty k = 0.129428
         8         7         6        23     9        0.000000       -0.027510         1    ;  uncertainty k = 0.252725
         8         7         6        23     9      180.000000        7.978930         2    ;  uncertainty k = 0.277828
         8         7         6        23     9        0.000000        0.698997         3    ;  uncertainty k = 0.321975
         8         7         6        23     9      180.000000        0.939691         4    ;  uncertainty k = 0.129428
         8         9        10        11     9        0.000000       -1.935356         1    ;  uncertainty k = 1.177866
         8         9        10        11     9      180.000000        2.884955         2    ;  uncertainty k = 0.832682
         8         9        10        11     9        0.000000        0.127098         3    ;  uncertainty k = 0.196444
         8         9        10        11     9      180.000000        0.352483         4    ;  uncertainty k = 0.158401
         8         9        10        13     9        0.000000       -3.893282         1    ;  uncertainty k = 1.670768
         8         9        10        13     9      180.000000        1.968876         2    ;  uncertainty k = 0.685600
         8         9        10        13     9        0.000000        0.495688         3    ;  uncertainty k = 0.370475
         8         9        10        13     9      180.000000        0.179570         4    ;  uncertainty k = 0.193754
         8        14        15        13     9        0.000000       -3.302174         1    ;  uncertainty k = 2.402271
         8        14        15        13     9      180.000000        3.050481         2    ;  uncertainty k = 0.927558
         8        14        15        13     9        0.000000       -0.096093         3    ;  uncertainty k = 0.330582
         8        14        15        13     9      180.000000        0.567890         4    ;  uncertainty k = 0.237988
         8        14        15        16     9        0.000000       -2.720634         1    ;  uncertainty k = 1.249153
         8        14        15        16     9      180.000000        3.134622         2    ;  uncertainty k = 0.580978
         8        14        15        16     9        0.000000        0.553480         3    ;  uncertainty k = 0.328453
         8        14        15        16     9      180.000000        0.393009         4    ;  uncertainty k = 0.177852
         9         8        14        15     9        0.000000        0.268883         1    ;  uncertainty k = 1.576717
         9         8        14        15     9      180.000000       -1.057809         2    ;  uncertainty k = 0.848826
         9         8        14        15     9        0.000000        0.760648         3    ;  uncertainty k = 0.302649
         9         8        14        15     9      180.000000       -0.453799         4    ;  uncertainty k = 0.195143
         9         8        14        28     9        0.000000       -0.541339         1    ;  uncertainty k = 0.218655
         9         8        14        28     9      180.000000       -0.613952         2    ;  uncertainty k = 0.160287
         9         8        14        28     9        0.000000        0.247925         3    ;  uncertainty k = 0.119192
         9         8        14        28     9      180.000000        0.087887         4    ;  uncertainty k = 0.106895
         9         8        14        29     9        0.000000       -0.541339         1    ;  uncertainty k = 0.218655
         9         8        14        29     9      180.000000       -0.613952         2    ;  uncertainty k = 0.160287
         9         8        14        29     9        0.000000        0.247925         3    ;  uncertainty k = 0.119192
         9         8        14        29     9      180.000000        0.087887         4    ;  uncertainty k = 0.106895
         9        10        11        12     9        0.000000        5.177766         1    ;  uncertainty k = 3.117260
         9        10        11        12     9      180.000000       43.470736         2    ;  uncertainty k = 0.235404
         9        10        11        12     9        0.000000        2.137656         3    ;  uncertainty k = 0.951556
         9        10        11        12     9      180.000000       -0.272249         4    ;  uncertainty k = 0.381569
         9        10        13        15     9        0.000000       -1.686183         1    ;  uncertainty k = 2.477038
         9        10        13        15     9      180.000000        2.664901         2    ;  uncertainty k = 0.591330
         9        10        13        15     9        0.000000       -0.127219         3    ;  uncertainty k = 0.315561
         9        10        13        15     9      180.000000        0.033355         4    ;  uncertainty k = 0.158032
         9        10        13        20     9        0.000000       -2.555238         1    ;  uncertainty k = 1.365634
         9        10        13        20     9      180.000000        3.473085         2    ;  uncertainty k = 0.492530
         9        10        13        20     9        0.000000        0.029385         3    ;  uncertainty k = 0.194874
         9        10        13        20     9      180.000000        0.044998         4    ;  uncertainty k = 0.189782
        10         9         8        14     9        0.000000       -1.849733         1    ;  uncertainty k = 1.479944
        10         9         8        14     9      180.000000       -0.502928         2    ;  uncertainty k = 0.676822
        10         9         8        14     9        0.000000        0.663452         3    ;  uncertainty k = 0.369544
        10         9         8        14     9      180.000000       -0.436204         4    ;  uncertainty k = 0.152665
        10         9         8        24     9        0.000000       -0.912485         1    ;  uncertainty k = 0.413459
        10         9         8        24     9      180.000000       -0.462720         2    ;  uncertainty k = 0.293602
        10         9         8        24     9        0.000000        0.552783         3    ;  uncertainty k = 0.208244
        10         9         8        24     9      180.000000        0.006038         4    ;  uncertainty k = 0.097166
        10        11        12        27     9        0.000000       -0.959480         1    ;  uncertainty k = 1.029715
        10        11        12        27     9      180.000000       11.825906         2    ;  uncertainty k = 0.272036
        10        11        12        27     9        0.000000        0.224133         3    ;  uncertainty k = 0.406126
        10        11        12        27     9      180.000000       -0.213411         4    ;  uncertainty k = 0.249970
        10        13        15        14     9        0.000000       -0.478928         1    ;  uncertainty k = 0.668198
        10        13        15        14     9      180.000000        5.515544         2    ;  uncertainty k = 0.770473
        10        13        15        14     9        0.000000        0.643448         3    ;  uncertainty k = 0.243944
        10        13        15        14     9      180.000000        1.214122         4    ;  uncertainty k = 0.288508
        10        13        15        16     9        0.000000        0.304815         1    ;  uncertainty k = 0.654260
        10        13        15        16     9      180.000000        7.065801         2    ;  uncertainty k = 0.687411
        10        13        15        16     9        0.000000        0.613694         3    ;  uncertainty k = 0.336798
        10        13        15        16     9      180.000000        1.677364         4    ;  uncertainty k = 0.281885
        10        13        20        19     9        0.000000        0.350143         1    ;  uncertainty k = 0.389652
        10        13        20        19     9      180.000000        9.602006         2    ;  uncertainty k = 0.268579
        10        13        20        19     9        0.000000        0.785224         3    ;  uncertainty k = 0.205421
        10        13        20        19     9      180.000000        1.737877         4    ;  uncertainty k = 0.237531
        10        13        20        33     9        0.000000       -0.716672         1    ;  uncertainty k = 0.310998
        10        13        20        33     9      180.000000        6.357406         2    ;  uncertainty k = 0.781928
        10        13        20        33     9        0.000000        0.591946         3    ;  uncertainty k = 0.359279
        10        13        20        33     9      180.000000        0.925474         4    ;  uncertainty k = 0.277043
        11        10         9        25     9        0.000000        2.316167         1    ;  uncertainty k = 0.414853
        11        10         9        25     9      180.000000        3.910100         2    ;  uncertainty k = 0.459911
        11        10         9        25     9        0.000000        0.179162         3    ;  uncertainty k = 0.112869
        11        10         9        25     9      180.000000        0.049949         4    ;  uncertainty k = 0.209074
        11        10         9        26     9        0.000000        2.316167         1    ;  uncertainty k = 0.414853
        11        10         9        26     9      180.000000        3.910100         2    ;  uncertainty k = 0.459911
        11        10         9        26     9        0.000000        0.179162         3    ;  uncertainty k = 0.112869
        11        10         9        26     9      180.000000        0.049949         4    ;  uncertainty k = 0.209074
        11        10        13        15     9        0.000000       -0.306118         1    ;  uncertainty k = 2.989864
        11        10        13        15     9      180.000000        3.966207         2    ;  uncertainty k = 0.454347
        11        10        13        15     9        0.000000        0.497638         3    ;  uncertainty k = 0.279357
        11        10        13        15     9      180.000000        0.011307         4    ;  uncertainty k = 0.126935
        11        10        13        20     9        0.000000       -0.042318         1    ;  uncertainty k = 1.828393
        11        10        13        20     9      180.000000        4.392915         2    ;  uncertainty k = 0.378281
        11        10        13        20     9        0.000000        0.710668         3    ;  uncertainty k = 0.437048
        11        10        13        20     9      180.000000       -0.020124         4    ;  uncertainty k = 0.212057
        12        11        10        13     9        0.000000        0.825745         1    ;  uncertainty k = 2.100441
        12        11        10        13     9      180.000000       38.561598         2    ;  uncertainty k = 0.500692
        12        11        10        13     9        0.000000        3.466590         3    ;  uncertainty k = 1.409039
        12        11        10        13     9      180.000000        0.087000         4    ;  uncertainty k = 1.741942
        13        10         9        25     9        0.000000       -0.775599         1    ;  uncertainty k = 0.603055
        13        10         9        25     9      180.000000        2.166346         2    ;  uncertainty k = 0.876057
        13        10         9        25     9        0.000000        0.776035         3    ;  uncertainty k = 0.219699
        13        10         9        25     9      180.000000        0.120774         4    ;  uncertainty k = 0.110250
        13        10         9        26     9        0.000000       -0.775599         1    ;  uncertainty k = 0.603055
        13        10         9        26     9      180.000000        2.166346         2    ;  uncertainty k = 0.876057
        13        10         9        26     9        0.000000        0.776035         3    ;  uncertainty k = 0.219699
        13        10         9        26     9      180.000000        0.120774         4    ;  uncertainty k = 0.110250
        13        15        14        28     9        0.000000       -1.103123         1    ;  uncertainty k = 0.701481
        13        15        14        28     9      180.000000        2.944573         2    ;  uncertainty k = 0.409883
        13        15        14        28     9        0.000000        0.561967         3    ;  uncertainty k = 0.160146
        13        15        14        28     9      180.000000        0.171331         4    ;  uncertainty k = 0.062903
        13        15        14        29     9        0.000000       -1.103123         1    ;  uncertainty k = 0.701481
        13        15        14        29     9      180.000000        2.944573         2    ;  uncertainty k = 0.409883
        13        15        14        29     9        0.000000        0.561967         3    ;  uncertainty k = 0.160146
        13        15        14        29     9      180.000000        0.171331         4    ;  uncertainty k = 0.062903
        13        15        16        17     9        0.000000       -0.531810         1    ;  uncertainty k = 1.030029
        13        15        16        17     9      180.000000       15.397972         2    ;  uncertainty k = 0.432391
        13        15        16        17     9        0.000000        0.150583         3    ;  uncertainty k = 0.773298
        13        15        16        17     9      180.000000        1.499452         4    ;  uncertainty k = 0.342373
        13        20        19        17     9        0.000000       -0.709545         1    ;  uncertainty k = 0.681281
        13        20        19        17     9      180.000000       16.331343         2    ;  uncertainty k = 0.596262
        13        20        19        17     9        0.000000       -0.079275         3    ;  uncertainty k = 0.680096
        13        20        19        17     9      180.000000        1.560983         4    ;  uncertainty k = 0.673541
        14         8         9        25     9        0.000000       -0.688232         1    ;  uncertainty k = 0.317243
        14         8         9        25     9      180.000000       -0.641869         2    ;  uncertainty k = 0.262163
        14         8         9        25     9        0.000000        0.228779         3    ;  uncertainty k = 0.094802
        14         8         9        25     9      180.000000        0.025548         4    ;  uncertainty k = 0.052774
        14         8         9        26     9        0.000000       -0.688232         1    ;  uncertainty k = 0.317243
        14         8         9        26     9      180.000000       -0.641869         2    ;  uncertainty k = 0.262163
        14         8         9        26     9        0.000000        0.228779         3    ;  uncertainty k = 0.094802
        14         8         9        26     9      180.000000        0.025548         4    ;  uncertainty k = 0.052774
        14        15        13        20     9        0.000000       -0.350220         1    ;  uncertainty k = 0.494278
        14        15        13        20     9      180.000000        4.633791         2    ;  uncertainty k = 0.642822
        14        15        13        20     9        0.000000        0.740847         3    ;  uncertainty k = 0.298908
        14        15        13        20     9      180.000000        1.289491         4    ;  uncertainty k = 0.364248
        14        15        16        17     9        0.000000        0.294722         1    ;  uncertainty k = 1.229278
        14        15        16        17     9      180.000000       16.745572         2    ;  uncertainty k = 0.654026
        14        15        16        17     9        0.000000        1.478693         3    ;  uncertainty k = 0.711052
        14        15        16        17     9      180.000000        1.439907         4    ;  uncertainty k = 0.482127
        15        13        20        19     9        0.000000        0.065252         1    ;  uncertainty k = 0.347644
        15        13        20        19     9      180.000000       11.880472         2    ;  uncertainty k = 0.592539
        15        13        20        19     9        0.000000       -0.582345         3    ;  uncertainty k = 0.582217
        15        13        20        19     9      180.000000        0.980285         4    ;  uncertainty k = 0.288543
        15        13        20        33     9        0.000000       -0.754135         1    ;  uncertainty k = 0.969830
        15        13        20        33     9      180.000000        5.112640         2    ;  uncertainty k = 0.965897
        15        13        20        33     9        0.000000        0.650877         3    ;  uncertainty k = 0.198178
        15        13        20        33     9      180.000000        1.217220         4    ;  uncertainty k = 0.086739
        15        14         8        24     9        0.000000       -0.698279         1    ;  uncertainty k = 0.489643
        15        14         8        24     9      180.000000       -0.126890         2    ;  uncertainty k = 0.301980
        15        14         8        24     9        0.000000        0.530330         3    ;  uncertainty k = 0.185961
        15        14         8        24     9      180.000000        0.031219         4    ;  uncertainty k = 0.051771
        15        16        17        18     9        0.000000        1.310992         1    ;  uncertainty k = 1.450552
        15        16        17        18     9      180.000000        9.468843         2    ;  uncertainty k = 0.511860
        15        16        17        18     9        0.000000        2.225778         3    ;  uncertainty k = 0.499658
        15        16        17        18     9      180.000000        0.881605         4    ;  uncertainty k = 0.281343
        15        16        17        19     9        0.000000        0.305198         1    ;  uncertainty k = 1.811399
        15        16        17        19     9      180.000000        6.858915         2    ;  uncertainty k = 1.078897
        15        16        17        19     9        0.000000        0.858300         3    ;  uncertainty k = 0.329044
        15        16        17        19     9      180.000000        0.689224         4    ;  uncertainty k = 0.141524
        16        15        13        20     9        0.000000        0.218535         1    ;  uncertainty k = 0.579805
        16        15        13        20     9      180.000000        8.664460         2    ;  uncertainty k = 0.682048
        16        15        13        20     9        0.000000       -0.416638         3    ;  uncertainty k = 0.202440
        16        15        13        20     9      180.000000        1.257994         4    ;  uncertainty k = 0.255220
        16        15        14        28     9        0.000000        2.011606         1    ;  uncertainty k = 1.082449
        16        15        14        28     9      180.000000        3.603904         2    ;  uncertainty k = 0.337725
        16        15        14        28     9        0.000000        0.303316         3    ;  uncertainty k = 0.285882
        16        15        14        28     9      180.000000        0.232546         4    ;  uncertainty k = 0.106101
        16        15        14        29     9        0.000000        2.011606         1    ;  uncertainty k = 1.082449
        16        15        14        29     9      180.000000        3.603904         2    ;  uncertainty k = 0.337725
        16        15        14        29     9        0.000000        0.303316         3    ;  uncertainty k = 0.285882
        16        15        14        29     9      180.000000        0.232546         4    ;  uncertainty k = 0.106101
        16        17        18        30     9        0.000000       20.245312         1    ;  uncertainty k = 0.267573
        16        17        18        30     9      180.000000       11.433631         2    ;  uncertainty k = 0.158571
        16        17        18        30     9        0.000000        1.021256         3    ;  uncertainty k = 0.271982
        16        17        18        30     9      180.000000       -0.450927         4    ;  uncertainty k = 0.179087
        16        17        18        31     9        0.000000       20.245312         1    ;  uncertainty k = 0.267573
        16        17        18        31     9      180.000000       11.433631         2    ;  uncertainty k = 0.158571
        16        17        18        31     9        0.000000        1.021256         3    ;  uncertainty k = 0.271982
        16        17        18        31     9      180.000000       -0.450927         4    ;  uncertainty k = 0.179087
        16        17        19        20     9        0.000000        0.078141         1    ;  uncertainty k = 1.029483
        16        17        19        20     9      180.000000        7.296374         2    ;  uncertainty k = 0.834056
        16        17        19        20     9        0.000000        0.720870         3    ;  uncertainty k = 0.507499
        16        17        19        20     9      180.000000        0.714600         4    ;  uncertainty k = 0.109920
        17        19        20        33     9        0.000000        0.226821         1    ;  uncertainty k = 0.816040
        17        19        20        33     9      180.000000       17.438592         2    ;  uncertainty k = 0.780377
        17        19        20        33     9        0.000000        1.242980         3    ;  uncertainty k = 0.910028
        17        19        20        33     9      180.000000        1.159219         4    ;  uncertainty k = 0.571825
        18        17        19        20     9        0.000000        0.925800         1    ;  uncertainty k = 1.498649
        18        17        19        20     9      180.000000        8.808187         2    ;  uncertainty k = 0.205521
        18        17        19        20     9        0.000000        2.091113         3    ;  uncertainty k = 0.487983
        18        17        19        20     9      180.000000        0.939354         4    ;  uncertainty k = 0.189438
        19        17        18        30     9        0.000000       20.446590         1    ;  uncertainty k = 0.445343
        19        17        18        30     9      180.000000       11.436313         2    ;  uncertainty k = 0.244172
        19        17        18        30     9        0.000000        1.046554         3    ;  uncertainty k = 0.190893
        19        17        18        30     9      180.000000       -0.438020         4    ;  uncertainty k = 0.188912
        19        17        18        31     9        0.000000       20.446590         1    ;  uncertainty k = 0.445343
        19        17        18        31     9      180.000000       11.436313         2    ;  uncertainty k = 0.244172
        19        17        18        31     9        0.000000        1.046554         3    ;  uncertainty k = 0.190893
        19        17        18        31     9      180.000000       -0.438020         4    ;  uncertainty k = 0.188912
        21         3         4        32     9        0.000000       -0.006849         1    ;  uncertainty k = 0.098910
        21         3         4        32     9      180.000000        7.619946         2    ;  uncertainty k = 0.278774
        21         3         4        32     9        0.000000       -0.461402         3    ;  uncertainty k = 0.233830
        21         3         4        32     9      180.000000        0.104799         4    ;  uncertainty k = 0.114056
        22         5         6        23     9        0.000000       -0.006849         1    ;  uncertainty k = 0.098910
        22         5         6        23     9      180.000000        7.619946         2    ;  uncertainty k = 0.278774
        22         5         6        23     9        0.000000       -0.461402         3    ;  uncertainty k = 0.233830
        22         5         6        23     9      180.000000        0.104799         4    ;  uncertainty k = 0.114056
        24         8         9        25     9        0.000000        1.124125         1    ;  uncertainty k = 0.218032
        24         8         9        25     9      180.000000       -0.142483         2    ;  uncertainty k = 0.216481
        24         8         9        25     9        0.000000        0.078454         3    ;  uncertainty k = 0.121242
        24         8         9        25     9      180.000000        0.043319         4    ;  uncertainty k = 0.072455
        24         8         9        26     9        0.000000        1.124125         1    ;  uncertainty k = 0.218032
        24         8         9        26     9      180.000000       -0.142483         2    ;  uncertainty k = 0.216481
        24         8         9        26     9        0.000000        0.078454         3    ;  uncertainty k = 0.121242
        24         8         9        26     9      180.000000        0.043319         4    ;  uncertainty k = 0.072455
        24         8        14        28     9        0.000000        0.999718         1    ;  uncertainty k = 0.337124
        24         8        14        28     9      180.000000       -0.158374         2    ;  uncertainty k = 0.373799
        24         8        14        28     9        0.000000        0.095467         3    ;  uncertainty k = 0.097019
        24         8        14        28     9      180.000000        0.088260         4    ;  uncertainty k = 0.080025
        24         8        14        29     9        0.000000        0.999718         1    ;  uncertainty k = 0.337124
        24         8        14        29     9      180.000000       -0.158374         2    ;  uncertainty k = 0.373799
        24         8        14        29     9        0.000000        0.095467         3    ;  uncertainty k = 0.097019
        24         8        14        29     9      180.000000        0.088260         4    ;  uncertainty k = 0.080025

[ dihedrals ] ; impropers
;       ai        aj        ak        al funct           phase               k        pn
         2         1         3         5     4      180.000000       16.708416         2    ;  uncertainty k = 0.071322
         2         3         5         1     4      180.000000       16.708416         2    ;  uncertainty k = 0.071322
         2         5         1         3     4      180.000000       16.708416         2    ;  uncertainty k = 0.071322
         3         2         4        21     4      180.000000        2.013757         2    ;  uncertainty k = 0.087766
         3         4        21         2     4      180.000000        2.013757         2    ;  uncertainty k = 0.087766
         3        21         2         4     4      180.000000        2.013757         2    ;  uncertainty k = 0.087766
         4         3         7        32     4      180.000000        4.600823         2    ;  uncertainty k = 0.126520
         4         7        32         3     4      180.000000        4.600823         2    ;  uncertainty k = 0.126520
         4        32         3         7     4      180.000000        4.600823         2    ;  uncertainty k = 0.126520
         5         2         6        22     4      180.000000        2.013757         2    ;  uncertainty k = 0.087766
         5         6        22         2     4      180.000000        2.013757         2    ;  uncertainty k = 0.087766
         5        22         2         6     4      180.000000        2.013757         2    ;  uncertainty k = 0.087766
         6         5         7        23     4      180.000000        4.600825         2    ;  uncertainty k = 0.126520
         6         7        23         5     4      180.000000        4.600825         2    ;  uncertainty k = 0.126520
         6        23         5         7     4      180.000000        4.600825         2    ;  uncertainty k = 0.126520
         7         4         6         8     4      180.000000       12.743316         2    ;  uncertainty k = 0.090256
         7         6         8         4     4      180.000000       12.743316         2    ;  uncertainty k = 0.090256
         7         8         4         6     4      180.000000       12.743316         2    ;  uncertainty k = 0.090256
        10         9        11        13     4      180.000000       18.370588         2    ;  uncertainty k = 0.254223
        10        11        13         9     4      180.000000       18.370588         2    ;  uncertainty k = 0.254223
        10        13         9        11     4      180.000000       18.370588         2    ;  uncertainty k = 0.254223
        13        10        15        20     4      180.000000        5.779440         2    ;  uncertainty k = 0.591272
        13        15        20        10     4      180.000000        5.779440         2    ;  uncertainty k = 0.591272
        13        20        10        15     4      180.000000        5.779440         2    ;  uncertainty k = 0.591272
        15        13        14        16     4      180.000000       30.782259         2    ;  uncertainty k = 0.076169
        15        14        16        13     4      180.000000       30.782259         2    ;  uncertainty k = 0.076169
        15        16        13        14     4      180.000000       30.782259         2    ;  uncertainty k = 0.076169
        17        16        18        19     4      180.000000       47.545006         2    ;  uncertainty k = 0.081441
        17        18        19        16     4      180.000000       47.545006         2    ;  uncertainty k = 0.081441
        17        19        16        18     4      180.000000       47.545006         2    ;  uncertainty k = 0.081441
        18        17        30        31     4      180.000000        0.337878         2    ;  uncertainty k = 0.461885
        18        30        31        17     4      180.000000        0.337878         2    ;  uncertainty k = 0.461885
        18        31        17        30     4      180.000000        0.337878         2    ;  uncertainty k = 0.461885
        20        13        19        33     4      180.000000       17.982941         2    ;  uncertainty k = 0.113310
        20        19        33        13     4      180.000000       17.982941         2    ;  uncertainty k = 0.113310
        20        33        13        19     4      180.000000       17.982941         2    ;  uncertainty k = 0.113310

[ pairs ]
;       ai        aj funct
         1         4     1
         1         6     1
         1        21     1
         1        22     1
         2         7     1
         2        23     1
         2        32     1
         3         6     1
         3         8     1
         3        22     1
         4         5     1
         4         9     1
         4        14     1
         4        23     1
         4        24     1
         5         8     1
         5        21     1
         6         9     1
         6        14     1
         6        24     1
         6        32     1
         7        10     1
         7        15     1
         7        21     1
         7        22     1
         7        25     1
         7        26     1
         7        28     1
         7        29     1
         8        11     1
         8        13     1
         8        16     1
         8        23     1
         8        32     1
         9        12     1
         9        15     1
         9        20     1
         9        28     1
         9        29     1
        10        14     1
        10        16     1
        10        19     1
        10        24     1
        10        27     1
        10        33     1
        11        15     1
        11        20     1
        11        25     1
        11        26     1
        12        13     1
        13        17     1
        13        25     1
        13        26     1
        13        28     1
        13        29     1
        14        17     1
        14        20     1
        14        25     1
        14        26     1
        15        18     1
        15        19     1
        15        24     1
        15        33     1
        16        20     1
        16        28     1
        16        29     1
        16        30     1
        16        31     1
        17        33     1
        18        20     1
        19        30     1
        19        31     1
        21        32     1
        22        23     1
        24        25     1
        24        26     1
        24        28     1
        24        29     1
