; ITP file created by ByteFF-joint-25, 2025-07-14 11:27:49.411789

[ atomtypes ]
;name           bonded.type        at.num        mass        charge   ptype           sigma         epsilon
 f0bf                                   9      0.0000       0.00000       A     3.03439e-01     3.47939e-01    ;  uncertainty sigma = 0.000014, epsilon = 0.000730
 c1bf                                   6      0.0000       0.00000       A     3.31522e-01     4.13270e-01    ;  uncertainty sigma = 0.000003, epsilon = 0.000629
 c2bf                                   6      0.0000       0.00000       A     3.31517e-01     4.13283e-01    ;  uncertainty sigma = 0.000005, epsilon = 0.000586
 c3bf                                   6      0.0000       0.00000       A     3.31518e-01     4.13523e-01    ;  uncertainty sigma = 0.000004, epsilon = 0.000559
 c4bf                                   6      0.0000       0.00000       A     3.31517e-01     4.13283e-01    ;  uncertainty sigma = 0.000005, epsilon = 0.000586
 c5bf                                   6      0.0000       0.00000       A     3.31518e-01     4.13523e-01    ;  uncertainty sigma = 0.000004, epsilon = 0.000559
 c6bf                                   6      0.0000       0.00000       A     3.31540e-01     4.13083e-01    ;  uncertainty sigma = 0.000005, epsilon = 0.000647
 c7bf                                   6      0.0000       0.00000       A     3.39808e-01     4.50393e-01    ;  uncertainty sigma = 0.000011, epsilon = 0.000765
 c8bf                                   6      0.0000       0.00000       A     3.39775e-01     4.50623e-01    ;  uncertainty sigma = 0.000015, epsilon = 0.000849
 c9bf                                   6      0.0000       0.00000       A     3.31488e-01     4.13161e-01    ;  uncertainty sigma = 0.000028, epsilon = 0.002203
 n10bf                                  7      0.0000       0.00000       A     3.38394e-01     3.92793e-01    ;  uncertainty sigma = 0.000033, epsilon = 0.002769
 o11bf                                  8      0.0000       0.00000       A     3.24285e-01     3.88037e-01    ;  uncertainty sigma = 0.000023, epsilon = 0.001869
 c12bf                                  6      0.0000       0.00000       A     3.31531e-01     4.13066e-01    ;  uncertainty sigma = 0.000011, epsilon = 0.000641
 c13bf                                  6      0.0000       0.00000       A     3.39766e-01     4.50929e-01    ;  uncertainty sigma = 0.000013, epsilon = 0.001018
 c14bf                                  6      0.0000       0.00000       A     3.31534e-01     4.12744e-01    ;  uncertainty sigma = 0.000023, epsilon = 0.000730
 n15bf                                  7      0.0000       0.00000       A     3.38441e-01     3.93298e-01    ;  uncertainty sigma = 0.000034, epsilon = 0.001875
 c16bf                                  6      0.0000       0.00000       A     3.31537e-01     4.13073e-01    ;  uncertainty sigma = 0.000017, epsilon = 0.001187
 n17bf                                  7      0.0000       0.00000       A     3.36867e-01     4.69651e-01    ;  uncertainty sigma = 0.000042, epsilon = 0.002086
 n18bf                                  7      0.0000       0.00000       A     3.38459e-01     3.94097e-01    ;  uncertainty sigma = 0.000017, epsilon = 0.000959
 c19bf                                  6      0.0000       0.00000       A     3.31528e-01     4.12772e-01    ;  uncertainty sigma = 0.000011, epsilon = 0.000736
 h20bf                                  1      0.0000       0.00000       A     2.62567e-01     6.70836e-02    ;  uncertainty sigma = 0.000012, epsilon = 0.000443
 h21bf                                  1      0.0000       0.00000       A     2.62567e-01     6.70836e-02    ;  uncertainty sigma = 0.000012, epsilon = 0.000443
 h22bf                                  1      0.0000       0.00000       A     2.62562e-01     6.69941e-02    ;  uncertainty sigma = 0.000011, epsilon = 0.000488
 h23bf                                  1      0.0000       0.00000       A     2.60064e-01     8.72129e-02    ;  uncertainty sigma = 0.000042, epsilon = 0.000636
 h24bf                                  1      0.0000       0.00000       A     2.59998e-01     8.66362e-02    ;  uncertainty sigma = 0.000030, epsilon = 0.000898
 h25bf                                  1      0.0000       0.00000       A     2.59998e-01     8.66362e-02    ;  uncertainty sigma = 0.000030, epsilon = 0.000898
 h26bf                                  1      0.0000       0.00000       A     5.38150e-02     1.95465e-02    ;  uncertainty sigma = 0.000051, epsilon = 0.001777
 h27bf                                  1      0.0000       0.00000       A     2.60043e-01     8.67081e-02    ;  uncertainty sigma = 0.000017, epsilon = 0.001169
 h28bf                                  1      0.0000       0.00000       A     2.60043e-01     8.67081e-02    ;  uncertainty sigma = 0.000017, epsilon = 0.001169
 h29bf                                  1      0.0000       0.00000       A     1.10707e-01     4.06772e-02    ;  uncertainty sigma = 0.000046, epsilon = 0.001139
 h30bf                                  1      0.0000       0.00000       A     1.10707e-01     4.06772e-02    ;  uncertainty sigma = 0.000046, epsilon = 0.001139
 c31bf                                  6      0.0000       0.00000       A     3.39785e-01     4.51049e-01    ;  uncertainty sigma = 0.000008, epsilon = 0.000698
 h32bf                                  1      0.0000       0.00000       A     2.60035e-01     8.66577e-02    ;  uncertainty sigma = 0.000008, epsilon = 0.000584
 h33bf                                  1      0.0000       0.00000       A     2.60035e-01     8.66577e-02    ;  uncertainty sigma = 0.000008, epsilon = 0.000584
 h34bf                                  1      0.0000       0.00000       A     2.60035e-01     8.66577e-02    ;  uncertainty sigma = 0.000008, epsilon = 0.000584
 h35bf                                  1      0.0000       0.00000       A     2.62562e-01     6.69941e-02    ;  uncertainty sigma = 0.000011, epsilon = 0.000488

[ moleculetype ]
;name             nrexcl
 MOL                   3

[ atoms ]
;       nr            type      resi   res      atom      cgnr      charge          mass ; qtot
         1            f0bf         1   UNL        f0         1    -0.14344       18.9980 ; qtot   -0.143
         2            c1bf         1   UNL        c1         2     0.12572       12.0110 ; qtot   -0.018
         3            c2bf         1   UNL        c2         3    -0.16456       12.0110 ; qtot   -0.182
         4            c3bf         1   UNL        c3         4    -0.09741       12.0110 ; qtot   -0.280
         5            c4bf         1   UNL        c4         5    -0.16456       12.0110 ; qtot   -0.444
         6            c5bf         1   UNL        c5         6    -0.09741       12.0110 ; qtot   -0.542
         7            c6bf         1   UNL        c6         7    -0.09769       12.0110 ; qtot   -0.639
         8            c7bf         1   UNL        c7         8    -0.00605       12.0110 ; qtot   -0.645
         9            c8bf         1   UNL        c8         9    -0.12767       12.0110 ; qtot   -0.773
        10            c9bf         1   UNL        c9        10     0.44855       12.0110 ; qtot   -0.325
        11           n10bf         1   UNL       n10        11    -0.43040       14.0070 ; qtot   -0.755
        12           o11bf         1   UNL       o11        12    -0.38482       15.9990 ; qtot   -1.140
        13           c12bf         1   UNL       c12        13    -0.44013       12.0110 ; qtot   -1.580
        14           c13bf         1   UNL       c13        14    -0.13357       12.0110 ; qtot   -1.713
        15           c14bf         1   UNL       c14        15     0.50690       12.0110 ; qtot   -1.207
        16           n15bf         1   UNL       n15        16    -0.77682       14.0070 ; qtot   -1.983
        17           c16bf         1   UNL       c16        17     0.90016       12.0110 ; qtot   -1.083
        18           n17bf         1   UNL       n17        18    -0.92842       14.0070 ; qtot   -2.012
        19           n18bf         1   UNL       n18        19    -0.78354       14.0070 ; qtot   -2.795
        20           c19bf         1   UNL       c19        20     0.53925       12.0110 ; qtot   -2.256
        21           h20bf         1   UNL       h20        21     0.15167        1.0080 ; qtot   -2.104
        22           h21bf         1   UNL       h21        22     0.15167        1.0080 ; qtot   -1.953
        23           h22bf         1   UNL       h22        23     0.13769        1.0080 ; qtot   -1.815
        24           h23bf         1   UNL       h23        24     0.06079        1.0080 ; qtot   -1.754
        25           h24bf         1   UNL       h24        25     0.07361        1.0080 ; qtot   -1.680
        26           h25bf         1   UNL       h25        26     0.07361        1.0080 ; qtot   -1.607
        27           h26bf         1   UNL       h26        27     0.42538        1.0080 ; qtot   -1.181
        28           h27bf         1   UNL       h27        28     0.07428        1.0080 ; qtot   -1.107
        29           h28bf         1   UNL       h28        29     0.07428        1.0080 ; qtot   -1.033
        30           h29bf         1   UNL       h29        30     0.42595        1.0080 ; qtot   -0.607
        31           h30bf         1   UNL       h30        31     0.42595        1.0080 ; qtot   -0.181
        32           c31bf         1   UNL       c31        32    -0.15365       12.0110 ; qtot   -0.335
        33           h32bf         1   UNL       h32        33     0.06567        1.0080 ; qtot   -0.269
        34           h33bf         1   UNL       h33        34     0.06567        1.0080 ; qtot   -0.203
        35           h34bf         1   UNL       h34        35     0.06567        1.0080 ; qtot   -0.138
        36           h35bf         1   UNL       h35        36     0.13767        1.0080 ; qtot    0.000

[ bonds ]
;       ai        aj funct               r               k
         1         2     1        0.135626   340851.102441    ;  uncertainty r = 0.000032, k = 2.026590
         2         3     1        0.138936   362685.790625    ;  uncertainty r = 0.000012, k = 0.636918
         2         5     1        0.138936   362685.790625    ;  uncertainty r = 0.000012, k = 0.636918
         3         4     1        0.139539   370670.682910    ;  uncertainty r = 0.000023, k = 0.983100
         3        21     1        0.108794   336729.898193    ;  uncertainty r = 0.000011, k = 0.656360
         4         7     1        0.139882   349971.578906    ;  uncertainty r = 0.000032, k = 1.465717
         4        36     1        0.108820   334247.818848    ;  uncertainty r = 0.000026, k = 0.847939
         5         6     1        0.139539   370670.682910    ;  uncertainty r = 0.000023, k = 0.983100
         5        22     1        0.108794   336729.898193    ;  uncertainty r = 0.000011, k = 0.656360
         6         7     1        0.139882   349971.578906    ;  uncertainty r = 0.000032, k = 1.465717
         6        23     1        0.108820   334247.818848    ;  uncertainty r = 0.000026, k = 0.847939
         7         8     1        0.151345   221595.993799    ;  uncertainty r = 0.000054, k = 5.393544
         8         9     1        0.153696   199562.907812    ;  uncertainty r = 0.000107, k = 8.444346
         8        14     1        0.153511   201296.405103    ;  uncertainty r = 0.000097, k = 8.419751
         8        24     1        0.109654   302265.883643    ;  uncertainty r = 0.000036, k = 4.272317
         9        10     1        0.151042   221321.291113    ;  uncertainty r = 0.000203, k = 18.447801
         9        25     1        0.109606   311036.195264    ;  uncertainty r = 0.000030, k = 2.163706
         9        26     1        0.109606   311036.195264    ;  uncertainty r = 0.000030, k = 2.163706
        10        11     1        0.128719   538362.154590    ;  uncertainty r = 0.000104, k = 17.832749
        10        13     1        0.147580   268546.250293    ;  uncertainty r = 0.000150, k = 29.555881
        11        12     1        0.140415   306152.478467    ;  uncertainty r = 0.000201, k = 24.633051
        12        27     1        0.097177   448930.942188    ;  uncertainty r = 0.000095, k = 7.665798
        13        15     1        0.141778   414658.455957    ;  uncertainty r = 0.000103, k = 22.818673
        13        20     1        0.142574   354867.808887    ;  uncertainty r = 0.000250, k = 17.133293
        14        15     1        0.150778   233045.582324    ;  uncertainty r = 0.000141, k = 12.425619
        14        28     1        0.109644   310164.000830    ;  uncertainty r = 0.000022, k = 2.664307
        14        29     1        0.109644   310164.000830    ;  uncertainty r = 0.000022, k = 2.664307
        15        16     1        0.134152   434505.437695    ;  uncertainty r = 0.000091, k = 31.222657
        16        17     1        0.136065   620995.082031    ;  uncertainty r = 0.000146, k = 14.893506
        17        18     1        0.140031   671109.258691    ;  uncertainty r = 0.000284, k = 13.485473
        17        19     1        0.136102   618618.241113    ;  uncertainty r = 0.000301, k = 19.721896
        18        30     1        0.102294   440101.282324    ;  uncertainty r = 0.000017, k = 2.101026
        18        31     1        0.102294   440101.282324    ;  uncertainty r = 0.000017, k = 2.101026
        19        20     1        0.134232   424598.367188    ;  uncertainty r = 0.000078, k = 13.923217
        20        32     1        0.150459   234131.088232    ;  uncertainty r = 0.000127, k = 9.848991
        32        33     1        0.109341   310719.662793    ;  uncertainty r = 0.000031, k = 1.724441
        32        34     1        0.109341   310719.662793    ;  uncertainty r = 0.000031, k = 1.724442
        32        35     1        0.109341   310719.662793    ;  uncertainty r = 0.000031, k = 1.724442

[ angles ]
;       ai        aj        ak funct           theta             cth
         1         2         3     1      119.122940      518.408428    ;  uncertainty theta = 0.001805, k = 0.036427
         1         2         5     1      119.122940      518.408428    ;  uncertainty theta = 0.001805, k = 0.036427
         2         3         4     1      118.141769      493.647966    ;  uncertainty theta = 0.001482, k = 0.029760
         2         3        21     1      120.931297      281.433278    ;  uncertainty theta = 0.001265, k = 0.015501
         2         5         6     1      118.141769      493.647966    ;  uncertainty theta = 0.001482, k = 0.029760
         2         5        22     1      120.931297      281.433278    ;  uncertainty theta = 0.001265, k = 0.015501
         3         2         5     1      121.678688      368.198448    ;  uncertainty theta = 0.004362, k = 0.083149
         3         4         7     1      122.109459      518.541029    ;  uncertainty theta = 0.002991, k = 0.058280
         3         4        36     1      119.223244      290.115416    ;  uncertainty theta = 0.001360, k = 0.028745
         4         3        21     1      121.653091      280.043676    ;  uncertainty theta = 0.001656, k = 0.041393
         4         7         6     1      119.704933      475.771478    ;  uncertainty theta = 0.003667, k = 0.123353
         4         7         8     1      120.263527      417.177475    ;  uncertainty theta = 0.002840, k = 0.121078
         5         6         7     1      122.109459      518.541029    ;  uncertainty theta = 0.002991, k = 0.058280
         5         6        23     1      119.223244      290.115416    ;  uncertainty theta = 0.001360, k = 0.028745
         6         5        22     1      121.653091      280.043676    ;  uncertainty theta = 0.001656, k = 0.041393
         6         7         8     1      120.263527      417.177475    ;  uncertainty theta = 0.002840, k = 0.121078
         7         4        36     1      118.573875      264.344227    ;  uncertainty theta = 0.001452, k = 0.064676
         7         6        23     1      118.573875      264.344227    ;  uncertainty theta = 0.001452, k = 0.064676
         7         8         9     1      110.202110      546.400292    ;  uncertainty theta = 0.001770, k = 0.088208
         7         8        14     1      110.385155      561.268061    ;  uncertainty theta = 0.001394, k = 0.088394
         7         8        24     1      105.840775      396.418071    ;  uncertainty theta = 0.001712, k = 0.117594
         8         9        10     1      110.516281      521.231108    ;  uncertainty theta = 0.006609, k = 0.198189
         8         9        25     1      108.326233      387.119946    ;  uncertainty theta = 0.001757, k = 0.016337
         8         9        26     1      108.326233      387.119946    ;  uncertainty theta = 0.001757, k = 0.016337
         8        14        15     1      109.665260      537.197931    ;  uncertainty theta = 0.003185, k = 0.042328
         8        14        28     1      108.202805      389.757067    ;  uncertainty theta = 0.002514, k = 0.060030
         8        14        29     1      108.202805      389.757067    ;  uncertainty theta = 0.002514, k = 0.060030
         9         8        14     1      108.941078      616.512298    ;  uncertainty theta = 0.003780, k = 0.184511
         9         8        24     1      106.559982      397.650939    ;  uncertainty theta = 0.002222, k = 0.063925
         9        10        11     1      124.020920      300.615127    ;  uncertainty theta = 0.014048, k = 0.970338
         9        10        13     1      119.634659      377.879439    ;  uncertainty theta = 0.005229, k = 0.056824
        10         9        25     1      107.829727      384.608339    ;  uncertainty theta = 0.001159, k = 0.076087
        10         9        26     1      107.829727      384.608339    ;  uncertainty theta = 0.001159, k = 0.076087
        10        11        12     1      105.597755      751.923650    ;  uncertainty theta = 0.005956, k = 0.197459
        10        13        15     1      121.139709      442.091989    ;  uncertainty theta = 0.006639, k = 0.288361
        10        13        20     1      121.664322      407.424597    ;  uncertainty theta = 0.011051, k = 0.074406
        11        10        13     1      118.242088      351.990396    ;  uncertainty theta = 0.018131, k = 0.348316
        11        12        27     1      100.908386      466.465852    ;  uncertainty theta = 0.006628, k = 0.052873
        13        15        14     1      120.902367      386.044195    ;  uncertainty theta = 0.004221, k = 0.235407
        13        15        16     1      122.464279      644.290033    ;  uncertainty theta = 0.004943, k = 0.176115
        13        20        19     1      122.213196      667.482644    ;  uncertainty theta = 0.002874, k = 0.143312
        13        20        32     1      119.354332      417.362715    ;  uncertainty theta = 0.005777, k = 0.161239
        14         8        24     1      106.843155      398.127876    ;  uncertainty theta = 0.002098, k = 0.029524
        14        15        16     1      120.079971      456.693981    ;  uncertainty theta = 0.003939, k = 0.602390
        15        13        20     1      120.470840      462.243482    ;  uncertainty theta = 0.009839, k = 0.463716
        15        14        28     1      107.263268      390.185580    ;  uncertainty theta = 0.001358, k = 0.061217
        15        14        29     1      107.263268      390.185580    ;  uncertainty theta = 0.001358, k = 0.061217
        15        16        17     1      115.226517      435.407459    ;  uncertainty theta = 0.005848, k = 0.330032
        16        17        18     1      124.793900      807.195659    ;  uncertainty theta = 0.008387, k = 0.065508
        16        17        19     1      126.788757      745.872951    ;  uncertainty theta = 0.005006, k = 0.175477
        17        18        30     1      119.001221      455.807077    ;  uncertainty theta = 0.002454, k = 0.026560
        17        18        31     1      119.001221      455.807077    ;  uncertainty theta = 0.002454, k = 0.026560
        17        19        20     1      117.326431      426.790568    ;  uncertainty theta = 0.011682, k = 0.374636
        18        17        19     1      124.927368      805.097275    ;  uncertainty theta = 0.007310, k = 0.087549
        19        20        32     1      119.482216      553.323657    ;  uncertainty theta = 0.005815, k = 0.207804
        20        32        33     1      108.647873      388.767504    ;  uncertainty theta = 0.000432, k = 0.100436
        20        32        34     1      108.647873      388.767504    ;  uncertainty theta = 0.000432, k = 0.100436
        20        32        35     1      108.647873      388.767504    ;  uncertainty theta = 0.000432, k = 0.100436
        25         9        26     1      105.855774      311.181616    ;  uncertainty theta = 0.001254, k = 0.056487
        28        14        29     1      105.626709      309.904729    ;  uncertainty theta = 0.001927, k = 0.069389
        30        18        31     1      107.578018      266.499560    ;  uncertainty theta = 0.002398, k = 0.032762
        33        32        34     1      107.123611      313.024757    ;  uncertainty theta = 0.001401, k = 0.041914
        33        32        35     1      107.123611      313.024757    ;  uncertainty theta = 0.001401, k = 0.041914
        34        32        35     1      107.123611      313.024757    ;  uncertainty theta = 0.001401, k = 0.041914

[ dihedrals ] ; propers for gromacs 4.5 or higher, use funct 9
;       ai        aj        ak        al funct           phase               k        pn
         1         2         3         4     9        0.000000       -0.026879         1    ;  uncertainty k = 0.241384
         1         2         3         4     9      180.000000       12.064670         2    ;  uncertainty k = 0.547144
         1         2         3         4     9        0.000000        1.507683         3    ;  uncertainty k = 0.292719
         1         2         3         4     9      180.000000        1.551314         4    ;  uncertainty k = 0.254704
         1         2         3        21     9        0.000000       -0.348946         1    ;  uncertainty k = 0.239521
         1         2         3        21     9      180.000000        8.773120         2    ;  uncertainty k = 0.299320
         1         2         3        21     9        0.000000        0.779293         3    ;  uncertainty k = 0.244355
         1         2         3        21     9      180.000000        0.947408         4    ;  uncertainty k = 0.197188
         1         2         5         6     9        0.000000       -0.026879         1    ;  uncertainty k = 0.241384
         1         2         5         6     9      180.000000       12.064670         2    ;  uncertainty k = 0.547144
         1         2         5         6     9        0.000000        1.507683         3    ;  uncertainty k = 0.292719
         1         2         5         6     9      180.000000        1.551314         4    ;  uncertainty k = 0.254704
         1         2         5        22     9        0.000000       -0.348946         1    ;  uncertainty k = 0.239521
         1         2         5        22     9      180.000000        8.773120         2    ;  uncertainty k = 0.299320
         1         2         5        22     9        0.000000        0.779293         3    ;  uncertainty k = 0.244355
         1         2         5        22     9      180.000000        0.947408         4    ;  uncertainty k = 0.197188
         2         3         4         7     9        0.000000       -0.089162         1    ;  uncertainty k = 0.184245
         2         3         4         7     9      180.000000       13.938922         2    ;  uncertainty k = 0.216261
         2         3         4         7     9        0.000000       -0.897238         3    ;  uncertainty k = 0.530900
         2         3         4         7     9      180.000000        0.790453         4    ;  uncertainty k = 0.283270
         2         3         4        36     9        0.000000       -0.067418         1    ;  uncertainty k = 0.091158
         2         3         4        36     9      180.000000        7.990807         2    ;  uncertainty k = 0.487718
         2         3         4        36     9        0.000000        1.377658         3    ;  uncertainty k = 0.330487
         2         3         4        36     9      180.000000        1.812139         4    ;  uncertainty k = 0.173146
         2         5         6         7     9        0.000000       -0.089162         1    ;  uncertainty k = 0.184245
         2         5         6         7     9      180.000000       13.938922         2    ;  uncertainty k = 0.216261
         2         5         6         7     9        0.000000       -0.897238         3    ;  uncertainty k = 0.530900
         2         5         6         7     9      180.000000        0.790453         4    ;  uncertainty k = 0.283270
         2         5         6        23     9        0.000000       -0.067418         1    ;  uncertainty k = 0.091158
         2         5         6        23     9      180.000000        7.990807         2    ;  uncertainty k = 0.487718
         2         5         6        23     9        0.000000        1.377658         3    ;  uncertainty k = 0.330487
         2         5         6        23     9      180.000000        1.812139         4    ;  uncertainty k = 0.173146
         3         2         5         6     9        0.000000        0.005292         1    ;  uncertainty k = 0.203764
         3         2         5         6     9      180.000000        9.381058         2    ;  uncertainty k = 0.474458
         3         2         5         6     9        0.000000       -0.221684         3    ;  uncertainty k = 0.409373
         3         2         5         6     9      180.000000        1.156805         4    ;  uncertainty k = 0.270444
         3         2         5        22     9        0.000000        0.112258         1    ;  uncertainty k = 0.116024
         3         2         5        22     9      180.000000        5.609769         2    ;  uncertainty k = 0.669228
         3         2         5        22     9        0.000000        1.285149         3    ;  uncertainty k = 0.303254
         3         2         5        22     9      180.000000        1.500968         4    ;  uncertainty k = 0.193386
         3         4         7         6     9        0.000000       -0.181610         1    ;  uncertainty k = 0.166624
         3         4         7         6     9      180.000000       11.751389         2    ;  uncertainty k = 0.329679
         3         4         7         6     9        0.000000       -0.435087         3    ;  uncertainty k = 0.310803
         3         4         7         6     9      180.000000        0.805885         4    ;  uncertainty k = 0.361556
         3         4         7         8     9        0.000000        0.150167         1    ;  uncertainty k = 0.253554
         3         4         7         8     9      180.000000        8.925130         2    ;  uncertainty k = 0.586528
         3         4         7         8     9        0.000000        1.362522         3    ;  uncertainty k = 0.464781
         3         4         7         8     9      180.000000        1.822664         4    ;  uncertainty k = 0.199965
         4         3         2         5     9        0.000000        0.005292         1    ;  uncertainty k = 0.203764
         4         3         2         5     9      180.000000        9.381058         2    ;  uncertainty k = 0.474458
         4         3         2         5     9        0.000000       -0.221684         3    ;  uncertainty k = 0.409373
         4         3         2         5     9      180.000000        1.156805         4    ;  uncertainty k = 0.270444
         4         7         6         5     9        0.000000       -0.181610         1    ;  uncertainty k = 0.166624
         4         7         6         5     9      180.000000       11.751389         2    ;  uncertainty k = 0.329679
         4         7         6         5     9        0.000000       -0.435087         3    ;  uncertainty k = 0.310803
         4         7         6         5     9      180.000000        0.805885         4    ;  uncertainty k = 0.361556
         4         7         6        23     9        0.000000        0.082903         1    ;  uncertainty k = 0.210572
         4         7         6        23     9      180.000000        7.134742         2    ;  uncertainty k = 0.422219
         4         7         6        23     9        0.000000        1.477232         3    ;  uncertainty k = 0.399121
         4         7         6        23     9      180.000000        1.613051         4    ;  uncertainty k = 0.162315
         4         7         8         9     9        0.000000       -0.652492         1    ;  uncertainty k = 0.345919
         4         7         8         9     9      180.000000        2.426615         2    ;  uncertainty k = 0.180000
         4         7         8         9     9        0.000000        0.284283         3    ;  uncertainty k = 0.096845
         4         7         8         9     9      180.000000        0.238614         4    ;  uncertainty k = 0.053892
         4         7         8        14     9        0.000000       -0.612720         1    ;  uncertainty k = 0.381892
         4         7         8        14     9      180.000000        2.492281         2    ;  uncertainty k = 0.202186
         4         7         8        14     9        0.000000        0.268123         3    ;  uncertainty k = 0.054910
         4         7         8        14     9      180.000000        0.277552         4    ;  uncertainty k = 0.053319
         4         7         8        24     9        0.000000       -0.242202         1    ;  uncertainty k = 0.350769
         4         7         8        24     9      180.000000        1.630036         2    ;  uncertainty k = 0.091346
         4         7         8        24     9        0.000000        0.470865         3    ;  uncertainty k = 0.127741
         4         7         8        24     9      180.000000        0.331258         4    ;  uncertainty k = 0.032594
         5         2         3        21     9        0.000000        0.112258         1    ;  uncertainty k = 0.116024
         5         2         3        21     9      180.000000        5.609769         2    ;  uncertainty k = 0.669228
         5         2         3        21     9        0.000000        1.285149         3    ;  uncertainty k = 0.303254
         5         2         3        21     9      180.000000        1.500968         4    ;  uncertainty k = 0.193386
         5         6         7         8     9        0.000000        0.150167         1    ;  uncertainty k = 0.253554
         5         6         7         8     9      180.000000        8.925130         2    ;  uncertainty k = 0.586528
         5         6         7         8     9        0.000000        1.362522         3    ;  uncertainty k = 0.464781
         5         6         7         8     9      180.000000        1.822664         4    ;  uncertainty k = 0.199965
         6         7         4        36     9        0.000000        0.082903         1    ;  uncertainty k = 0.210572
         6         7         4        36     9      180.000000        7.134742         2    ;  uncertainty k = 0.422219
         6         7         4        36     9        0.000000        1.477232         3    ;  uncertainty k = 0.399121
         6         7         4        36     9      180.000000        1.613051         4    ;  uncertainty k = 0.162315
         6         7         8         9     9        0.000000       -0.652492         1    ;  uncertainty k = 0.345919
         6         7         8         9     9      180.000000        2.426615         2    ;  uncertainty k = 0.180000
         6         7         8         9     9        0.000000        0.284283         3    ;  uncertainty k = 0.096845
         6         7         8         9     9      180.000000        0.238614         4    ;  uncertainty k = 0.053892
         6         7         8        14     9        0.000000       -0.612720         1    ;  uncertainty k = 0.381892
         6         7         8        14     9      180.000000        2.492281         2    ;  uncertainty k = 0.202186
         6         7         8        14     9        0.000000        0.268123         3    ;  uncertainty k = 0.054910
         6         7         8        14     9      180.000000        0.277552         4    ;  uncertainty k = 0.053319
         6         7         8        24     9        0.000000       -0.242202         1    ;  uncertainty k = 0.350769
         6         7         8        24     9      180.000000        1.630036         2    ;  uncertainty k = 0.091346
         6         7         8        24     9        0.000000        0.470865         3    ;  uncertainty k = 0.127741
         6         7         8        24     9      180.000000        0.331258         4    ;  uncertainty k = 0.032594
         7         4         3        21     9        0.000000        0.153450         1    ;  uncertainty k = 0.171456
         7         4         3        21     9      180.000000        7.416704         2    ;  uncertainty k = 0.464514
         7         4         3        21     9        0.000000        1.563586         3    ;  uncertainty k = 0.286229
         7         4         3        21     9      180.000000        1.875793         4    ;  uncertainty k = 0.195790
         7         6         5        22     9        0.000000        0.153450         1    ;  uncertainty k = 0.171456
         7         6         5        22     9      180.000000        7.416704         2    ;  uncertainty k = 0.464514
         7         6         5        22     9        0.000000        1.563586         3    ;  uncertainty k = 0.286229
         7         6         5        22     9      180.000000        1.875793         4    ;  uncertainty k = 0.195790
         7         8         9        10     9        0.000000       -2.410717         1    ;  uncertainty k = 0.737793
         7         8         9        10     9      180.000000        0.251882         2    ;  uncertainty k = 0.421769
         7         8         9        10     9        0.000000        0.892927         3    ;  uncertainty k = 0.262991
         7         8         9        10     9      180.000000        0.046730         4    ;  uncertainty k = 0.086284
         7         8         9        25     9        0.000000        0.686903         1    ;  uncertainty k = 0.297389
         7         8         9        25     9      180.000000       -0.219569         2    ;  uncertainty k = 0.286377
         7         8         9        25     9        0.000000        0.773200         3    ;  uncertainty k = 0.091164
         7         8         9        25     9      180.000000       -0.063022         4    ;  uncertainty k = 0.096344
         7         8         9        26     9        0.000000        0.686903         1    ;  uncertainty k = 0.297389
         7         8         9        26     9      180.000000       -0.219569         2    ;  uncertainty k = 0.286377
         7         8         9        26     9        0.000000        0.773200         3    ;  uncertainty k = 0.091164
         7         8         9        26     9      180.000000       -0.063022         4    ;  uncertainty k = 0.096344
         7         8        14        15     9        0.000000       -2.151031         1    ;  uncertainty k = 0.357744
         7         8        14        15     9      180.000000        0.345770         2    ;  uncertainty k = 0.731153
         7         8        14        15     9        0.000000        1.046038         3    ;  uncertainty k = 0.156643
         7         8        14        15     9      180.000000        0.009195         4    ;  uncertainty k = 0.018948
         7         8        14        28     9        0.000000        0.772920         1    ;  uncertainty k = 0.262485
         7         8        14        28     9      180.000000       -0.162529         2    ;  uncertainty k = 0.280579
         7         8        14        28     9        0.000000        0.795582         3    ;  uncertainty k = 0.147307
         7         8        14        28     9      180.000000       -0.065728         4    ;  uncertainty k = 0.096797
         7         8        14        29     9        0.000000        0.772920         1    ;  uncertainty k = 0.262485
         7         8        14        29     9      180.000000       -0.162529         2    ;  uncertainty k = 0.280579
         7         8        14        29     9        0.000000        0.795582         3    ;  uncertainty k = 0.147307
         7         8        14        29     9      180.000000       -0.065728         4    ;  uncertainty k = 0.096797
         8         7         4        36     9        0.000000       -0.027510         1    ;  uncertainty k = 0.252725
         8         7         4        36     9      180.000000        7.978930         2    ;  uncertainty k = 0.277828
         8         7         4        36     9        0.000000        0.698997         3    ;  uncertainty k = 0.321975
         8         7         4        36     9      180.000000        0.939691         4    ;  uncertainty k = 0.129428
         8         7         6        23     9        0.000000       -0.027510         1    ;  uncertainty k = 0.252725
         8         7         6        23     9      180.000000        7.978930         2    ;  uncertainty k = 0.277828
         8         7         6        23     9        0.000000        0.698997         3    ;  uncertainty k = 0.321975
         8         7         6        23     9      180.000000        0.939691         4    ;  uncertainty k = 0.129428
         8         9        10        11     9        0.000000       -1.371926         1    ;  uncertainty k = 1.103565
         8         9        10        11     9      180.000000        2.897788         2    ;  uncertainty k = 0.737116
         8         9        10        11     9        0.000000        0.122596         3    ;  uncertainty k = 0.363756
         8         9        10        11     9      180.000000        0.421964         4    ;  uncertainty k = 0.162711
         8         9        10        13     9        0.000000       -3.597638         1    ;  uncertainty k = 1.109951
         8         9        10        13     9      180.000000        2.253256         2    ;  uncertainty k = 0.342099
         8         9        10        13     9        0.000000        0.554888         3    ;  uncertainty k = 0.258666
         8         9        10        13     9      180.000000        0.201002         4    ;  uncertainty k = 0.286072
         8        14        15        13     9        0.000000       -3.120647         1    ;  uncertainty k = 1.808000
         8        14        15        13     9      180.000000        3.138277         2    ;  uncertainty k = 0.933778
         8        14        15        13     9        0.000000       -0.146475         3    ;  uncertainty k = 0.317799
         8        14        15        13     9      180.000000        0.529483         4    ;  uncertainty k = 0.255609
         8        14        15        16     9        0.000000       -2.753478         1    ;  uncertainty k = 1.622624
         8        14        15        16     9      180.000000        3.175568         2    ;  uncertainty k = 0.538905
         8        14        15        16     9        0.000000        0.567049         3    ;  uncertainty k = 0.372557
         8        14        15        16     9      180.000000        0.383018         4    ;  uncertainty k = 0.166381
         9         8        14        15     9        0.000000       -0.384614         1    ;  uncertainty k = 1.584213
         9         8        14        15     9      180.000000       -0.816240         2    ;  uncertainty k = 0.729628
         9         8        14        15     9        0.000000        0.771638         3    ;  uncertainty k = 0.255874
         9         8        14        15     9      180.000000       -0.463094         4    ;  uncertainty k = 0.224083
         9         8        14        28     9        0.000000       -0.541058         1    ;  uncertainty k = 0.220798
         9         8        14        28     9      180.000000       -0.655252         2    ;  uncertainty k = 0.177795
         9         8        14        28     9        0.000000        0.227892         3    ;  uncertainty k = 0.114356
         9         8        14        28     9      180.000000        0.100455         4    ;  uncertainty k = 0.106211
         9         8        14        29     9        0.000000       -0.541058         1    ;  uncertainty k = 0.220798
         9         8        14        29     9      180.000000       -0.655252         2    ;  uncertainty k = 0.177795
         9         8        14        29     9        0.000000        0.227892         3    ;  uncertainty k = 0.114356
         9         8        14        29     9      180.000000        0.100455         4    ;  uncertainty k = 0.106211
         9        10        11        12     9        0.000000        6.554851         1    ;  uncertainty k = 2.649262
         9        10        11        12     9      180.000000       45.155523         2    ;  uncertainty k = 0.145611
         9        10        11        12     9        0.000000        1.411809         3    ;  uncertainty k = 1.259446
         9        10        11        12     9      180.000000       -0.507716         4    ;  uncertainty k = 0.434742
         9        10        13        15     9        0.000000       -1.937795         1    ;  uncertainty k = 2.001388
         9        10        13        15     9      180.000000        2.484365         2    ;  uncertainty k = 0.671604
         9        10        13        15     9        0.000000       -0.264724         3    ;  uncertainty k = 0.272210
         9        10        13        15     9      180.000000        0.072112         4    ;  uncertainty k = 0.212873
         9        10        13        20     9        0.000000       -3.423049         1    ;  uncertainty k = 1.572100
         9        10        13        20     9      180.000000        3.156844         2    ;  uncertainty k = 0.689808
         9        10        13        20     9        0.000000        0.052537         3    ;  uncertainty k = 0.314782
         9        10        13        20     9      180.000000        0.121601         4    ;  uncertainty k = 0.203736
        10         9         8        14     9        0.000000       -2.490444         1    ;  uncertainty k = 1.425599
        10         9         8        14     9      180.000000       -0.121183         2    ;  uncertainty k = 0.696191
        10         9         8        14     9        0.000000        0.621227         3    ;  uncertainty k = 0.268417
        10         9         8        14     9      180.000000       -0.453097         4    ;  uncertainty k = 0.158437
        10         9         8        24     9        0.000000       -0.899744         1    ;  uncertainty k = 0.499006
        10         9         8        24     9      180.000000       -0.494855         2    ;  uncertainty k = 0.313526
        10         9         8        24     9        0.000000        0.540939         3    ;  uncertainty k = 0.228679
        10         9         8        24     9      180.000000        0.017616         4    ;  uncertainty k = 0.131741
        10        11        12        27     9        0.000000       -0.514746         1    ;  uncertainty k = 1.082545
        10        11        12        27     9      180.000000       11.253069         2    ;  uncertainty k = 0.197862
        10        11        12        27     9        0.000000        0.335412         3    ;  uncertainty k = 0.336749
        10        11        12        27     9      180.000000       -0.149950         4    ;  uncertainty k = 0.268482
        10        13        15        14     9        0.000000       -0.377502         1    ;  uncertainty k = 0.555716
        10        13        15        14     9      180.000000        5.531959         2    ;  uncertainty k = 0.833518
        10        13        15        14     9        0.000000        0.702512         3    ;  uncertainty k = 0.340012
        10        13        15        14     9      180.000000        1.358043         4    ;  uncertainty k = 0.348091
        10        13        15        16     9        0.000000        0.419160         1    ;  uncertainty k = 0.692401
        10        13        15        16     9      180.000000        7.253415         2    ;  uncertainty k = 0.538745
        10        13        15        16     9        0.000000        0.689941         3    ;  uncertainty k = 0.415909
        10        13        15        16     9      180.000000        1.738244         4    ;  uncertainty k = 0.319965
        10        13        20        19     9        0.000000        0.445367         1    ;  uncertainty k = 0.809384
        10        13        20        19     9      180.000000        7.561495         2    ;  uncertainty k = 0.569990
        10        13        20        19     9        0.000000        1.037783         3    ;  uncertainty k = 0.265107
        10        13        20        19     9      180.000000        1.767024         4    ;  uncertainty k = 0.277313
        10        13        20        32     9        0.000000       -0.564662         1    ;  uncertainty k = 0.802801
        10        13        20        32     9      180.000000        6.561939         2    ;  uncertainty k = 0.420448
        10        13        20        32     9        0.000000        0.804414         3    ;  uncertainty k = 0.415549
        10        13        20        32     9      180.000000        1.151595         4    ;  uncertainty k = 0.239110
        11        10         9        25     9        0.000000        2.310184         1    ;  uncertainty k = 0.487911
        11        10         9        25     9      180.000000        4.154641         2    ;  uncertainty k = 0.620417
        11        10         9        25     9        0.000000        0.161533         3    ;  uncertainty k = 0.120335
        11        10         9        25     9      180.000000        0.028591         4    ;  uncertainty k = 0.212243
        11        10         9        26     9        0.000000        2.310184         1    ;  uncertainty k = 0.487911
        11        10         9        26     9      180.000000        4.154641         2    ;  uncertainty k = 0.620417
        11        10         9        26     9        0.000000        0.161533         3    ;  uncertainty k = 0.120335
        11        10         9        26     9      180.000000        0.028591         4    ;  uncertainty k = 0.212243
        11        10        13        15     9        0.000000        1.246252         1    ;  uncertainty k = 2.529750
        11        10        13        15     9      180.000000        4.015056         2    ;  uncertainty k = 0.605916
        11        10        13        15     9        0.000000        0.631658         3    ;  uncertainty k = 0.464166
        11        10        13        15     9      180.000000       -0.179748         4    ;  uncertainty k = 0.292208
        11        10        13        20     9        0.000000        0.272889         1    ;  uncertainty k = 1.687053
        11        10        13        20     9      180.000000        4.620500         2    ;  uncertainty k = 0.238752
        11        10        13        20     9        0.000000        0.568204         3    ;  uncertainty k = 0.406557
        11        10        13        20     9      180.000000       -0.135078         4    ;  uncertainty k = 0.294144
        12        11        10        13     9        0.000000       -0.236048         1    ;  uncertainty k = 2.195517
        12        11        10        13     9      180.000000       36.214167         2    ;  uncertainty k = 0.476471
        12        11        10        13     9        0.000000        3.933111         3    ;  uncertainty k = 1.286901
        12        11        10        13     9      180.000000        0.327484         4    ;  uncertainty k = 1.983576
        13        10         9        25     9        0.000000       -0.445378         1    ;  uncertainty k = 0.559187
        13        10         9        25     9      180.000000        2.264182         2    ;  uncertainty k = 0.955179
        13        10         9        25     9        0.000000        0.796814         3    ;  uncertainty k = 0.254635
        13        10         9        25     9      180.000000        0.172226         4    ;  uncertainty k = 0.145686
        13        10         9        26     9        0.000000       -0.445378         1    ;  uncertainty k = 0.559187
        13        10         9        26     9      180.000000        2.264182         2    ;  uncertainty k = 0.955179
        13        10         9        26     9        0.000000        0.796814         3    ;  uncertainty k = 0.254635
        13        10         9        26     9      180.000000        0.172226         4    ;  uncertainty k = 0.145686
        13        15        14        28     9        0.000000       -0.975383         1    ;  uncertainty k = 0.717365
        13        15        14        28     9      180.000000        3.085943         2    ;  uncertainty k = 0.416044
        13        15        14        28     9        0.000000        0.486043         3    ;  uncertainty k = 0.220394
        13        15        14        28     9      180.000000        0.188678         4    ;  uncertainty k = 0.063161
        13        15        14        29     9        0.000000       -0.975383         1    ;  uncertainty k = 0.717365
        13        15        14        29     9      180.000000        3.085943         2    ;  uncertainty k = 0.416044
        13        15        14        29     9        0.000000        0.486043         3    ;  uncertainty k = 0.220394
        13        15        14        29     9      180.000000        0.188678         4    ;  uncertainty k = 0.063161
        13        15        16        17     9        0.000000       -0.569880         1    ;  uncertainty k = 1.141472
        13        15        16        17     9      180.000000       15.205357         2    ;  uncertainty k = 0.566956
        13        15        16        17     9        0.000000        0.193978         3    ;  uncertainty k = 0.700767
        13        15        16        17     9      180.000000        1.451318         4    ;  uncertainty k = 0.290893
        13        20        19        17     9        0.000000       -0.941806         1    ;  uncertainty k = 0.701286
        13        20        19        17     9      180.000000       14.288563         2    ;  uncertainty k = 0.590726
        13        20        19        17     9        0.000000        0.682968         3    ;  uncertainty k = 0.795542
        13        20        19        17     9      180.000000        1.478145         4    ;  uncertainty k = 0.575126
        13        20        32        33     9        0.000000        0.259047         1    ;  uncertainty k = 0.394428
        13        20        32        33     9      180.000000        3.763858         2    ;  uncertainty k = 0.313658
        13        20        32        33     9        0.000000        0.127772         3    ;  uncertainty k = 0.040355
        13        20        32        33     9      180.000000        0.289344         4    ;  uncertainty k = 0.056743
        13        20        32        34     9        0.000000        0.259047         1    ;  uncertainty k = 0.394428
        13        20        32        34     9      180.000000        3.763858         2    ;  uncertainty k = 0.313658
        13        20        32        34     9        0.000000        0.127772         3    ;  uncertainty k = 0.040355
        13        20        32        34     9      180.000000        0.289344         4    ;  uncertainty k = 0.056743
        13        20        32        35     9        0.000000        0.259047         1    ;  uncertainty k = 0.394428
        13        20        32        35     9      180.000000        3.763858         2    ;  uncertainty k = 0.313658
        13        20        32        35     9        0.000000        0.127772         3    ;  uncertainty k = 0.040355
        13        20        32        35     9      180.000000        0.289344         4    ;  uncertainty k = 0.056743
        14         8         9        25     9        0.000000       -0.675362         1    ;  uncertainty k = 0.264976
        14         8         9        25     9      180.000000       -0.688574         2    ;  uncertainty k = 0.220994
        14         8         9        25     9        0.000000        0.183769         3    ;  uncertainty k = 0.114420
        14         8         9        25     9      180.000000        0.038568         4    ;  uncertainty k = 0.050906
        14         8         9        26     9        0.000000       -0.675362         1    ;  uncertainty k = 0.264976
        14         8         9        26     9      180.000000       -0.688574         2    ;  uncertainty k = 0.220994
        14         8         9        26     9        0.000000        0.183769         3    ;  uncertainty k = 0.114420
        14         8         9        26     9      180.000000        0.038568         4    ;  uncertainty k = 0.050906
        14        15        13        20     9        0.000000        0.028435         1    ;  uncertainty k = 0.472094
        14        15        13        20     9      180.000000        4.242105         2    ;  uncertainty k = 0.903380
        14        15        13        20     9        0.000000        0.855928         3    ;  uncertainty k = 0.278847
        14        15        13        20     9      180.000000        1.429042         4    ;  uncertainty k = 0.431639
        14        15        16        17     9        0.000000        0.203953         1    ;  uncertainty k = 1.346057
        14        15        16        17     9      180.000000       17.158308         2    ;  uncertainty k = 0.642787
        14        15        16        17     9        0.000000        1.530038         3    ;  uncertainty k = 0.694708
        14        15        16        17     9      180.000000        1.444717         4    ;  uncertainty k = 0.526117
        15        13        20        19     9        0.000000        0.480565         1    ;  uncertainty k = 0.612429
        15        13        20        19     9      180.000000        8.606537         2    ;  uncertainty k = 0.676306
        15        13        20        19     9        0.000000       -0.088422         3    ;  uncertainty k = 0.457630
        15        13        20        19     9      180.000000        1.175507         4    ;  uncertainty k = 0.391954
        15        13        20        32     9        0.000000       -0.455902         1    ;  uncertainty k = 0.887706
        15        13        20        32     9      180.000000        4.489311         2    ;  uncertainty k = 0.952603
        15        13        20        32     9        0.000000        0.822559         3    ;  uncertainty k = 0.339733
        15        13        20        32     9      180.000000        1.126314         4    ;  uncertainty k = 0.144634
        15        14         8        24     9        0.000000       -0.587612         1    ;  uncertainty k = 0.616624
        15        14         8        24     9      180.000000       -0.210111         2    ;  uncertainty k = 0.291012
        15        14         8        24     9        0.000000        0.523245         3    ;  uncertainty k = 0.196311
        15        14         8        24     9      180.000000        0.046519         4    ;  uncertainty k = 0.057951
        15        16        17        18     9        0.000000        1.202746         1    ;  uncertainty k = 1.372754
        15        16        17        18     9      180.000000        9.607805         2    ;  uncertainty k = 0.473413
        15        16        17        18     9        0.000000        2.167433         3    ;  uncertainty k = 0.395551
        15        16        17        18     9      180.000000        0.826406         4    ;  uncertainty k = 0.246249
        15        16        17        19     9        0.000000        0.218431         1    ;  uncertainty k = 1.789727
        15        16        17        19     9      180.000000        6.958171         2    ;  uncertainty k = 1.063501
        15        16        17        19     9        0.000000        0.838166         3    ;  uncertainty k = 0.267049
        15        16        17        19     9      180.000000        0.657016         4    ;  uncertainty k = 0.074490
        16        15        13        20     9        0.000000        0.309327         1    ;  uncertainty k = 0.477753
        16        15        13        20     9      180.000000        8.033128         2    ;  uncertainty k = 0.605212
        16        15        13        20     9        0.000000       -0.084435         3    ;  uncertainty k = 0.159827
        16        15        13        20     9      180.000000        1.313043         4    ;  uncertainty k = 0.245391
        16        15        14        28     9        0.000000        1.922769         1    ;  uncertainty k = 0.971926
        16        15        14        28     9      180.000000        3.693073         2    ;  uncertainty k = 0.258640
        16        15        14        28     9        0.000000        0.304721         3    ;  uncertainty k = 0.280915
        16        15        14        28     9      180.000000        0.244749         4    ;  uncertainty k = 0.090344
        16        15        14        29     9        0.000000        1.922769         1    ;  uncertainty k = 0.971926
        16        15        14        29     9      180.000000        3.693073         2    ;  uncertainty k = 0.258640
        16        15        14        29     9        0.000000        0.304721         3    ;  uncertainty k = 0.280915
        16        15        14        29     9      180.000000        0.244749         4    ;  uncertainty k = 0.090344
        16        17        18        30     9        0.000000       20.054934         1    ;  uncertainty k = 0.271416
        16        17        18        30     9      180.000000       11.122135         2    ;  uncertainty k = 0.198074
        16        17        18        30     9        0.000000        1.036002         3    ;  uncertainty k = 0.243769
        16        17        18        30     9      180.000000       -0.419666         4    ;  uncertainty k = 0.168834
        16        17        18        31     9        0.000000       20.054934         1    ;  uncertainty k = 0.271416
        16        17        18        31     9      180.000000       11.122135         2    ;  uncertainty k = 0.198074
        16        17        18        31     9        0.000000        1.036002         3    ;  uncertainty k = 0.243769
        16        17        18        31     9      180.000000       -0.419666         4    ;  uncertainty k = 0.168834
        16        17        19        20     9        0.000000       -0.218256         1    ;  uncertainty k = 1.291881
        16        17        19        20     9      180.000000        6.876945         2    ;  uncertainty k = 0.940938
        16        17        19        20     9        0.000000        0.728585         3    ;  uncertainty k = 0.505236
        16        17        19        20     9      180.000000        0.680204         4    ;  uncertainty k = 0.093411
        17        19        20        32     9        0.000000        0.517008         1    ;  uncertainty k = 0.804234
        17        19        20        32     9      180.000000       16.257214         2    ;  uncertainty k = 0.500976
        17        19        20        32     9        0.000000        2.289223         3    ;  uncertainty k = 0.321921
        17        19        20        32     9      180.000000        1.636862         4    ;  uncertainty k = 0.504078
        18        17        19        20     9        0.000000        1.208470         1    ;  uncertainty k = 1.519936
        18        17        19        20     9      180.000000        8.727299         2    ;  uncertainty k = 0.175158
        18        17        19        20     9        0.000000        2.101019         3    ;  uncertainty k = 0.443649
        18        17        19        20     9      180.000000        0.899683         4    ;  uncertainty k = 0.241562
        19        17        18        30     9        0.000000       20.651679         1    ;  uncertainty k = 0.452891
        19        17        18        30     9      180.000000       11.324182         2    ;  uncertainty k = 0.280575
        19        17        18        30     9        0.000000        0.996208         3    ;  uncertainty k = 0.165865
        19        17        18        30     9      180.000000       -0.440881         4    ;  uncertainty k = 0.167646
        19        17        18        31     9        0.000000       20.651679         1    ;  uncertainty k = 0.452891
        19        17        18        31     9      180.000000       11.324182         2    ;  uncertainty k = 0.280575
        19        17        18        31     9        0.000000        0.996208         3    ;  uncertainty k = 0.165865
        19        17        18        31     9      180.000000       -0.440881         4    ;  uncertainty k = 0.167646
        19        20        32        33     9        0.000000        0.223396         1    ;  uncertainty k = 0.342352
        19        20        32        33     9      180.000000        4.413775         2    ;  uncertainty k = 0.237647
        19        20        32        33     9        0.000000        0.674297         3    ;  uncertainty k = 0.087544
        19        20        32        33     9      180.000000        0.371038         4    ;  uncertainty k = 0.069501
        19        20        32        34     9        0.000000        0.223396         1    ;  uncertainty k = 0.342352
        19        20        32        34     9      180.000000        4.413775         2    ;  uncertainty k = 0.237647
        19        20        32        34     9        0.000000        0.674297         3    ;  uncertainty k = 0.087544
        19        20        32        34     9      180.000000        0.371038         4    ;  uncertainty k = 0.069501
        19        20        32        35     9        0.000000        0.223396         1    ;  uncertainty k = 0.342352
        19        20        32        35     9      180.000000        4.413775         2    ;  uncertainty k = 0.237647
        19        20        32        35     9        0.000000        0.674297         3    ;  uncertainty k = 0.087544
        19        20        32        35     9      180.000000        0.371038         4    ;  uncertainty k = 0.069501
        21         3         4        36     9        0.000000       -0.006849         1    ;  uncertainty k = 0.098910
        21         3         4        36     9      180.000000        7.619947         2    ;  uncertainty k = 0.278774
        21         3         4        36     9        0.000000       -0.461402         3    ;  uncertainty k = 0.233830
        21         3         4        36     9      180.000000        0.104799         4    ;  uncertainty k = 0.114056
        22         5         6        23     9        0.000000       -0.006849         1    ;  uncertainty k = 0.098910
        22         5         6        23     9      180.000000        7.619946         2    ;  uncertainty k = 0.278774
        22         5         6        23     9        0.000000       -0.461402         3    ;  uncertainty k = 0.233830
        22         5         6        23     9      180.000000        0.104799         4    ;  uncertainty k = 0.114056
        24         8         9        25     9        0.000000        1.127486         1    ;  uncertainty k = 0.245828
        24         8         9        25     9      180.000000       -0.101192         2    ;  uncertainty k = 0.265943
        24         8         9        25     9        0.000000        0.065147         3    ;  uncertainty k = 0.127790
        24         8         9        25     9      180.000000        0.033655         4    ;  uncertainty k = 0.083003
        24         8         9        26     9        0.000000        1.127486         1    ;  uncertainty k = 0.245828
        24         8         9        26     9      180.000000       -0.101192         2    ;  uncertainty k = 0.265943
        24         8         9        26     9        0.000000        0.065147         3    ;  uncertainty k = 0.127790
        24         8         9        26     9      180.000000        0.033655         4    ;  uncertainty k = 0.083003
        24         8        14        28     9        0.000000        1.011735         1    ;  uncertainty k = 0.320373
        24         8        14        28     9      180.000000       -0.157812         2    ;  uncertainty k = 0.367711
        24         8        14        28     9        0.000000        0.079049         3    ;  uncertainty k = 0.090374
        24         8        14        28     9      180.000000        0.082293         4    ;  uncertainty k = 0.080333
        24         8        14        29     9        0.000000        1.011735         1    ;  uncertainty k = 0.320373
        24         8        14        29     9      180.000000       -0.157812         2    ;  uncertainty k = 0.367711
        24         8        14        29     9        0.000000        0.079049         3    ;  uncertainty k = 0.090374
        24         8        14        29     9      180.000000        0.082293         4    ;  uncertainty k = 0.080333

[ dihedrals ] ; impropers
;       ai        aj        ak        al funct           phase               k        pn
         2         1         3         5     4      180.000000       16.708416         2    ;  uncertainty k = 0.071322
         2         3         5         1     4      180.000000       16.708416         2    ;  uncertainty k = 0.071322
         2         5         1         3     4      180.000000       16.708416         2    ;  uncertainty k = 0.071322
         3         2         4        21     4      180.000000        2.013757         2    ;  uncertainty k = 0.087766
         3         4        21         2     4      180.000000        2.013757         2    ;  uncertainty k = 0.087766
         3        21         2         4     4      180.000000        2.013757         2    ;  uncertainty k = 0.087766
         4         3         7        36     4      180.000000        4.600823         2    ;  uncertainty k = 0.126520
         4         7        36         3     4      180.000000        4.600823         2    ;  uncertainty k = 0.126520
         4        36         3         7     4      180.000000        4.600823         2    ;  uncertainty k = 0.126520
         5         2         6        22     4      180.000000        2.013757         2    ;  uncertainty k = 0.087766
         5         6        22         2     4      180.000000        2.013757         2    ;  uncertainty k = 0.087766
         5        22         2         6     4      180.000000        2.013757         2    ;  uncertainty k = 0.087766
         6         5         7        23     4      180.000000        4.600825         2    ;  uncertainty k = 0.126520
         6         7        23         5     4      180.000000        4.600825         2    ;  uncertainty k = 0.126520
         6        23         5         7     4      180.000000        4.600825         2    ;  uncertainty k = 0.126520
         7         4         6         8     4      180.000000       12.743316         2    ;  uncertainty k = 0.090256
         7         6         8         4     4      180.000000       12.743316         2    ;  uncertainty k = 0.090256
         7         8         4         6     4      180.000000       12.743316         2    ;  uncertainty k = 0.090256
        10         9        11        13     4      180.000000       20.241926         2    ;  uncertainty k = 0.048796
        10        11        13         9     4      180.000000       20.241926         2    ;  uncertainty k = 0.048796
        10        13         9        11     4      180.000000       20.241926         2    ;  uncertainty k = 0.048796
        13        10        15        20     4      180.000000        7.009762         2    ;  uncertainty k = 0.510333
        13        15        20        10     4      180.000000        7.009762         2    ;  uncertainty k = 0.510333
        13        20        10        15     4      180.000000        7.009762         2    ;  uncertainty k = 0.510333
        15        13        14        16     4      180.000000       30.893140         2    ;  uncertainty k = 0.113075
        15        14        16        13     4      180.000000       30.893140         2    ;  uncertainty k = 0.113075
        15        16        13        14     4      180.000000       30.893140         2    ;  uncertainty k = 0.113075
        17        16        18        19     4      180.000000       47.643329         2    ;  uncertainty k = 0.088982
        17        18        19        16     4      180.000000       47.643329         2    ;  uncertainty k = 0.088982
        17        19        16        18     4      180.000000       47.643329         2    ;  uncertainty k = 0.088982
        18        17        30        31     4      180.000000        0.305100         2    ;  uncertainty k = 0.433595
        18        30        31        17     4      180.000000        0.305100         2    ;  uncertainty k = 0.433595
        18        31        17        30     4      180.000000        0.305100         2    ;  uncertainty k = 0.433595
        20        13        19        32     4      180.000000       31.633248         2    ;  uncertainty k = 0.098581
        20        19        32        13     4      180.000000       31.633248         2    ;  uncertainty k = 0.098581
        20        32        13        19     4      180.000000       31.633248         2    ;  uncertainty k = 0.098581

[ pairs ]
;       ai        aj funct
         1         4     1
         1         6     1
         1        21     1
         1        22     1
         2         7     1
         2        23     1
         2        36     1
         3         6     1
         3         8     1
         3        22     1
         4         5     1
         4         9     1
         4        14     1
         4        23     1
         4        24     1
         5         8     1
         5        21     1
         6         9     1
         6        14     1
         6        24     1
         6        36     1
         7        10     1
         7        15     1
         7        21     1
         7        22     1
         7        25     1
         7        26     1
         7        28     1
         7        29     1
         8        11     1
         8        13     1
         8        16     1
         8        23     1
         8        36     1
         9        12     1
         9        15     1
         9        20     1
         9        28     1
         9        29     1
        10        14     1
        10        16     1
        10        19     1
        10        24     1
        10        27     1
        10        32     1
        11        15     1
        11        20     1
        11        25     1
        11        26     1
        12        13     1
        13        17     1
        13        25     1
        13        26     1
        13        28     1
        13        29     1
        13        33     1
        13        34     1
        13        35     1
        14        17     1
        14        20     1
        14        25     1
        14        26     1
        15        18     1
        15        19     1
        15        24     1
        15        32     1
        16        20     1
        16        28     1
        16        29     1
        16        30     1
        16        31     1
        17        32     1
        18        20     1
        19        30     1
        19        31     1
        19        33     1
        19        34     1
        19        35     1
        21        36     1
        22        23     1
        24        25     1
        24        26     1
        24        28     1
        24        29     1
