; ITP file created by ByteFF-joint-25, 2025-07-14 11:27:52.007686

[ atomtypes ]
;name           bonded.type        at.num        mass        charge   ptype           sigma         epsilon
 c0bf                                   6      0.0000       0.00000       A     3.31518e-01     4.13340e-01    ;  uncertainty sigma = 0.000003, epsilon = 0.000580
 c1bf                                   6      0.0000       0.00000       A     3.31519e-01     4.13335e-01    ;  uncertainty sigma = 0.000003, epsilon = 0.000623
 c2bf                                   6      0.0000       0.00000       A     3.31515e-01     4.13328e-01    ;  uncertainty sigma = 0.000004, epsilon = 0.000482
 c3bf                                   6      0.0000       0.00000       A     3.31519e-01     4.13335e-01    ;  uncertainty sigma = 0.000003, epsilon = 0.000623
 c4bf                                   6      0.0000       0.00000       A     3.31515e-01     4.13328e-01    ;  uncertainty sigma = 0.000004, epsilon = 0.000482
 c5bf                                   6      0.0000       0.00000       A     3.31540e-01     4.13072e-01    ;  uncertainty sigma = 0.000004, epsilon = 0.000645
 c6bf                                   6      0.0000       0.00000       A     3.39797e-01     4.50319e-01    ;  uncertainty sigma = 0.000011, epsilon = 0.000769
 c7bf                                   6      0.0000       0.00000       A     3.39804e-01     4.50993e-01    ;  uncertainty sigma = 0.000010, epsilon = 0.001083
 c8bf                                   6      0.0000       0.00000       A     3.31505e-01     4.12765e-01    ;  uncertainty sigma = 0.000020, epsilon = 0.001240
 o9bf                                   8      0.0000       0.00000       A     3.04800e-01     6.11756e-01    ;  uncertainty sigma = 0.000020, epsilon = 0.001396
 c10bf                                  6      0.0000       0.00000       A     3.31528e-01     4.13782e-01    ;  uncertainty sigma = 0.000020, epsilon = 0.001784
 c11bf                                  6      0.0000       0.00000       A     3.39768e-01     4.50840e-01    ;  uncertainty sigma = 0.000013, epsilon = 0.000817
 c12bf                                  6      0.0000       0.00000       A     3.31538e-01     4.13339e-01    ;  uncertainty sigma = 0.000016, epsilon = 0.001143
 n13bf                                  7      0.0000       0.00000       A     3.38423e-01     3.92979e-01    ;  uncertainty sigma = 0.000041, epsilon = 0.001548
 c14bf                                  6      0.0000       0.00000       A     3.31531e-01     4.13128e-01    ;  uncertainty sigma = 0.000018, epsilon = 0.001137
 n15bf                                  7      0.0000       0.00000       A     3.36868e-01     4.69648e-01    ;  uncertainty sigma = 0.000038, epsilon = 0.001840
 n16bf                                  7      0.0000       0.00000       A     3.38448e-01     3.93865e-01    ;  uncertainty sigma = 0.000024, epsilon = 0.000882
 c17bf                                  6      0.0000       0.00000       A     3.31517e-01     4.13387e-01    ;  uncertainty sigma = 0.000015, epsilon = 0.001047
 h18bf                                  1      0.0000       0.00000       A     2.62559e-01     6.70250e-02    ;  uncertainty sigma = 0.000010, epsilon = 0.000440
 h19bf                                  1      0.0000       0.00000       A     2.62559e-01     6.70250e-02    ;  uncertainty sigma = 0.000010, epsilon = 0.000440
 h20bf                                  1      0.0000       0.00000       A     2.62557e-01     6.70341e-02    ;  uncertainty sigma = 0.000010, epsilon = 0.000442
 h21bf                                  1      0.0000       0.00000       A     2.60082e-01     8.72397e-02    ;  uncertainty sigma = 0.000032, epsilon = 0.000639
 h22bf                                  1      0.0000       0.00000       A     2.60017e-01     8.65482e-02    ;  uncertainty sigma = 0.000011, epsilon = 0.000948
 h23bf                                  1      0.0000       0.00000       A     2.60017e-01     8.65482e-02    ;  uncertainty sigma = 0.000011, epsilon = 0.000948
 h24bf                                  1      0.0000       0.00000       A     2.60043e-01     8.67081e-02    ;  uncertainty sigma = 0.000017, epsilon = 0.001169
 h25bf                                  1      0.0000       0.00000       A     2.60043e-01     8.67081e-02    ;  uncertainty sigma = 0.000017, epsilon = 0.001169
 h26bf                                  1      0.0000       0.00000       A     1.10707e-01     4.06772e-02    ;  uncertainty sigma = 0.000046, epsilon = 0.001139
 h27bf                                  1      0.0000       0.00000       A     1.10707e-01     4.06772e-02    ;  uncertainty sigma = 0.000046, epsilon = 0.001139
 h28bf                                  1      0.0000       0.00000       A     2.62557e-01     6.70341e-02    ;  uncertainty sigma = 0.000010, epsilon = 0.000442
 h29bf                                  1      0.0000       0.00000       A     2.62552e-01     6.70647e-02    ;  uncertainty sigma = 0.000011, epsilon = 0.000453
 h30bf                                  1      0.0000       0.00000       A     2.53621e-01     6.75449e-02    ;  uncertainty sigma = 0.000040, epsilon = 0.001015

[ moleculetype ]
;name             nrexcl
 MOL                   3

[ atoms ]
;       nr            type      resi   res      atom      cgnr      charge          mass ; qtot
         1            c0bf         1   UNL        c0         1    -0.12820       12.0110 ; qtot   -0.128
         2            c1bf         1   UNL        c1         2    -0.12869       12.0110 ; qtot   -0.257
         3            c2bf         1   UNL        c2         3    -0.12254       12.0110 ; qtot   -0.379
         4            c3bf         1   UNL        c3         4    -0.12869       12.0110 ; qtot   -0.508
         5            c4bf         1   UNL        c4         5    -0.12254       12.0110 ; qtot   -0.631
         6            c5bf         1   UNL        c5         6    -0.08724       12.0110 ; qtot   -0.718
         7            c6bf         1   UNL        c6         7    -0.00524       12.0110 ; qtot   -0.723
         8            c7bf         1   UNL        c7         8    -0.17216       12.0110 ; qtot   -0.895
         9            c8bf         1   UNL        c8         9     0.59779       12.0110 ; qtot   -0.298
        10            o9bf         1   UNL        o9        10    -0.51432       15.9990 ; qtot   -0.812
        11           c10bf         1   UNL       c10        11    -0.48235       12.0110 ; qtot   -1.294
        12           c11bf         1   UNL       c11        12    -0.13306       12.0110 ; qtot   -1.427
        13           c12bf         1   UNL       c12        13     0.53386       12.0110 ; qtot   -0.893
        14           n13bf         1   UNL       n13        14    -0.77844       14.0070 ; qtot   -1.672
        15           c14bf         1   UNL       c14        15     0.89703       12.0110 ; qtot   -0.775
        16           n15bf         1   UNL       n15        16    -0.92787       14.0070 ; qtot   -1.703
        17           n16bf         1   UNL       n16        17    -0.76110       14.0070 ; qtot   -2.464
        18           c17bf         1   UNL       c17        18     0.52996       12.0110 ; qtot   -1.934
        19           h18bf         1   UNL       h18        19     0.13115        1.0080 ; qtot   -1.803
        20           h19bf         1   UNL       h19        20     0.13115        1.0080 ; qtot   -1.671
        21           h20bf         1   UNL       h20        21     0.13107        1.0080 ; qtot   -1.540
        22           h21bf         1   UNL       h21        22     0.06152        1.0080 ; qtot   -1.479
        23           h22bf         1   UNL       h22        23     0.07932        1.0080 ; qtot   -1.400
        24           h23bf         1   UNL       h23        24     0.07932        1.0080 ; qtot   -1.320
        25           h24bf         1   UNL       h24        25     0.07809        1.0080 ; qtot   -1.242
        26           h25bf         1   UNL       h25        26     0.07809        1.0080 ; qtot   -1.164
        27           h26bf         1   UNL       h26        27     0.42693        1.0080 ; qtot   -0.737
        28           h27bf         1   UNL       h27        28     0.42693        1.0080 ; qtot   -0.310
        29           h28bf         1   UNL       h28        29     0.13107        1.0080 ; qtot   -0.179
        30           h29bf         1   UNL       h29        30     0.13373        1.0080 ; qtot   -0.045
        31           h30bf         1   UNL       h30        31     0.04543        1.0080 ; qtot    0.000

[ bonds ]
;       ai        aj funct               r               k
         1         2     1        0.139612   371119.369922    ;  uncertainty r = 0.000019, k = 0.826893
         1         4     1        0.139612   371119.369922    ;  uncertainty r = 0.000019, k = 0.826893
         1        30     1        0.108841   334518.920801    ;  uncertainty r = 0.000012, k = 0.635578
         2         3     1        0.139656   366457.238623    ;  uncertainty r = 0.000018, k = 1.535065
         2        19     1        0.108846   333964.254785    ;  uncertainty r = 0.000006, k = 0.745329
         3         6     1        0.139939   349971.323535    ;  uncertainty r = 0.000034, k = 1.287507
         3        29     1        0.108904   335008.543799    ;  uncertainty r = 0.000023, k = 0.789530
         4         5     1        0.139656   366457.238623    ;  uncertainty r = 0.000018, k = 1.535065
         4        20     1        0.108846   333964.254785    ;  uncertainty r = 0.000006, k = 0.745329
         5         6     1        0.139939   349971.323535    ;  uncertainty r = 0.000034, k = 1.287507
         5        21     1        0.108904   335008.543799    ;  uncertainty r = 0.000023, k = 0.789530
         6         7     1        0.151446   221925.448047    ;  uncertainty r = 0.000057, k = 7.013680
         7         8     1        0.153861   200695.044482    ;  uncertainty r = 0.000097, k = 4.665671
         7        12     1        0.153746   199419.082813    ;  uncertainty r = 0.000099, k = 9.130335
         7        22     1        0.109674   301680.419873    ;  uncertainty r = 0.000040, k = 4.346452
         8         9     1        0.151812   195310.647119    ;  uncertainty r = 0.000050, k = 13.101457
         8        23     1        0.109629   311050.164062    ;  uncertainty r = 0.000012, k = 1.332868
         8        24     1        0.109629   311050.164062    ;  uncertainty r = 0.000012, k = 1.332868
         9        10     1        0.122964   726099.848535    ;  uncertainty r = 0.000103, k = 5.714803
         9        11     1        0.148021   306735.133154    ;  uncertainty r = 0.000230, k = 27.570860
        11        13     1        0.141456   436091.496484    ;  uncertainty r = 0.000104, k = 16.828762
        11        18     1        0.141171   433358.004297    ;  uncertainty r = 0.000148, k = 11.291953
        12        13     1        0.150665   236780.512256    ;  uncertainty r = 0.000123, k = 13.875209
        12        25     1        0.109633   309793.814893    ;  uncertainty r = 0.000027, k = 2.262882
        12        26     1        0.109633   309793.814893    ;  uncertainty r = 0.000027, k = 2.262882
        13        14     1        0.134055   427615.908643    ;  uncertainty r = 0.000142, k = 14.905425
        14        15     1        0.136419   607819.619043    ;  uncertainty r = 0.000214, k = 15.847185
        15        16     1        0.139782   696744.175195    ;  uncertainty r = 0.000198, k = 11.556484
        15        17     1        0.136962   580032.894629    ;  uncertainty r = 0.000126, k = 15.186498
        16        27     1        0.102280   439973.290332    ;  uncertainty r = 0.000017, k = 2.625454
        16        28     1        0.102280   439973.290332    ;  uncertainty r = 0.000017, k = 2.625454
        17        18     1        0.133279   426251.282129    ;  uncertainty r = 0.000159, k = 17.674855
        18        31     1        0.108736   326393.012598    ;  uncertainty r = 0.000089, k = 3.613230

[ angles ]
;       ai        aj        ak funct           theta             cth
         1         2         3     1      119.689491      516.474566    ;  uncertainty theta = 0.001139, k = 0.025855
         1         2        19     1      120.607300      287.955073    ;  uncertainty theta = 0.001231, k = 0.015100
         1         4         5     1      119.689491      516.474566    ;  uncertainty theta = 0.001139, k = 0.025855
         1         4        20     1      120.607300      287.955073    ;  uncertainty theta = 0.001231, k = 0.015100
         2         1         4     1      118.185890      527.569610    ;  uncertainty theta = 0.000765, k = 0.014715
         2         1        30     1      120.694115      289.057286    ;  uncertainty theta = 0.001403, k = 0.014033
         2         3         6     1      121.218735      521.536117    ;  uncertainty theta = 0.002334, k = 0.046298
         2         3        29     1      120.065941      293.604679    ;  uncertainty theta = 0.001483, k = 0.020484
         3         2        19     1      120.215477      284.572427    ;  uncertainty theta = 0.001172, k = 0.028441
         3         6         5     1      120.035667      468.116091    ;  uncertainty theta = 0.003260, k = 0.124938
         3         6         7     1      120.164902      419.987131    ;  uncertainty theta = 0.002342, k = 0.092981
         4         1        30     1      120.694115      289.057286    ;  uncertainty theta = 0.001403, k = 0.014033
         4         5         6     1      121.218735      521.536117    ;  uncertainty theta = 0.002334, k = 0.046298
         4         5        21     1      120.065941      293.604679    ;  uncertainty theta = 0.001483, k = 0.020484
         5         4        20     1      120.215477      284.572427    ;  uncertainty theta = 0.001172, k = 0.028441
         5         6         7     1      120.164902      419.987131    ;  uncertainty theta = 0.002342, k = 0.092981
         6         3        29     1      118.538620      266.047186    ;  uncertainty theta = 0.001543, k = 0.065044
         6         5        21     1      118.538620      266.047186    ;  uncertainty theta = 0.001543, k = 0.065044
         6         7         8     1      110.414551      559.409661    ;  uncertainty theta = 0.000920, k = 0.112477
         6         7        12     1      110.308823      556.456167    ;  uncertainty theta = 0.000740, k = 0.105660
         6         7        22     1      105.909409      397.072364    ;  uncertainty theta = 0.002007, k = 0.108360
         7         8         9     1      111.448105      511.326285    ;  uncertainty theta = 0.004192, k = 0.040790
         7         8        23     1      108.410362      382.179728    ;  uncertainty theta = 0.002870, k = 0.081384
         7         8        24     1      108.410362      382.179728    ;  uncertainty theta = 0.002870, k = 0.081384
         7        12        13     1      109.859756      538.488193    ;  uncertainty theta = 0.002255, k = 0.132825
         7        12        25     1      108.188644      389.371489    ;  uncertainty theta = 0.003013, k = 0.066197
         7        12        26     1      108.188644      389.371489    ;  uncertainty theta = 0.003013, k = 0.066197
         8         7        12     1      109.617371      626.545828    ;  uncertainty theta = 0.002783, k = 0.108386
         8         7        22     1      106.712875      398.724519    ;  uncertainty theta = 0.001210, k = 0.126173
         8         9        10     1      123.704811      578.161497    ;  uncertainty theta = 0.001558, k = 0.080781
         8         9        11     1      116.626083      346.913810    ;  uncertainty theta = 0.006317, k = 0.441205
         9         8        23     1      106.408188      371.627475    ;  uncertainty theta = 0.002204, k = 0.064666
         9         8        24     1      106.408188      371.627507    ;  uncertainty theta = 0.002204, k = 0.064666
         9        11        13     1      122.804794      441.485547    ;  uncertainty theta = 0.004672, k = 0.249748
         9        11        18     1      121.438866      412.062807    ;  uncertainty theta = 0.005198, k = 0.133064
        10         9        11     1      123.140915      592.144597    ;  uncertainty theta = 0.002779, k = 0.174431
        11        13        12     1      120.890732      387.971672    ;  uncertainty theta = 0.004991, k = 0.176370
        11        13        14     1      121.572754      633.322739    ;  uncertainty theta = 0.003530, k = 0.305557
        11        18        17     1      122.948975      739.620701    ;  uncertainty theta = 0.005173, k = 0.216371
        11        18        31     1      118.912880      254.505386    ;  uncertainty theta = 0.006180, k = 0.118180
        12         7        22     1      106.669144      398.688735    ;  uncertainty theta = 0.002410, k = 0.023518
        12        13        14     1      120.806641      467.802879    ;  uncertainty theta = 0.002786, k = 0.134965
        13        11        18     1      119.284714      464.086304    ;  uncertainty theta = 0.005495, k = 0.318455
        13        12        25     1      107.310669      388.681891    ;  uncertainty theta = 0.001373, k = 0.069375
        13        12        26     1      107.310669      388.681891    ;  uncertainty theta = 0.001373, k = 0.069375
        13        14        15     1      115.026512      434.486751    ;  uncertainty theta = 0.006077, k = 0.313287
        14        15        16     1      124.615211      814.246136    ;  uncertainty theta = 0.008662, k = 0.110250
        14        15        17     1      127.455177      746.290930    ;  uncertainty theta = 0.006371, k = 0.090001
        15        16        27     1      118.918655      455.494599    ;  uncertainty theta = 0.002825, k = 0.029219
        15        16        28     1      118.918655      455.494599    ;  uncertainty theta = 0.002825, k = 0.029219
        15        17        18     1      115.646469      414.423489    ;  uncertainty theta = 0.008538, k = 0.206151
        16        15        17     1      124.821243      818.536689    ;  uncertainty theta = 0.006930, k = 0.132805
        17        18        31     1      118.687462      317.140956    ;  uncertainty theta = 0.003605, k = 0.024565
        23         8        24     1      106.215942      302.752838    ;  uncertainty theta = 0.002248, k = 0.039929
        25        12        26     1      105.670143      311.306716    ;  uncertainty theta = 0.002478, k = 0.062709
        27        16        28     1      107.607529      265.714724    ;  uncertainty theta = 0.002791, k = 0.046310

[ dihedrals ] ; propers for gromacs 4.5 or higher, use funct 9
;       ai        aj        ak        al funct           phase               k        pn
         1         2         3         6     9        0.000000       -0.073277         1    ;  uncertainty k = 0.123831
         1         2         3         6     9      180.000000       13.848189         2    ;  uncertainty k = 0.267380
         1         2         3         6     9        0.000000       -0.946778         3    ;  uncertainty k = 0.487270
         1         2         3         6     9      180.000000        0.696510         4    ;  uncertainty k = 0.266495
         1         2         3        29     9        0.000000        0.070311         1    ;  uncertainty k = 0.091515
         1         2         3        29     9      180.000000        7.938860         2    ;  uncertainty k = 0.321459
         1         2         3        29     9        0.000000        1.458497         3    ;  uncertainty k = 0.328845
         1         2         3        29     9      180.000000        1.859386         4    ;  uncertainty k = 0.174053
         1         4         5         6     9        0.000000       -0.073277         1    ;  uncertainty k = 0.123831
         1         4         5         6     9      180.000000       13.848189         2    ;  uncertainty k = 0.267380
         1         4         5         6     9        0.000000       -0.946778         3    ;  uncertainty k = 0.487270
         1         4         5         6     9      180.000000        0.696510         4    ;  uncertainty k = 0.266495
         1         4         5        21     9        0.000000        0.070311         1    ;  uncertainty k = 0.091515
         1         4         5        21     9      180.000000        7.938860         2    ;  uncertainty k = 0.321459
         1         4         5        21     9        0.000000        1.458497         3    ;  uncertainty k = 0.328845
         1         4         5        21     9      180.000000        1.859386         4    ;  uncertainty k = 0.174053
         2         1         4         5     9        0.000000        0.014590         1    ;  uncertainty k = 0.069898
         2         1         4         5     9      180.000000       15.054057         2    ;  uncertainty k = 0.262252
         2         1         4         5     9        0.000000       -1.263359         3    ;  uncertainty k = 0.512597
         2         1         4         5     9      180.000000        0.507708         4    ;  uncertainty k = 0.291442
         2         1         4        20     9        0.000000        0.068252         1    ;  uncertainty k = 0.045377
         2         1         4        20     9      180.000000        7.536449         2    ;  uncertainty k = 0.312435
         2         1         4        20     9        0.000000        1.439836         3    ;  uncertainty k = 0.333330
         2         1         4        20     9      180.000000        1.795916         4    ;  uncertainty k = 0.155449
         2         3         6         5     9        0.000000       -0.232643         1    ;  uncertainty k = 0.197944
         2         3         6         5     9      180.000000       11.847940         2    ;  uncertainty k = 0.346158
         2         3         6         5     9        0.000000       -0.422168         3    ;  uncertainty k = 0.301490
         2         3         6         5     9      180.000000        0.757947         4    ;  uncertainty k = 0.341204
         2         3         6         7     9        0.000000        0.216967         1    ;  uncertainty k = 0.239592
         2         3         6         7     9      180.000000        9.086670         2    ;  uncertainty k = 0.625257
         2         3         6         7     9        0.000000        1.405049         3    ;  uncertainty k = 0.461678
         2         3         6         7     9      180.000000        1.800023         4    ;  uncertainty k = 0.225383
         3         2         1         4     9        0.000000        0.014590         1    ;  uncertainty k = 0.069898
         3         2         1         4     9      180.000000       15.054057         2    ;  uncertainty k = 0.262252
         3         2         1         4     9        0.000000       -1.263359         3    ;  uncertainty k = 0.512597
         3         2         1         4     9      180.000000        0.507708         4    ;  uncertainty k = 0.291442
         3         2         1        30     9        0.000000        0.077868         1    ;  uncertainty k = 0.059306
         3         2         1        30     9      180.000000        7.569105         2    ;  uncertainty k = 0.291346
         3         2         1        30     9        0.000000        1.468935         3    ;  uncertainty k = 0.296966
         3         2         1        30     9      180.000000        1.810187         4    ;  uncertainty k = 0.177276
         3         6         5         4     9        0.000000       -0.232643         1    ;  uncertainty k = 0.197944
         3         6         5         4     9      180.000000       11.847940         2    ;  uncertainty k = 0.346158
         3         6         5         4     9        0.000000       -0.422168         3    ;  uncertainty k = 0.301490
         3         6         5         4     9      180.000000        0.757947         4    ;  uncertainty k = 0.341204
         3         6         5        21     9        0.000000        0.064387         1    ;  uncertainty k = 0.203549
         3         6         5        21     9      180.000000        7.248520         2    ;  uncertainty k = 0.398170
         3         6         5        21     9        0.000000        1.492216         3    ;  uncertainty k = 0.380036
         3         6         5        21     9      180.000000        1.629328         4    ;  uncertainty k = 0.179871
         3         6         7         8     9        0.000000       -0.575484         1    ;  uncertainty k = 0.368065
         3         6         7         8     9      180.000000        2.511532         2    ;  uncertainty k = 0.215108
         3         6         7         8     9        0.000000        0.291337         3    ;  uncertainty k = 0.102380
         3         6         7         8     9      180.000000        0.273804         4    ;  uncertainty k = 0.054288
         3         6         7        12     9        0.000000       -0.604942         1    ;  uncertainty k = 0.397653
         3         6         7        12     9      180.000000        2.500792         2    ;  uncertainty k = 0.163004
         3         6         7        12     9        0.000000        0.270271         3    ;  uncertainty k = 0.076529
         3         6         7        12     9      180.000000        0.272888         4    ;  uncertainty k = 0.049162
         3         6         7        22     9        0.000000       -0.303871         1    ;  uncertainty k = 0.285008
         3         6         7        22     9      180.000000        1.739451         2    ;  uncertainty k = 0.147275
         3         6         7        22     9        0.000000        0.486328         3    ;  uncertainty k = 0.119429
         3         6         7        22     9      180.000000        0.332416         4    ;  uncertainty k = 0.021162
         4         1         2        19     9        0.000000        0.068252         1    ;  uncertainty k = 0.045377
         4         1         2        19     9      180.000000        7.536449         2    ;  uncertainty k = 0.312435
         4         1         2        19     9        0.000000        1.439836         3    ;  uncertainty k = 0.333330
         4         1         2        19     9      180.000000        1.795916         4    ;  uncertainty k = 0.155449
         4         5         6         7     9        0.000000        0.216967         1    ;  uncertainty k = 0.239592
         4         5         6         7     9      180.000000        9.086670         2    ;  uncertainty k = 0.625257
         4         5         6         7     9        0.000000        1.405049         3    ;  uncertainty k = 0.461678
         4         5         6         7     9      180.000000        1.800023         4    ;  uncertainty k = 0.225383
         5         4         1        30     9        0.000000        0.077868         1    ;  uncertainty k = 0.059306
         5         4         1        30     9      180.000000        7.569105         2    ;  uncertainty k = 0.291346
         5         4         1        30     9        0.000000        1.468935         3    ;  uncertainty k = 0.296966
         5         4         1        30     9      180.000000        1.810187         4    ;  uncertainty k = 0.177276
         5         6         3        29     9        0.000000        0.064387         1    ;  uncertainty k = 0.203549
         5         6         3        29     9      180.000000        7.248520         2    ;  uncertainty k = 0.398170
         5         6         3        29     9        0.000000        1.492216         3    ;  uncertainty k = 0.380036
         5         6         3        29     9      180.000000        1.629328         4    ;  uncertainty k = 0.179871
         5         6         7         8     9        0.000000       -0.575484         1    ;  uncertainty k = 0.368065
         5         6         7         8     9      180.000000        2.511532         2    ;  uncertainty k = 0.215108
         5         6         7         8     9        0.000000        0.291337         3    ;  uncertainty k = 0.102380
         5         6         7         8     9      180.000000        0.273804         4    ;  uncertainty k = 0.054288
         5         6         7        12     9        0.000000       -0.604942         1    ;  uncertainty k = 0.397653
         5         6         7        12     9      180.000000        2.500792         2    ;  uncertainty k = 0.163004
         5         6         7        12     9        0.000000        0.270271         3    ;  uncertainty k = 0.076529
         5         6         7        12     9      180.000000        0.272888         4    ;  uncertainty k = 0.049162
         5         6         7        22     9        0.000000       -0.303871         1    ;  uncertainty k = 0.285008
         5         6         7        22     9      180.000000        1.739451         2    ;  uncertainty k = 0.147275
         5         6         7        22     9        0.000000        0.486328         3    ;  uncertainty k = 0.119429
         5         6         7        22     9      180.000000        0.332416         4    ;  uncertainty k = 0.021162
         6         3         2        19     9        0.000000        0.054191         1    ;  uncertainty k = 0.226874
         6         3         2        19     9      180.000000        7.361699         2    ;  uncertainty k = 0.355715
         6         3         2        19     9        0.000000        1.495941         3    ;  uncertainty k = 0.276495
         6         3         2        19     9      180.000000        1.832477         4    ;  uncertainty k = 0.163730
         6         5         4        20     9        0.000000        0.054191         1    ;  uncertainty k = 0.226874
         6         5         4        20     9      180.000000        7.361699         2    ;  uncertainty k = 0.355715
         6         5         4        20     9        0.000000        1.495941         3    ;  uncertainty k = 0.276495
         6         5         4        20     9      180.000000        1.832477         4    ;  uncertainty k = 0.163730
         6         7         8         9     9        0.000000       -1.953112         1    ;  uncertainty k = 0.893408
         6         7         8         9     9      180.000000        0.237824         2    ;  uncertainty k = 0.365339
         6         7         8         9     9        0.000000        0.710302         3    ;  uncertainty k = 0.233952
         6         7         8         9     9      180.000000       -0.091131         4    ;  uncertainty k = 0.122593
         6         7         8        23     9        0.000000        0.773369         1    ;  uncertainty k = 0.283953
         6         7         8        23     9      180.000000       -0.206990         2    ;  uncertainty k = 0.316718
         6         7         8        23     9        0.000000        0.826944         3    ;  uncertainty k = 0.068854
         6         7         8        23     9      180.000000       -0.027824         4    ;  uncertainty k = 0.084228
         6         7         8        24     9        0.000000        0.773369         1    ;  uncertainty k = 0.283953
         6         7         8        24     9      180.000000       -0.206990         2    ;  uncertainty k = 0.316718
         6         7         8        24     9        0.000000        0.826944         3    ;  uncertainty k = 0.068854
         6         7         8        24     9      180.000000       -0.027824         4    ;  uncertainty k = 0.084228
         6         7        12        13     9        0.000000       -2.036689         1    ;  uncertainty k = 0.622420
         6         7        12        13     9      180.000000        0.191939         2    ;  uncertainty k = 0.580231
         6         7        12        13     9        0.000000        1.033817         3    ;  uncertainty k = 0.172553
         6         7        12        13     9      180.000000        0.002068         4    ;  uncertainty k = 0.036820
         6         7        12        25     9        0.000000        0.733960         1    ;  uncertainty k = 0.202193
         6         7        12        25     9      180.000000       -0.097009         2    ;  uncertainty k = 0.278310
         6         7        12        25     9        0.000000        0.802936         3    ;  uncertainty k = 0.153080
         6         7        12        25     9      180.000000       -0.057919         4    ;  uncertainty k = 0.088748
         6         7        12        26     9        0.000000        0.733960         1    ;  uncertainty k = 0.202193
         6         7        12        26     9      180.000000       -0.097009         2    ;  uncertainty k = 0.278310
         6         7        12        26     9        0.000000        0.802936         3    ;  uncertainty k = 0.153080
         6         7        12        26     9      180.000000       -0.057919         4    ;  uncertainty k = 0.088748
         7         6         3        29     9        0.000000       -0.037597         1    ;  uncertainty k = 0.204026
         7         6         3        29     9      180.000000        7.960447         2    ;  uncertainty k = 0.225033
         7         6         3        29     9        0.000000        0.685183         3    ;  uncertainty k = 0.307908
         7         6         3        29     9      180.000000        0.950717         4    ;  uncertainty k = 0.137132
         7         6         5        21     9        0.000000       -0.037597         1    ;  uncertainty k = 0.204026
         7         6         5        21     9      180.000000        7.960447         2    ;  uncertainty k = 0.225033
         7         6         5        21     9        0.000000        0.685183         3    ;  uncertainty k = 0.307908
         7         6         5        21     9      180.000000        0.950717         4    ;  uncertainty k = 0.137132
         7         8         9        10     9        0.000000       -1.815112         1    ;  uncertainty k = 1.593692
         7         8         9        10     9      180.000000        4.364269         2    ;  uncertainty k = 0.872140
         7         8         9        10     9        0.000000        1.430057         3    ;  uncertainty k = 0.738196
         7         8         9        10     9      180.000000        0.482510         4    ;  uncertainty k = 0.365211
         7         8         9        11     9        0.000000       -3.693003         1    ;  uncertainty k = 1.984084
         7         8         9        11     9      180.000000        2.358518         2    ;  uncertainty k = 0.759059
         7         8         9        11     9        0.000000        0.293666         3    ;  uncertainty k = 0.327707
         7         8         9        11     9      180.000000        0.206523         4    ;  uncertainty k = 0.170602
         7        12        13        11     9        0.000000       -2.986339         1    ;  uncertainty k = 2.469727
         7        12        13        11     9      180.000000        3.092044         2    ;  uncertainty k = 0.900103
         7        12        13        11     9        0.000000       -0.007198         3    ;  uncertainty k = 0.294166
         7        12        13        11     9      180.000000        0.536083         4    ;  uncertainty k = 0.240817
         7        12        13        14     9        0.000000       -2.493745         1    ;  uncertainty k = 0.811820
         7        12        13        14     9      180.000000        3.207141         2    ;  uncertainty k = 0.598933
         7        12        13        14     9        0.000000        0.566785         3    ;  uncertainty k = 0.312404
         7        12        13        14     9      180.000000        0.422725         4    ;  uncertainty k = 0.168505
         8         7        12        13     9        0.000000        0.336152         1    ;  uncertainty k = 1.842850
         8         7        12        13     9      180.000000       -1.287158         2    ;  uncertainty k = 0.684512
         8         7        12        13     9        0.000000        0.740355         3    ;  uncertainty k = 0.214162
         8         7        12        13     9      180.000000       -0.384870         4    ;  uncertainty k = 0.129811
         8         7        12        25     9        0.000000       -0.725498         1    ;  uncertainty k = 0.162309
         8         7        12        25     9      180.000000       -0.514182         2    ;  uncertainty k = 0.277134
         8         7        12        25     9        0.000000        0.265372         3    ;  uncertainty k = 0.142653
         8         7        12        25     9      180.000000        0.059294         4    ;  uncertainty k = 0.096051
         8         7        12        26     9        0.000000       -0.725498         1    ;  uncertainty k = 0.162309
         8         7        12        26     9      180.000000       -0.514182         2    ;  uncertainty k = 0.277134
         8         7        12        26     9        0.000000        0.265372         3    ;  uncertainty k = 0.142653
         8         7        12        26     9      180.000000        0.059294         4    ;  uncertainty k = 0.096051
         8         9        11        13     9        0.000000        0.332040         1    ;  uncertainty k = 2.926738
         8         9        11        13     9      180.000000        0.521274         2    ;  uncertainty k = 0.310930
         8         9        11        13     9        0.000000       -0.272696         3    ;  uncertainty k = 0.231417
         8         9        11        13     9      180.000000        0.692467         4    ;  uncertainty k = 0.209964
         8         9        11        18     9        0.000000       -2.793454         1    ;  uncertainty k = 2.136322
         8         9        11        18     9      180.000000        1.697080         2    ;  uncertainty k = 1.216400
         8         9        11        18     9        0.000000        0.066722         3    ;  uncertainty k = 0.388168
         8         9        11        18     9      180.000000        0.399284         4    ;  uncertainty k = 0.198855
         9         8         7        12     9        0.000000       -0.343637         1    ;  uncertainty k = 2.821685
         9         8         7        12     9      180.000000       -0.880727         2    ;  uncertainty k = 0.781844
         9         8         7        12     9        0.000000        0.406085         3    ;  uncertainty k = 0.292515
         9         8         7        12     9      180.000000       -0.309645         4    ;  uncertainty k = 0.391960
         9         8         7        22     9        0.000000       -1.913236         1    ;  uncertainty k = 0.719439
         9         8         7        22     9      180.000000        0.027491         2    ;  uncertainty k = 0.493672
         9         8         7        22     9        0.000000        0.235864         3    ;  uncertainty k = 0.130004
         9         8         7        22     9      180.000000       -0.005379         4    ;  uncertainty k = 0.036267
         9        11        13        12     9        0.000000       -0.839396         1    ;  uncertainty k = 0.751376
         9        11        13        12     9      180.000000        3.993883         2    ;  uncertainty k = 1.160955
         9        11        13        12     9        0.000000        0.889788         3    ;  uncertainty k = 0.420013
         9        11        13        12     9      180.000000        1.166160         4    ;  uncertainty k = 0.243849
         9        11        13        14     9        0.000000        0.034488         1    ;  uncertainty k = 0.968736
         9        11        13        14     9      180.000000        6.726317         2    ;  uncertainty k = 0.897336
         9        11        13        14     9        0.000000        0.830310         3    ;  uncertainty k = 0.232578
         9        11        13        14     9      180.000000        1.610358         4    ;  uncertainty k = 0.338587
         9        11        18        17     9        0.000000        0.002599         1    ;  uncertainty k = 0.658646
         9        11        18        17     9      180.000000        8.591088         2    ;  uncertainty k = 0.430425
         9        11        18        17     9        0.000000        0.941384         3    ;  uncertainty k = 0.377406
         9        11        18        17     9      180.000000        1.760920         4    ;  uncertainty k = 0.395576
         9        11        18        31     9        0.000000       -0.873588         1    ;  uncertainty k = 0.745132
         9        11        18        31     9      180.000000        5.828322         2    ;  uncertainty k = 0.700670
         9        11        18        31     9        0.000000        0.704980         3    ;  uncertainty k = 0.305605
         9        11        18        31     9      180.000000        1.162141         4    ;  uncertainty k = 0.096422
        10         9         8        23     9        0.000000        2.612707         1    ;  uncertainty k = 1.034468
        10         9         8        23     9      180.000000        5.058704         2    ;  uncertainty k = 0.377616
        10         9         8        23     9        0.000000        0.404917         3    ;  uncertainty k = 0.254137
        10         9         8        23     9      180.000000        0.159048         4    ;  uncertainty k = 0.137767
        10         9         8        24     9        0.000000        2.612707         1    ;  uncertainty k = 1.034468
        10         9         8        24     9      180.000000        5.058704         2    ;  uncertainty k = 0.377616
        10         9         8        24     9        0.000000        0.404917         3    ;  uncertainty k = 0.254137
        10         9         8        24     9      180.000000        0.159048         4    ;  uncertainty k = 0.137767
        10         9        11        13     9        0.000000       -1.269625         1    ;  uncertainty k = 1.806224
        10         9        11        13     9      180.000000        6.008442         2    ;  uncertainty k = 1.156386
        10         9        11        13     9        0.000000        0.256826         3    ;  uncertainty k = 0.249017
        10         9        11        13     9      180.000000       -0.101522         4    ;  uncertainty k = 0.281600
        10         9        11        18     9        0.000000       -2.380742         1    ;  uncertainty k = 1.172100
        10         9        11        18     9      180.000000        5.446318         2    ;  uncertainty k = 1.027315
        10         9        11        18     9        0.000000        0.512377         3    ;  uncertainty k = 0.206032
        10         9        11        18     9      180.000000       -0.319551         4    ;  uncertainty k = 0.238867
        11         9         8        23     9        0.000000       -2.790865         1    ;  uncertainty k = 1.165260
        11         9         8        23     9      180.000000        2.600930         2    ;  uncertainty k = 0.925291
        11         9         8        23     9        0.000000        0.549771         3    ;  uncertainty k = 0.200161
        11         9         8        23     9      180.000000        0.053087         4    ;  uncertainty k = 0.131331
        11         9         8        24     9        0.000000       -2.790865         1    ;  uncertainty k = 1.165260
        11         9         8        24     9      180.000000        2.600930         2    ;  uncertainty k = 0.925291
        11         9         8        24     9        0.000000        0.549771         3    ;  uncertainty k = 0.200161
        11         9         8        24     9      180.000000        0.053087         4    ;  uncertainty k = 0.131331
        11        13        12        25     9        0.000000       -1.167229         1    ;  uncertainty k = 0.822764
        11        13        12        25     9      180.000000        2.919853         2    ;  uncertainty k = 0.439556
        11        13        12        25     9        0.000000        0.616994         3    ;  uncertainty k = 0.199888
        11        13        12        25     9      180.000000        0.166235         4    ;  uncertainty k = 0.066675
        11        13        12        26     9        0.000000       -1.167229         1    ;  uncertainty k = 0.822764
        11        13        12        26     9      180.000000        2.919853         2    ;  uncertainty k = 0.439556
        11        13        12        26     9        0.000000        0.616994         3    ;  uncertainty k = 0.199888
        11        13        12        26     9      180.000000        0.166235         4    ;  uncertainty k = 0.066675
        11        13        14        15     9        0.000000       -0.665564         1    ;  uncertainty k = 0.997789
        11        13        14        15     9      180.000000       14.792413         2    ;  uncertainty k = 0.421131
        11        13        14        15     9        0.000000        0.099604         3    ;  uncertainty k = 0.979757
        11        13        14        15     9      180.000000        1.502547         4    ;  uncertainty k = 0.304663
        11        18        17        15     9        0.000000       -1.087967         1    ;  uncertainty k = 1.174392
        11        18        17        15     9      180.000000       16.422989         2    ;  uncertainty k = 0.500100
        11        18        17        15     9        0.000000       -0.144206         3    ;  uncertainty k = 0.729699
        11        18        17        15     9      180.000000        1.565802         4    ;  uncertainty k = 0.553152
        12         7         8        23     9        0.000000       -0.789750         1    ;  uncertainty k = 0.326052
        12         7         8        23     9      180.000000       -0.640318         2    ;  uncertainty k = 0.204355
        12         7         8        23     9        0.000000        0.280941         3    ;  uncertainty k = 0.081288
        12         7         8        23     9      180.000000        0.035028         4    ;  uncertainty k = 0.078550
        12         7         8        24     9        0.000000       -0.789750         1    ;  uncertainty k = 0.326052
        12         7         8        24     9      180.000000       -0.640318         2    ;  uncertainty k = 0.204355
        12         7         8        24     9        0.000000        0.280941         3    ;  uncertainty k = 0.081288
        12         7         8        24     9      180.000000        0.035028         4    ;  uncertainty k = 0.078550
        12        13        11        18     9        0.000000       -0.312611         1    ;  uncertainty k = 0.469089
        12        13        11        18     9      180.000000        4.761541         2    ;  uncertainty k = 1.006792
        12        13        11        18     9        0.000000        0.715844         3    ;  uncertainty k = 0.269895
        12        13        11        18     9      180.000000        1.217715         4    ;  uncertainty k = 0.411256
        12        13        14        15     9        0.000000        0.477286         1    ;  uncertainty k = 1.360139
        12        13        14        15     9      180.000000       16.653094         2    ;  uncertainty k = 0.688519
        12        13        14        15     9        0.000000        1.468400         3    ;  uncertainty k = 0.672123
        12        13        14        15     9      180.000000        1.343168         4    ;  uncertainty k = 0.456800
        13        11        18        17     9        0.000000        0.015023         1    ;  uncertainty k = 0.606477
        13        11        18        17     9      180.000000       11.493621         2    ;  uncertainty k = 0.638297
        13        11        18        17     9        0.000000       -0.750793         3    ;  uncertainty k = 0.452186
        13        11        18        17     9      180.000000        0.972959         4    ;  uncertainty k = 0.283149
        13        11        18        31     9        0.000000       -0.689562         1    ;  uncertainty k = 0.899005
        13        11        18        31     9      180.000000        5.420093         2    ;  uncertainty k = 1.336662
        13        11        18        31     9        0.000000        0.718269         3    ;  uncertainty k = 0.142265
        13        11        18        31     9      180.000000        1.185339         4    ;  uncertainty k = 0.239934
        13        12         7        22     9        0.000000       -0.717905         1    ;  uncertainty k = 0.396852
        13        12         7        22     9      180.000000       -0.120068         2    ;  uncertainty k = 0.327102
        13        12         7        22     9        0.000000        0.513329         3    ;  uncertainty k = 0.232256
        13        12         7        22     9      180.000000        0.027146         4    ;  uncertainty k = 0.057340
        13        14        15        16     9        0.000000        1.249627         1    ;  uncertainty k = 1.346136
        13        14        15        16     9      180.000000        9.519856         2    ;  uncertainty k = 0.658095
        13        14        15        16     9        0.000000        2.207408         3    ;  uncertainty k = 0.479930
        13        14        15        16     9      180.000000        0.964428         4    ;  uncertainty k = 0.200767
        13        14        15        17     9        0.000000        0.362643         1    ;  uncertainty k = 1.988849
        13        14        15        17     9      180.000000        6.883464         2    ;  uncertainty k = 1.102453
        13        14        15        17     9        0.000000        0.912363         3    ;  uncertainty k = 0.365098
        13        14        15        17     9      180.000000        0.671694         4    ;  uncertainty k = 0.159065
        14        13        11        18     9        0.000000        0.081436         1    ;  uncertainty k = 0.424743
        14        13        11        18     9      180.000000        8.665826         2    ;  uncertainty k = 0.967926
        14        13        11        18     9        0.000000       -0.426152         3    ;  uncertainty k = 0.517470
        14        13        11        18     9      180.000000        1.317782         4    ;  uncertainty k = 0.216549
        14        13        12        25     9        0.000000        1.939240         1    ;  uncertainty k = 0.998143
        14        13        12        25     9      180.000000        3.632907         2    ;  uncertainty k = 0.421748
        14        13        12        25     9        0.000000        0.318789         3    ;  uncertainty k = 0.266638
        14        13        12        25     9      180.000000        0.231202         4    ;  uncertainty k = 0.102015
        14        13        12        26     9        0.000000        1.939240         1    ;  uncertainty k = 0.998143
        14        13        12        26     9      180.000000        3.632907         2    ;  uncertainty k = 0.421748
        14        13        12        26     9        0.000000        0.318789         3    ;  uncertainty k = 0.266638
        14        13        12        26     9      180.000000        0.231202         4    ;  uncertainty k = 0.102015
        14        15        16        27     9        0.000000       20.476249         1    ;  uncertainty k = 0.247999
        14        15        16        27     9      180.000000       12.085200         2    ;  uncertainty k = 0.264849
        14        15        16        27     9        0.000000        1.011495         3    ;  uncertainty k = 0.276279
        14        15        16        27     9      180.000000       -0.534028         4    ;  uncertainty k = 0.197446
        14        15        16        28     9        0.000000       20.476249         1    ;  uncertainty k = 0.247999
        14        15        16        28     9      180.000000       12.085200         2    ;  uncertainty k = 0.264849
        14        15        16        28     9        0.000000        1.011495         3    ;  uncertainty k = 0.276279
        14        15        16        28     9      180.000000       -0.534028         4    ;  uncertainty k = 0.197446
        14        15        17        18     9        0.000000        0.203795         1    ;  uncertainty k = 1.407507
        14        15        17        18     9      180.000000        7.187698         2    ;  uncertainty k = 0.898573
        14        15        17        18     9        0.000000        0.703153         3    ;  uncertainty k = 0.473742
        14        15        17        18     9      180.000000        0.685649         4    ;  uncertainty k = 0.147660
        15        17        18        31     9        0.000000        0.081604         1    ;  uncertainty k = 1.010794
        15        17        18        31     9      180.000000       16.956571         2    ;  uncertainty k = 0.710938
        15        17        18        31     9        0.000000        1.125422         3    ;  uncertainty k = 1.011399
        15        17        18        31     9      180.000000        1.226960         4    ;  uncertainty k = 0.341967
        16        15        17        18     9        0.000000        0.803910         1    ;  uncertainty k = 1.351913
        16        15        17        18     9      180.000000        8.763759         2    ;  uncertainty k = 0.246277
        16        15        17        18     9        0.000000        2.029238         3    ;  uncertainty k = 0.535856
        16        15        17        18     9      180.000000        0.943066         4    ;  uncertainty k = 0.267829
        17        15        16        27     9        0.000000       20.749703         1    ;  uncertainty k = 0.429473
        17        15        16        27     9      180.000000       12.287619         2    ;  uncertainty k = 0.250421
        17        15        16        27     9        0.000000        1.011858         3    ;  uncertainty k = 0.154907
        17        15        16        27     9      180.000000       -0.539998         4    ;  uncertainty k = 0.190311
        17        15        16        28     9        0.000000       20.749703         1    ;  uncertainty k = 0.429473
        17        15        16        28     9      180.000000       12.287619         2    ;  uncertainty k = 0.250421
        17        15        16        28     9        0.000000        1.011858         3    ;  uncertainty k = 0.154907
        17        15        16        28     9      180.000000       -0.539998         4    ;  uncertainty k = 0.190311
        19         2         1        30     9        0.000000       -0.026706         1    ;  uncertainty k = 0.106680
        19         2         1        30     9      180.000000        7.552187         2    ;  uncertainty k = 0.400288
        19         2         1        30     9        0.000000       -0.423107         3    ;  uncertainty k = 0.278478
        19         2         1        30     9      180.000000        0.040208         4    ;  uncertainty k = 0.143255
        19         2         3        29     9        0.000000       -0.010151         1    ;  uncertainty k = 0.055407
        19         2         3        29     9      180.000000        7.712611         2    ;  uncertainty k = 0.236194
        19         2         3        29     9        0.000000       -0.463444         3    ;  uncertainty k = 0.261382
        19         2         3        29     9      180.000000        0.110164         4    ;  uncertainty k = 0.102630
        20         4         1        30     9        0.000000       -0.026706         1    ;  uncertainty k = 0.106680
        20         4         1        30     9      180.000000        7.552187         2    ;  uncertainty k = 0.400288
        20         4         1        30     9        0.000000       -0.423107         3    ;  uncertainty k = 0.278478
        20         4         1        30     9      180.000000        0.040208         4    ;  uncertainty k = 0.143255
        20         4         5        21     9        0.000000       -0.010151         1    ;  uncertainty k = 0.055407
        20         4         5        21     9      180.000000        7.712611         2    ;  uncertainty k = 0.236194
        20         4         5        21     9        0.000000       -0.463444         3    ;  uncertainty k = 0.261382
        20         4         5        21     9      180.000000        0.110164         4    ;  uncertainty k = 0.102630
        22         7         8        23     9        0.000000        1.023775         1    ;  uncertainty k = 0.274736
        22         7         8        23     9      180.000000       -0.112597         2    ;  uncertainty k = 0.123579
        22         7         8        23     9        0.000000        0.084178         3    ;  uncertainty k = 0.127415
        22         7         8        23     9      180.000000        0.059236         4    ;  uncertainty k = 0.057727
        22         7         8        24     9        0.000000        1.023775         1    ;  uncertainty k = 0.274736
        22         7         8        24     9      180.000000       -0.112597         2    ;  uncertainty k = 0.123579
        22         7         8        24     9        0.000000        0.084178         3    ;  uncertainty k = 0.127415
        22         7         8        24     9      180.000000        0.059236         4    ;  uncertainty k = 0.057727
        22         7        12        25     9        0.000000        0.967096         1    ;  uncertainty k = 0.332630
        22         7        12        25     9      180.000000       -0.164455         2    ;  uncertainty k = 0.391242
        22         7        12        25     9        0.000000        0.099061         3    ;  uncertainty k = 0.081069
        22         7        12        25     9      180.000000        0.093050         4    ;  uncertainty k = 0.076966
        22         7        12        26     9        0.000000        0.967096         1    ;  uncertainty k = 0.332630
        22         7        12        26     9      180.000000       -0.164455         2    ;  uncertainty k = 0.391242
        22         7        12        26     9        0.000000        0.099061         3    ;  uncertainty k = 0.081069
        22         7        12        26     9      180.000000        0.093050         4    ;  uncertainty k = 0.076966

[ dihedrals ] ; impropers
;       ai        aj        ak        al funct           phase               k        pn
         1         2         4        30     4      180.000000        4.111503         2    ;  uncertainty k = 0.177195
         1         4        30         2     4      180.000000        4.111503         2    ;  uncertainty k = 0.177195
         1        30         2         4     4      180.000000        4.111503         2    ;  uncertainty k = 0.177195
         2         1         3        19     4      180.000000        4.175386         2    ;  uncertainty k = 0.076667
         2         3        19         1     4      180.000000        4.175386         2    ;  uncertainty k = 0.076667
         2        19         1         3     4      180.000000        4.175386         2    ;  uncertainty k = 0.076667
         3         2         6        29     4      180.000000        4.087112         2    ;  uncertainty k = 0.120009
         3         6        29         2     4      180.000000        4.087112         2    ;  uncertainty k = 0.120009
         3        29         2         6     4      180.000000        4.087112         2    ;  uncertainty k = 0.120009
         4         1         5        20     4      180.000000        4.175386         2    ;  uncertainty k = 0.076667
         4         5        20         1     4      180.000000        4.175386         2    ;  uncertainty k = 0.076667
         4        20         1         5     4      180.000000        4.175386         2    ;  uncertainty k = 0.076667
         5         4         6        21     4      180.000000        4.087114         2    ;  uncertainty k = 0.120009
         5         6        21         4     4      180.000000        4.087114         2    ;  uncertainty k = 0.120009
         5        21         4         6     4      180.000000        4.087114         2    ;  uncertainty k = 0.120009
         6         3         5         7     4      180.000000       13.891536         2    ;  uncertainty k = 0.086586
         6         5         7         3     4      180.000000       13.891536         2    ;  uncertainty k = 0.086586
         6         7         3         5     4      180.000000       13.891536         2    ;  uncertainty k = 0.086586
         9         8        10        11     4      180.000000       56.716925         2    ;  uncertainty k = 0.036239
         9        10        11         8     4      180.000000       56.716925         2    ;  uncertainty k = 0.036239
         9        11         8        10     4      180.000000       56.716925         2    ;  uncertainty k = 0.036239
        11         9        13        18     4      180.000000        4.881222         2    ;  uncertainty k = 0.641089
        11        13        18         9     4      180.000000        4.881222         2    ;  uncertainty k = 0.641089
        11        18         9        13     4      180.000000        4.881222         2    ;  uncertainty k = 0.641089
        13        11        12        14     4      180.000000       32.083875         2    ;  uncertainty k = 0.063702
        13        12        14        11     4      180.000000       32.083875         2    ;  uncertainty k = 0.063702
        13        14        11        12     4      180.000000       32.083875         2    ;  uncertainty k = 0.063702
        15        14        16        17     4      180.000000       48.111989         2    ;  uncertainty k = 0.072087
        15        16        17        14     4      180.000000       48.111989         2    ;  uncertainty k = 0.072087
        15        17        14        16     4      180.000000       48.111989         2    ;  uncertainty k = 0.072087
        16        15        27        28     4      180.000000        0.337878         2    ;  uncertainty k = 0.461885
        16        27        28        15     4      180.000000        0.337878         2    ;  uncertainty k = 0.461885
        16        28        15        27     4      180.000000        0.337878         2    ;  uncertainty k = 0.461885
        18        11        17        31     4      180.000000       19.394260         2    ;  uncertainty k = 0.101328
        18        17        31        11     4      180.000000       19.394260         2    ;  uncertainty k = 0.101328
        18        31        11        17     4      180.000000       19.394260         2    ;  uncertainty k = 0.101328

[ pairs ]
;       ai        aj funct
         1         6     1
         1        21     1
         1        29     1
         2         5     1
         2         7     1
         2        20     1
         3         4     1
         3         8     1
         3        12     1
         3        21     1
         3        22     1
         3        30     1
         4         7     1
         4        19     1
         5         8     1
         5        12     1
         5        22     1
         5        29     1
         5        30     1
         6         9     1
         6        13     1
         6        19     1
         6        20     1
         6        23     1
         6        24     1
         6        25     1
         6        26     1
         7        10     1
         7        11     1
         7        14     1
         7        21     1
         7        29     1
         8        13     1
         8        18     1
         8        25     1
         8        26     1
         9        12     1
         9        14     1
         9        17     1
         9        22     1
         9        31     1
        10        13     1
        10        18     1
        10        23     1
        10        24     1
        11        15     1
        11        23     1
        11        24     1
        11        25     1
        11        26     1
        12        15     1
        12        18     1
        12        23     1
        12        24     1
        13        16     1
        13        17     1
        13        22     1
        13        31     1
        14        18     1
        14        25     1
        14        26     1
        14        27     1
        14        28     1
        15        31     1
        16        18     1
        17        27     1
        17        28     1
        19        29     1
        19        30     1
        20        21     1
        20        30     1
        22        23     1
        22        24     1
        22        25     1
        22        26     1
