; ITP file created by ByteFF-joint-25, 2025-07-14 11:27:51.752494

[ atomtypes ]
;name           bonded.type        at.num        mass        charge   ptype           sigma         epsilon
 c0bf                                   6      0.0000       0.00000       A     3.31518e-01     4.13340e-01    ;  uncertainty sigma = 0.000003, epsilon = 0.000580
 c1bf                                   6      0.0000       0.00000       A     3.31519e-01     4.13335e-01    ;  uncertainty sigma = 0.000003, epsilon = 0.000623
 c2bf                                   6      0.0000       0.00000       A     3.31515e-01     4.13328e-01    ;  uncertainty sigma = 0.000004, epsilon = 0.000482
 c3bf                                   6      0.0000       0.00000       A     3.31519e-01     4.13335e-01    ;  uncertainty sigma = 0.000003, epsilon = 0.000623
 c4bf                                   6      0.0000       0.00000       A     3.31515e-01     4.13328e-01    ;  uncertainty sigma = 0.000004, epsilon = 0.000482
 c5bf                                   6      0.0000       0.00000       A     3.31541e-01     4.13095e-01    ;  uncertainty sigma = 0.000004, epsilon = 0.000663
 c6bf                                   6      0.0000       0.00000       A     3.39808e-01     4.50393e-01    ;  uncertainty sigma = 0.000011, epsilon = 0.000765
 c7bf                                   6      0.0000       0.00000       A     3.39784e-01     4.50700e-01    ;  uncertainty sigma = 0.000015, epsilon = 0.000684
 c8bf                                   6      0.0000       0.00000       A     3.31462e-01     4.13176e-01    ;  uncertainty sigma = 0.000047, epsilon = 0.001833
 n9bf                                   7      0.0000       0.00000       A     3.38388e-01     3.93364e-01    ;  uncertainty sigma = 0.000042, epsilon = 0.002395
 o10bf                                  8      0.0000       0.00000       A     3.24285e-01     3.88037e-01    ;  uncertainty sigma = 0.000023, epsilon = 0.001869
 c11bf                                  6      0.0000       0.00000       A     3.31558e-01     4.12915e-01    ;  uncertainty sigma = 0.000022, epsilon = 0.001008
 c12bf                                  6      0.0000       0.00000       A     3.39765e-01     4.50886e-01    ;  uncertainty sigma = 0.000013, epsilon = 0.000884
 c13bf                                  6      0.0000       0.00000       A     3.31558e-01     4.13094e-01    ;  uncertainty sigma = 0.000016, epsilon = 0.000723
 n14bf                                  7      0.0000       0.00000       A     3.38426e-01     3.93147e-01    ;  uncertainty sigma = 0.000037, epsilon = 0.001714
 c15bf                                  6      0.0000       0.00000       A     3.31531e-01     4.13128e-01    ;  uncertainty sigma = 0.000018, epsilon = 0.001137
 n16bf                                  7      0.0000       0.00000       A     3.36868e-01     4.69648e-01    ;  uncertainty sigma = 0.000038, epsilon = 0.001840
 n17bf                                  7      0.0000       0.00000       A     3.38457e-01     3.93858e-01    ;  uncertainty sigma = 0.000020, epsilon = 0.000824
 c18bf                                  6      0.0000       0.00000       A     3.31502e-01     4.13464e-01    ;  uncertainty sigma = 0.000021, epsilon = 0.000666
 h19bf                                  1      0.0000       0.00000       A     2.62559e-01     6.70250e-02    ;  uncertainty sigma = 0.000010, epsilon = 0.000440
 h20bf                                  1      0.0000       0.00000       A     2.62559e-01     6.70250e-02    ;  uncertainty sigma = 0.000010, epsilon = 0.000440
 h21bf                                  1      0.0000       0.00000       A     2.62557e-01     6.70341e-02    ;  uncertainty sigma = 0.000010, epsilon = 0.000442
 h22bf                                  1      0.0000       0.00000       A     2.60064e-01     8.72129e-02    ;  uncertainty sigma = 0.000042, epsilon = 0.000636
 h23bf                                  1      0.0000       0.00000       A     2.59998e-01     8.66362e-02    ;  uncertainty sigma = 0.000030, epsilon = 0.000898
 h24bf                                  1      0.0000       0.00000       A     2.59998e-01     8.66362e-02    ;  uncertainty sigma = 0.000030, epsilon = 0.000898
 h25bf                                  1      0.0000       0.00000       A     5.38150e-02     1.95465e-02    ;  uncertainty sigma = 0.000051, epsilon = 0.001777
 h26bf                                  1      0.0000       0.00000       A     2.60043e-01     8.67081e-02    ;  uncertainty sigma = 0.000017, epsilon = 0.001169
 h27bf                                  1      0.0000       0.00000       A     2.60043e-01     8.67081e-02    ;  uncertainty sigma = 0.000017, epsilon = 0.001169
 h28bf                                  1      0.0000       0.00000       A     1.10707e-01     4.06772e-02    ;  uncertainty sigma = 0.000046, epsilon = 0.001139
 h29bf                                  1      0.0000       0.00000       A     1.10707e-01     4.06772e-02    ;  uncertainty sigma = 0.000046, epsilon = 0.001139
 h30bf                                  1      0.0000       0.00000       A     2.62557e-01     6.70341e-02    ;  uncertainty sigma = 0.000010, epsilon = 0.000442
 h31bf                                  1      0.0000       0.00000       A     2.53573e-01     6.76295e-02    ;  uncertainty sigma = 0.000028, epsilon = 0.000791
 h32bf                                  1      0.0000       0.00000       A     2.62552e-01     6.70647e-02    ;  uncertainty sigma = 0.000011, epsilon = 0.000453

[ moleculetype ]
;name             nrexcl
 MOL                   3

[ atoms ]
;       nr            type      resi   res      atom      cgnr      charge          mass ; qtot
         1            c0bf         1   UNL        c0         1    -0.12820       12.0110 ; qtot   -0.128
         2            c1bf         1   UNL        c1         2    -0.12869       12.0110 ; qtot   -0.257
         3            c2bf         1   UNL        c2         3    -0.12336       12.0110 ; qtot   -0.380
         4            c3bf         1   UNL        c3         4    -0.12869       12.0110 ; qtot   -0.509
         5            c4bf         1   UNL        c4         5    -0.12336       12.0110 ; qtot   -0.632
         6            c5bf         1   UNL        c5         6    -0.08533       12.0110 ; qtot   -0.718
         7            c6bf         1   UNL        c6         7    -0.00745       12.0110 ; qtot   -0.725
         8            c7bf         1   UNL        c7         8    -0.12517       12.0110 ; qtot   -0.850
         9            c8bf         1   UNL        c8         9     0.44108       12.0110 ; qtot   -0.409
        10            n9bf         1   UNL        n9        10    -0.42277       14.0070 ; qtot   -0.832
        11           o10bf         1   UNL       o10        11    -0.38446       15.9990 ; qtot   -1.216
        12           c11bf         1   UNL       c11        12    -0.45076       12.0110 ; qtot   -1.667
        13           c12bf         1   UNL       c12        13    -0.13275       12.0110 ; qtot   -1.800
        14           c13bf         1   UNL       c13        14     0.51261       12.0110 ; qtot   -1.287
        15           n14bf         1   UNL       n14        15    -0.77404       14.0070 ; qtot   -2.061
        16           c15bf         1   UNL       c15        16     0.88921       12.0110 ; qtot   -1.172
        17           n16bf         1   UNL       n16        17    -0.92787       14.0070 ; qtot   -2.100
        18           n17bf         1   UNL       n17        18    -0.75674       14.0070 ; qtot   -2.857
        19           c18bf         1   UNL       c18        19     0.51719       12.0110 ; qtot   -2.340
        20           h19bf         1   UNL       h19        20     0.13115        1.0080 ; qtot   -2.208
        21           h20bf         1   UNL       h20        21     0.13115        1.0080 ; qtot   -2.077
        22           h21bf         1   UNL       h21        22     0.13107        1.0080 ; qtot   -1.946
        23           h22bf         1   UNL       h22        23     0.06079        1.0080 ; qtot   -1.885
        24           h23bf         1   UNL       h23        24     0.07378        1.0080 ; qtot   -1.812
        25           h24bf         1   UNL       h24        25     0.07378        1.0080 ; qtot   -1.738
        26           h25bf         1   UNL       h25        26     0.42538        1.0080 ; qtot   -1.312
        27           h26bf         1   UNL       h26        27     0.07515        1.0080 ; qtot   -1.237
        28           h27bf         1   UNL       h27        28     0.07515        1.0080 ; qtot   -1.162
        29           h28bf         1   UNL       h28        29     0.42693        1.0080 ; qtot   -0.735
        30           h29bf         1   UNL       h29        30     0.42693        1.0080 ; qtot   -0.308
        31           h30bf         1   UNL       h30        31     0.13107        1.0080 ; qtot   -0.177
        32           h31bf         1   UNL       h31        32     0.04350        1.0080 ; qtot   -0.134
        33           h32bf         1   UNL       h32        33     0.13372        1.0080 ; qtot   -0.000

[ bonds ]
;       ai        aj funct               r               k
         1         2     1        0.139612   371119.369922    ;  uncertainty r = 0.000019, k = 0.826893
         1         4     1        0.139612   371119.369922    ;  uncertainty r = 0.000019, k = 0.826893
         1        33     1        0.108841   334518.920801    ;  uncertainty r = 0.000012, k = 0.635578
         2         3     1        0.139656   366457.238623    ;  uncertainty r = 0.000018, k = 1.535065
         2        20     1        0.108846   333964.254785    ;  uncertainty r = 0.000006, k = 0.745329
         3         6     1        0.139937   350084.401855    ;  uncertainty r = 0.000031, k = 1.494792
         3        31     1        0.108904   335008.543799    ;  uncertainty r = 0.000023, k = 0.789530
         4         5     1        0.139656   366457.238623    ;  uncertainty r = 0.000018, k = 1.535065
         4        21     1        0.108846   333964.254785    ;  uncertainty r = 0.000006, k = 0.745329
         5         6     1        0.139937   350084.401855    ;  uncertainty r = 0.000031, k = 1.494792
         5        22     1        0.108904   335008.543799    ;  uncertainty r = 0.000023, k = 0.789530
         6         7     1        0.151409   222160.031934    ;  uncertainty r = 0.000058, k = 6.813401
         7         8     1        0.153853   198135.485547    ;  uncertainty r = 0.000076, k = 9.705563
         7        13     1        0.153679   199567.542798    ;  uncertainty r = 0.000086, k = 9.603953
         7        23     1        0.109654   302265.883643    ;  uncertainty r = 0.000036, k = 4.272317
         8         9     1        0.150908   224263.115039    ;  uncertainty r = 0.000158, k = 24.837568
         8        24     1        0.109622   310487.990137    ;  uncertainty r = 0.000030, k = 1.893283
         8        25     1        0.109622   310487.990137    ;  uncertainty r = 0.000030, k = 1.893283
         9        10     1        0.128594   543382.137402    ;  uncertainty r = 0.000103, k = 14.862596
         9        12     1        0.147256   275661.935986    ;  uncertainty r = 0.000107, k = 43.543197
        10        11     1        0.140074   319960.904248    ;  uncertainty r = 0.000204, k = 25.508082
        11        26     1        0.097177   448930.942188    ;  uncertainty r = 0.000095, k = 7.665798
        12        14     1        0.141501   418011.350732    ;  uncertainty r = 0.000195, k = 17.856549
        12        19     1        0.141179   421730.166748    ;  uncertainty r = 0.000122, k = 14.523871
        13        14     1        0.150681   234435.567188    ;  uncertainty r = 0.000110, k = 11.046896
        13        27     1        0.109640   310115.914453    ;  uncertainty r = 0.000022, k = 2.596545
        13        28     1        0.109640   310115.914453    ;  uncertainty r = 0.000022, k = 2.596545
        14        15     1        0.134017   427053.734717    ;  uncertainty r = 0.000115, k = 16.882425
        15        16     1        0.136316   613827.121875    ;  uncertainty r = 0.000194, k = 17.124932
        16        17     1        0.139782   696744.175195    ;  uncertainty r = 0.000198, k = 11.556484
        16        18     1        0.136832   581630.649414    ;  uncertainty r = 0.000159, k = 14.385658
        17        29     1        0.102280   439973.290332    ;  uncertainty r = 0.000017, k = 2.625454
        17        30     1        0.102280   439973.290332    ;  uncertainty r = 0.000017, k = 2.625452
        18        19     1        0.133452   423305.780859    ;  uncertainty r = 0.000089, k = 3.408555
        19        32     1        0.108652   327898.169824    ;  uncertainty r = 0.000101, k = 4.662893

[ angles ]
;       ai        aj        ak funct           theta             cth
         1         2         3     1      119.689491      516.474566    ;  uncertainty theta = 0.001139, k = 0.025855
         1         2        20     1      120.607300      287.955073    ;  uncertainty theta = 0.001231, k = 0.015100
         1         4         5     1      119.689491      516.474566    ;  uncertainty theta = 0.001139, k = 0.025855
         1         4        21     1      120.607300      287.955073    ;  uncertainty theta = 0.001231, k = 0.015100
         2         1         4     1      118.185890      527.569610    ;  uncertainty theta = 0.000765, k = 0.014715
         2         1        33     1      120.694115      289.057286    ;  uncertainty theta = 0.001403, k = 0.014033
         2         3         6     1      121.225876      521.426659    ;  uncertainty theta = 0.002400, k = 0.046191
         2         3        31     1      120.065941      293.604679    ;  uncertainty theta = 0.001483, k = 0.020484
         3         2        20     1      120.215477      284.572427    ;  uncertainty theta = 0.001172, k = 0.028441
         3         6         5     1      119.958511      467.727480    ;  uncertainty theta = 0.003254, k = 0.129974
         3         6         7     1      120.250488      420.990037    ;  uncertainty theta = 0.002844, k = 0.091750
         4         1        33     1      120.694115      289.057286    ;  uncertainty theta = 0.001403, k = 0.014033
         4         5         6     1      121.225876      521.426659    ;  uncertainty theta = 0.002400, k = 0.046191
         4         5        22     1      120.065941      293.604679    ;  uncertainty theta = 0.001483, k = 0.020484
         5         4        21     1      120.215477      284.572427    ;  uncertainty theta = 0.001172, k = 0.028441
         5         6         7     1      120.250488      420.990037    ;  uncertainty theta = 0.002844, k = 0.091750
         6         3        31     1      118.560623      265.929188    ;  uncertainty theta = 0.001531, k = 0.065408
         6         5        22     1      118.560623      265.929188    ;  uncertainty theta = 0.001531, k = 0.065408
         6         7         8     1      110.204239      547.910939    ;  uncertainty theta = 0.001872, k = 0.108061
         6         7        13     1      110.403275      562.152602    ;  uncertainty theta = 0.001258, k = 0.091175
         6         7        23     1      105.940331      396.886039    ;  uncertainty theta = 0.001939, k = 0.105386
         7         8         9     1      110.519470      521.994923    ;  uncertainty theta = 0.006470, k = 0.206860
         7         8        24     1      108.324440      388.470859    ;  uncertainty theta = 0.002098, k = 0.059289
         7         8        25     1      108.324440      388.470859    ;  uncertainty theta = 0.002098, k = 0.059289
         7        13        14     1      109.839417      539.090741    ;  uncertainty theta = 0.002850, k = 0.067326
         7        13        27     1      108.198509      390.202530    ;  uncertainty theta = 0.002750, k = 0.061267
         7        13        28     1      108.198509      390.202530    ;  uncertainty theta = 0.002750, k = 0.061267
         8         7        13     1      109.474144      615.137699    ;  uncertainty theta = 0.002923, k = 0.158028
         8         7        23     1      106.524437      399.418043    ;  uncertainty theta = 0.002347, k = 0.053096
         8         9        10     1      124.011642      299.501709    ;  uncertainty theta = 0.014362, k = 0.695455
         8         9        12     1      118.269608      385.390030    ;  uncertainty theta = 0.002954, k = 0.216736
         9         8        24     1      107.904663      387.795179    ;  uncertainty theta = 0.001292, k = 0.131612
         9         8        25     1      107.904663      387.795147    ;  uncertainty theta = 0.001292, k = 0.131612
         9        10        11     1      105.572830      752.006582    ;  uncertainty theta = 0.005765, k = 0.118698
         9        12        14     1      121.880150      439.769772    ;  uncertainty theta = 0.005328, k = 0.203352
         9        12        19     1      122.911636      419.896985    ;  uncertainty theta = 0.007837, k = 0.100439
        10         9        12     1      122.396652      350.589271    ;  uncertainty theta = 0.027168, k = 0.544497
        10        11        26     1      101.159744      454.526168    ;  uncertainty theta = 0.007213, k = 0.106575
        12        14        13     1      121.117638      384.686898    ;  uncertainty theta = 0.002189, k = 0.260448
        12        14        15     1      121.433395      650.388742    ;  uncertainty theta = 0.002119, k = 0.185720
        12        19        18     1      122.959717      738.326097    ;  uncertainty theta = 0.003066, k = 0.201689
        12        19        32     1      118.638161      254.004635    ;  uncertainty theta = 0.006235, k = 0.142246
        13         7        23     1      106.810951      399.219652    ;  uncertainty theta = 0.002277, k = 0.023572
        13        14        15     1      120.554153      470.907170    ;  uncertainty theta = 0.003697, k = 0.314755
        14        12        19     1      118.571121      444.073893    ;  uncertainty theta = 0.006096, k = 0.446492
        14        13        27     1      107.265945      390.055149    ;  uncertainty theta = 0.001784, k = 0.069291
        14        13        28     1      107.265945      390.055149    ;  uncertainty theta = 0.001784, k = 0.069291
        14        15        16     1      115.479080      436.578496    ;  uncertainty theta = 0.006725, k = 0.286431
        15        16        17     1      124.629234      810.203611    ;  uncertainty theta = 0.008213, k = 0.092084
        15        16        18     1      126.904709      741.559031    ;  uncertainty theta = 0.005602, k = 0.136133
        16        17        29     1      118.918655      455.494599    ;  uncertainty theta = 0.002825, k = 0.029219
        16        17        30     1      118.918655      455.494599    ;  uncertainty theta = 0.002825, k = 0.029219
        16        18        19     1      115.953003      413.843701    ;  uncertainty theta = 0.006845, k = 0.231271
        17        16        18     1      124.807961      807.002024    ;  uncertainty theta = 0.006940, k = 0.121158
        18        19        32     1      118.113380      321.497938    ;  uncertainty theta = 0.004891, k = 0.081700
        24         8        25     1      105.898094      311.829972    ;  uncertainty theta = 0.001554, k = 0.041920
        27        13        28     1      105.585487      311.081383    ;  uncertainty theta = 0.002164, k = 0.065378
        29        17        30     1      107.607529      265.714692    ;  uncertainty theta = 0.002791, k = 0.046311

[ dihedrals ] ; propers for gromacs 4.5 or higher, use funct 9
;       ai        aj        ak        al funct           phase               k        pn
         1         2         3         6     9        0.000000       -0.077002         1    ;  uncertainty k = 0.126901
         1         2         3         6     9      180.000000       13.863501         2    ;  uncertainty k = 0.263440
         1         2         3         6     9        0.000000       -0.938257         3    ;  uncertainty k = 0.483882
         1         2         3         6     9      180.000000        0.696865         4    ;  uncertainty k = 0.265447
         1         2         3        31     9        0.000000        0.070311         1    ;  uncertainty k = 0.091515
         1         2         3        31     9      180.000000        7.938860         2    ;  uncertainty k = 0.321459
         1         2         3        31     9        0.000000        1.458497         3    ;  uncertainty k = 0.328845
         1         2         3        31     9      180.000000        1.859386         4    ;  uncertainty k = 0.174053
         1         4         5         6     9        0.000000       -0.077002         1    ;  uncertainty k = 0.126901
         1         4         5         6     9      180.000000       13.863501         2    ;  uncertainty k = 0.263440
         1         4         5         6     9        0.000000       -0.938257         3    ;  uncertainty k = 0.483882
         1         4         5         6     9      180.000000        0.696865         4    ;  uncertainty k = 0.265447
         1         4         5        22     9        0.000000        0.070311         1    ;  uncertainty k = 0.091515
         1         4         5        22     9      180.000000        7.938860         2    ;  uncertainty k = 0.321459
         1         4         5        22     9        0.000000        1.458497         3    ;  uncertainty k = 0.328845
         1         4         5        22     9      180.000000        1.859386         4    ;  uncertainty k = 0.174053
         2         1         4         5     9        0.000000        0.014590         1    ;  uncertainty k = 0.069898
         2         1         4         5     9      180.000000       15.054057         2    ;  uncertainty k = 0.262252
         2         1         4         5     9        0.000000       -1.263359         3    ;  uncertainty k = 0.512597
         2         1         4         5     9      180.000000        0.507708         4    ;  uncertainty k = 0.291442
         2         1         4        21     9        0.000000        0.068252         1    ;  uncertainty k = 0.045377
         2         1         4        21     9      180.000000        7.536449         2    ;  uncertainty k = 0.312435
         2         1         4        21     9        0.000000        1.439836         3    ;  uncertainty k = 0.333330
         2         1         4        21     9      180.000000        1.795916         4    ;  uncertainty k = 0.155449
         2         3         6         5     9        0.000000       -0.236439         1    ;  uncertainty k = 0.198083
         2         3         6         5     9      180.000000       11.813571         2    ;  uncertainty k = 0.353196
         2         3         6         5     9        0.000000       -0.415031         3    ;  uncertainty k = 0.305863
         2         3         6         5     9      180.000000        0.763864         4    ;  uncertainty k = 0.344829
         2         3         6         7     9        0.000000        0.214110         1    ;  uncertainty k = 0.228181
         2         3         6         7     9      180.000000        9.103906         2    ;  uncertainty k = 0.620924
         2         3         6         7     9        0.000000        1.403336         3    ;  uncertainty k = 0.454787
         2         3         6         7     9      180.000000        1.797880         4    ;  uncertainty k = 0.218056
         3         2         1         4     9        0.000000        0.014590         1    ;  uncertainty k = 0.069898
         3         2         1         4     9      180.000000       15.054057         2    ;  uncertainty k = 0.262252
         3         2         1         4     9        0.000000       -1.263359         3    ;  uncertainty k = 0.512597
         3         2         1         4     9      180.000000        0.507708         4    ;  uncertainty k = 0.291442
         3         2         1        33     9        0.000000        0.077868         1    ;  uncertainty k = 0.059306
         3         2         1        33     9      180.000000        7.569105         2    ;  uncertainty k = 0.291346
         3         2         1        33     9        0.000000        1.468935         3    ;  uncertainty k = 0.296966
         3         2         1        33     9      180.000000        1.810187         4    ;  uncertainty k = 0.177276
         3         6         5         4     9        0.000000       -0.236439         1    ;  uncertainty k = 0.198083
         3         6         5         4     9      180.000000       11.813571         2    ;  uncertainty k = 0.353196
         3         6         5         4     9        0.000000       -0.415031         3    ;  uncertainty k = 0.305863
         3         6         5         4     9      180.000000        0.763864         4    ;  uncertainty k = 0.344829
         3         6         5        22     9        0.000000        0.072693         1    ;  uncertainty k = 0.199590
         3         6         5        22     9      180.000000        7.240651         2    ;  uncertainty k = 0.390196
         3         6         5        22     9        0.000000        1.494769         3    ;  uncertainty k = 0.381079
         3         6         5        22     9      180.000000        1.628147         4    ;  uncertainty k = 0.172289
         3         6         7         8     9        0.000000       -0.624877         1    ;  uncertainty k = 0.330071
         3         6         7         8     9      180.000000        2.460115         2    ;  uncertainty k = 0.234853
         3         6         7         8     9        0.000000        0.294371         3    ;  uncertainty k = 0.091351
         3         6         7         8     9      180.000000        0.256489         4    ;  uncertainty k = 0.055952
         3         6         7        13     9        0.000000       -0.610934         1    ;  uncertainty k = 0.377395
         3         6         7        13     9      180.000000        2.551337         2    ;  uncertainty k = 0.196703
         3         6         7        13     9        0.000000        0.279267         3    ;  uncertainty k = 0.058668
         3         6         7        13     9      180.000000        0.281435         4    ;  uncertainty k = 0.052054
         3         6         7        23     9        0.000000       -0.263372         1    ;  uncertainty k = 0.324299
         3         6         7        23     9      180.000000        1.708809         2    ;  uncertainty k = 0.145842
         3         6         7        23     9        0.000000        0.483102         3    ;  uncertainty k = 0.120505
         3         6         7        23     9      180.000000        0.335212         4    ;  uncertainty k = 0.027122
         4         1         2        20     9        0.000000        0.068252         1    ;  uncertainty k = 0.045377
         4         1         2        20     9      180.000000        7.536449         2    ;  uncertainty k = 0.312435
         4         1         2        20     9        0.000000        1.439836         3    ;  uncertainty k = 0.333330
         4         1         2        20     9      180.000000        1.795916         4    ;  uncertainty k = 0.155449
         4         5         6         7     9        0.000000        0.214110         1    ;  uncertainty k = 0.228181
         4         5         6         7     9      180.000000        9.103906         2    ;  uncertainty k = 0.620924
         4         5         6         7     9        0.000000        1.403336         3    ;  uncertainty k = 0.454787
         4         5         6         7     9      180.000000        1.797880         4    ;  uncertainty k = 0.218056
         5         4         1        33     9        0.000000        0.077868         1    ;  uncertainty k = 0.059306
         5         4         1        33     9      180.000000        7.569105         2    ;  uncertainty k = 0.291346
         5         4         1        33     9        0.000000        1.468935         3    ;  uncertainty k = 0.296966
         5         4         1        33     9      180.000000        1.810187         4    ;  uncertainty k = 0.177276
         5         6         3        31     9        0.000000        0.072693         1    ;  uncertainty k = 0.199590
         5         6         3        31     9      180.000000        7.240651         2    ;  uncertainty k = 0.390196
         5         6         3        31     9        0.000000        1.494769         3    ;  uncertainty k = 0.381079
         5         6         3        31     9      180.000000        1.628147         4    ;  uncertainty k = 0.172289
         5         6         7         8     9        0.000000       -0.624877         1    ;  uncertainty k = 0.330071
         5         6         7         8     9      180.000000        2.460115         2    ;  uncertainty k = 0.234853
         5         6         7         8     9        0.000000        0.294371         3    ;  uncertainty k = 0.091351
         5         6         7         8     9      180.000000        0.256489         4    ;  uncertainty k = 0.055952
         5         6         7        13     9        0.000000       -0.610934         1    ;  uncertainty k = 0.377395
         5         6         7        13     9      180.000000        2.551337         2    ;  uncertainty k = 0.196703
         5         6         7        13     9        0.000000        0.279267         3    ;  uncertainty k = 0.058668
         5         6         7        13     9      180.000000        0.281435         4    ;  uncertainty k = 0.052054
         5         6         7        23     9        0.000000       -0.263372         1    ;  uncertainty k = 0.324299
         5         6         7        23     9      180.000000        1.708809         2    ;  uncertainty k = 0.145842
         5         6         7        23     9        0.000000        0.483102         3    ;  uncertainty k = 0.120505
         5         6         7        23     9      180.000000        0.335212         4    ;  uncertainty k = 0.027122
         6         3         2        20     9        0.000000        0.054165         1    ;  uncertainty k = 0.225009
         6         3         2        20     9      180.000000        7.376467         2    ;  uncertainty k = 0.343712
         6         3         2        20     9        0.000000        1.496156         3    ;  uncertainty k = 0.276988
         6         3         2        20     9      180.000000        1.831580         4    ;  uncertainty k = 0.161660
         6         5         4        21     9        0.000000        0.054165         1    ;  uncertainty k = 0.225009
         6         5         4        21     9      180.000000        7.376467         2    ;  uncertainty k = 0.343712
         6         5         4        21     9        0.000000        1.496156         3    ;  uncertainty k = 0.276988
         6         5         4        21     9      180.000000        1.831580         4    ;  uncertainty k = 0.161660
         6         7         8         9     9        0.000000       -2.155018         1    ;  uncertainty k = 0.866602
         6         7         8         9     9      180.000000        0.241106         2    ;  uncertainty k = 0.339759
         6         7         8         9     9        0.000000        0.882157         3    ;  uncertainty k = 0.293700
         6         7         8         9     9      180.000000        0.022630         4    ;  uncertainty k = 0.087823
         6         7         8        24     9        0.000000        0.719510         1    ;  uncertainty k = 0.246694
         6         7         8        24     9      180.000000       -0.197793         2    ;  uncertainty k = 0.299854
         6         7         8        24     9        0.000000        0.796283         3    ;  uncertainty k = 0.065355
         6         7         8        24     9      180.000000       -0.055450         4    ;  uncertainty k = 0.084665
         6         7         8        25     9        0.000000        0.719510         1    ;  uncertainty k = 0.246694
         6         7         8        25     9      180.000000       -0.197793         2    ;  uncertainty k = 0.299854
         6         7         8        25     9        0.000000        0.796283         3    ;  uncertainty k = 0.065355
         6         7         8        25     9      180.000000       -0.055450         4    ;  uncertainty k = 0.084665
         6         7        13        14     9        0.000000       -2.118635         1    ;  uncertainty k = 0.488068
         6         7        13        14     9      180.000000        0.276052         2    ;  uncertainty k = 0.673884
         6         7        13        14     9        0.000000        1.063461         3    ;  uncertainty k = 0.139405
         6         7        13        14     9      180.000000        0.005734         4    ;  uncertainty k = 0.036252
         6         7        13        27     9        0.000000        0.798962         1    ;  uncertainty k = 0.199197
         6         7        13        27     9      180.000000       -0.139050         2    ;  uncertainty k = 0.272928
         6         7        13        27     9        0.000000        0.813052         3    ;  uncertainty k = 0.144734
         6         7        13        27     9      180.000000       -0.060665         4    ;  uncertainty k = 0.092242
         6         7        13        28     9        0.000000        0.798962         1    ;  uncertainty k = 0.199197
         6         7        13        28     9      180.000000       -0.139050         2    ;  uncertainty k = 0.272928
         6         7        13        28     9        0.000000        0.813052         3    ;  uncertainty k = 0.144734
         6         7        13        28     9      180.000000       -0.060665         4    ;  uncertainty k = 0.092242
         7         6         3        31     9        0.000000       -0.048120         1    ;  uncertainty k = 0.224424
         7         6         3        31     9      180.000000        8.028964         2    ;  uncertainty k = 0.218252
         7         6         3        31     9        0.000000        0.680492         3    ;  uncertainty k = 0.300185
         7         6         3        31     9      180.000000        0.942851         4    ;  uncertainty k = 0.130480
         7         6         5        22     9        0.000000       -0.048120         1    ;  uncertainty k = 0.224424
         7         6         5        22     9      180.000000        8.028964         2    ;  uncertainty k = 0.218252
         7         6         5        22     9        0.000000        0.680492         3    ;  uncertainty k = 0.300185
         7         6         5        22     9      180.000000        0.942851         4    ;  uncertainty k = 0.130480
         7         8         9        10     9        0.000000       -1.935356         1    ;  uncertainty k = 1.177866
         7         8         9        10     9      180.000000        2.884955         2    ;  uncertainty k = 0.832682
         7         8         9        10     9        0.000000        0.127098         3    ;  uncertainty k = 0.196444
         7         8         9        10     9      180.000000        0.352483         4    ;  uncertainty k = 0.158401
         7         8         9        12     9        0.000000       -3.893282         1    ;  uncertainty k = 1.670768
         7         8         9        12     9      180.000000        1.968876         2    ;  uncertainty k = 0.685600
         7         8         9        12     9        0.000000        0.495688         3    ;  uncertainty k = 0.370475
         7         8         9        12     9      180.000000        0.179570         4    ;  uncertainty k = 0.193754
         7        13        14        12     9        0.000000       -3.302174         1    ;  uncertainty k = 2.402271
         7        13        14        12     9      180.000000        3.050481         2    ;  uncertainty k = 0.927558
         7        13        14        12     9        0.000000       -0.096093         3    ;  uncertainty k = 0.330582
         7        13        14        12     9      180.000000        0.567890         4    ;  uncertainty k = 0.237988
         7        13        14        15     9        0.000000       -2.720634         1    ;  uncertainty k = 1.249153
         7        13        14        15     9      180.000000        3.134622         2    ;  uncertainty k = 0.580978
         7        13        14        15     9        0.000000        0.553480         3    ;  uncertainty k = 0.328453
         7        13        14        15     9      180.000000        0.393009         4    ;  uncertainty k = 0.177852
         8         7        13        14     9        0.000000        0.268883         1    ;  uncertainty k = 1.576717
         8         7        13        14     9      180.000000       -1.057809         2    ;  uncertainty k = 0.848826
         8         7        13        14     9        0.000000        0.760648         3    ;  uncertainty k = 0.302649
         8         7        13        14     9      180.000000       -0.453799         4    ;  uncertainty k = 0.195143
         8         7        13        27     9        0.000000       -0.541339         1    ;  uncertainty k = 0.218655
         8         7        13        27     9      180.000000       -0.613952         2    ;  uncertainty k = 0.160287
         8         7        13        27     9        0.000000        0.247925         3    ;  uncertainty k = 0.119192
         8         7        13        27     9      180.000000        0.087887         4    ;  uncertainty k = 0.106895
         8         7        13        28     9        0.000000       -0.541339         1    ;  uncertainty k = 0.218655
         8         7        13        28     9      180.000000       -0.613952         2    ;  uncertainty k = 0.160287
         8         7        13        28     9        0.000000        0.247925         3    ;  uncertainty k = 0.119192
         8         7        13        28     9      180.000000        0.087887         4    ;  uncertainty k = 0.106895
         8         9        10        11     9        0.000000        5.177766         1    ;  uncertainty k = 3.117260
         8         9        10        11     9      180.000000       43.470736         2    ;  uncertainty k = 0.235404
         8         9        10        11     9        0.000000        2.137656         3    ;  uncertainty k = 0.951556
         8         9        10        11     9      180.000000       -0.272249         4    ;  uncertainty k = 0.381569
         8         9        12        14     9        0.000000       -1.686183         1    ;  uncertainty k = 2.477038
         8         9        12        14     9      180.000000        2.664901         2    ;  uncertainty k = 0.591330
         8         9        12        14     9        0.000000       -0.127219         3    ;  uncertainty k = 0.315561
         8         9        12        14     9      180.000000        0.033355         4    ;  uncertainty k = 0.158032
         8         9        12        19     9        0.000000       -2.555238         1    ;  uncertainty k = 1.365634
         8         9        12        19     9      180.000000        3.473085         2    ;  uncertainty k = 0.492530
         8         9        12        19     9        0.000000        0.029385         3    ;  uncertainty k = 0.194874
         8         9        12        19     9      180.000000        0.044998         4    ;  uncertainty k = 0.189782
         9         8         7        13     9        0.000000       -1.849733         1    ;  uncertainty k = 1.479944
         9         8         7        13     9      180.000000       -0.502928         2    ;  uncertainty k = 0.676822
         9         8         7        13     9        0.000000        0.663452         3    ;  uncertainty k = 0.369544
         9         8         7        13     9      180.000000       -0.436204         4    ;  uncertainty k = 0.152665
         9         8         7        23     9        0.000000       -0.912485         1    ;  uncertainty k = 0.413459
         9         8         7        23     9      180.000000       -0.462720         2    ;  uncertainty k = 0.293602
         9         8         7        23     9        0.000000        0.552783         3    ;  uncertainty k = 0.208244
         9         8         7        23     9      180.000000        0.006038         4    ;  uncertainty k = 0.097166
         9        10        11        26     9        0.000000       -0.959480         1    ;  uncertainty k = 1.029715
         9        10        11        26     9      180.000000       11.825906         2    ;  uncertainty k = 0.272036
         9        10        11        26     9        0.000000        0.224133         3    ;  uncertainty k = 0.406126
         9        10        11        26     9      180.000000       -0.213411         4    ;  uncertainty k = 0.249970
         9        12        14        13     9        0.000000       -0.478928         1    ;  uncertainty k = 0.668198
         9        12        14        13     9      180.000000        5.515544         2    ;  uncertainty k = 0.770473
         9        12        14        13     9        0.000000        0.643448         3    ;  uncertainty k = 0.243944
         9        12        14        13     9      180.000000        1.214122         4    ;  uncertainty k = 0.288508
         9        12        14        15     9        0.000000        0.304815         1    ;  uncertainty k = 0.654260
         9        12        14        15     9      180.000000        7.065801         2    ;  uncertainty k = 0.687411
         9        12        14        15     9        0.000000        0.613694         3    ;  uncertainty k = 0.336798
         9        12        14        15     9      180.000000        1.677364         4    ;  uncertainty k = 0.281885
         9        12        19        18     9        0.000000        0.350143         1    ;  uncertainty k = 0.389652
         9        12        19        18     9      180.000000        9.602006         2    ;  uncertainty k = 0.268579
         9        12        19        18     9        0.000000        0.785224         3    ;  uncertainty k = 0.205421
         9        12        19        18     9      180.000000        1.737877         4    ;  uncertainty k = 0.237531
         9        12        19        32     9        0.000000       -0.716672         1    ;  uncertainty k = 0.310998
         9        12        19        32     9      180.000000        6.357406         2    ;  uncertainty k = 0.781928
         9        12        19        32     9        0.000000        0.591946         3    ;  uncertainty k = 0.359279
         9        12        19        32     9      180.000000        0.925474         4    ;  uncertainty k = 0.277043
        10         9         8        24     9        0.000000        2.316167         1    ;  uncertainty k = 0.414853
        10         9         8        24     9      180.000000        3.910100         2    ;  uncertainty k = 0.459911
        10         9         8        24     9        0.000000        0.179162         3    ;  uncertainty k = 0.112869
        10         9         8        24     9      180.000000        0.049949         4    ;  uncertainty k = 0.209074
        10         9         8        25     9        0.000000        2.316167         1    ;  uncertainty k = 0.414853
        10         9         8        25     9      180.000000        3.910100         2    ;  uncertainty k = 0.459911
        10         9         8        25     9        0.000000        0.179162         3    ;  uncertainty k = 0.112869
        10         9         8        25     9      180.000000        0.049949         4    ;  uncertainty k = 0.209074
        10         9        12        14     9        0.000000       -0.306118         1    ;  uncertainty k = 2.989864
        10         9        12        14     9      180.000000        3.966207         2    ;  uncertainty k = 0.454347
        10         9        12        14     9        0.000000        0.497638         3    ;  uncertainty k = 0.279357
        10         9        12        14     9      180.000000        0.011307         4    ;  uncertainty k = 0.126935
        10         9        12        19     9        0.000000       -0.042318         1    ;  uncertainty k = 1.828393
        10         9        12        19     9      180.000000        4.392915         2    ;  uncertainty k = 0.378281
        10         9        12        19     9        0.000000        0.710668         3    ;  uncertainty k = 0.437048
        10         9        12        19     9      180.000000       -0.020124         4    ;  uncertainty k = 0.212057
        11        10         9        12     9        0.000000        0.825745         1    ;  uncertainty k = 2.100441
        11        10         9        12     9      180.000000       38.561598         2    ;  uncertainty k = 0.500692
        11        10         9        12     9        0.000000        3.466590         3    ;  uncertainty k = 1.409039
        11        10         9        12     9      180.000000        0.087000         4    ;  uncertainty k = 1.741942
        12         9         8        24     9        0.000000       -0.775599         1    ;  uncertainty k = 0.603055
        12         9         8        24     9      180.000000        2.166346         2    ;  uncertainty k = 0.876057
        12         9         8        24     9        0.000000        0.776035         3    ;  uncertainty k = 0.219699
        12         9         8        24     9      180.000000        0.120774         4    ;  uncertainty k = 0.110250
        12         9         8        25     9        0.000000       -0.775599         1    ;  uncertainty k = 0.603055
        12         9         8        25     9      180.000000        2.166346         2    ;  uncertainty k = 0.876057
        12         9         8        25     9        0.000000        0.776035         3    ;  uncertainty k = 0.219699
        12         9         8        25     9      180.000000        0.120774         4    ;  uncertainty k = 0.110250
        12        14        13        27     9        0.000000       -1.103123         1    ;  uncertainty k = 0.701481
        12        14        13        27     9      180.000000        2.944573         2    ;  uncertainty k = 0.409883
        12        14        13        27     9        0.000000        0.561967         3    ;  uncertainty k = 0.160146
        12        14        13        27     9      180.000000        0.171331         4    ;  uncertainty k = 0.062903
        12        14        13        28     9        0.000000       -1.103123         1    ;  uncertainty k = 0.701481
        12        14        13        28     9      180.000000        2.944573         2    ;  uncertainty k = 0.409883
        12        14        13        28     9        0.000000        0.561967         3    ;  uncertainty k = 0.160146
        12        14        13        28     9      180.000000        0.171331         4    ;  uncertainty k = 0.062903
        12        14        15        16     9        0.000000       -0.531810         1    ;  uncertainty k = 1.030029
        12        14        15        16     9      180.000000       15.397972         2    ;  uncertainty k = 0.432391
        12        14        15        16     9        0.000000        0.150583         3    ;  uncertainty k = 0.773298
        12        14        15        16     9      180.000000        1.499452         4    ;  uncertainty k = 0.342373
        12        19        18        16     9        0.000000       -0.709545         1    ;  uncertainty k = 0.681281
        12        19        18        16     9      180.000000       16.331343         2    ;  uncertainty k = 0.596262
        12        19        18        16     9        0.000000       -0.079275         3    ;  uncertainty k = 0.680096
        12        19        18        16     9      180.000000        1.560983         4    ;  uncertainty k = 0.673541
        13         7         8        24     9        0.000000       -0.688232         1    ;  uncertainty k = 0.317243
        13         7         8        24     9      180.000000       -0.641869         2    ;  uncertainty k = 0.262163
        13         7         8        24     9        0.000000        0.228779         3    ;  uncertainty k = 0.094802
        13         7         8        24     9      180.000000        0.025548         4    ;  uncertainty k = 0.052774
        13         7         8        25     9        0.000000       -0.688232         1    ;  uncertainty k = 0.317243
        13         7         8        25     9      180.000000       -0.641869         2    ;  uncertainty k = 0.262163
        13         7         8        25     9        0.000000        0.228779         3    ;  uncertainty k = 0.094802
        13         7         8        25     9      180.000000        0.025548         4    ;  uncertainty k = 0.052774
        13        14        12        19     9        0.000000       -0.350220         1    ;  uncertainty k = 0.494278
        13        14        12        19     9      180.000000        4.633791         2    ;  uncertainty k = 0.642822
        13        14        12        19     9        0.000000        0.740847         3    ;  uncertainty k = 0.298908
        13        14        12        19     9      180.000000        1.289491         4    ;  uncertainty k = 0.364248
        13        14        15        16     9        0.000000        0.294722         1    ;  uncertainty k = 1.229278
        13        14        15        16     9      180.000000       16.745572         2    ;  uncertainty k = 0.654026
        13        14        15        16     9        0.000000        1.478693         3    ;  uncertainty k = 0.711052
        13        14        15        16     9      180.000000        1.439907         4    ;  uncertainty k = 0.482127
        14        12        19        18     9        0.000000        0.065252         1    ;  uncertainty k = 0.347644
        14        12        19        18     9      180.000000       11.880472         2    ;  uncertainty k = 0.592539
        14        12        19        18     9        0.000000       -0.582345         3    ;  uncertainty k = 0.582217
        14        12        19        18     9      180.000000        0.980285         4    ;  uncertainty k = 0.288543
        14        12        19        32     9        0.000000       -0.754135         1    ;  uncertainty k = 0.969830
        14        12        19        32     9      180.000000        5.112640         2    ;  uncertainty k = 0.965897
        14        12        19        32     9        0.000000        0.650877         3    ;  uncertainty k = 0.198178
        14        12        19        32     9      180.000000        1.217220         4    ;  uncertainty k = 0.086739
        14        13         7        23     9        0.000000       -0.698279         1    ;  uncertainty k = 0.489643
        14        13         7        23     9      180.000000       -0.126890         2    ;  uncertainty k = 0.301980
        14        13         7        23     9        0.000000        0.530330         3    ;  uncertainty k = 0.185961
        14        13         7        23     9      180.000000        0.031219         4    ;  uncertainty k = 0.051771
        14        15        16        17     9        0.000000        1.310992         1    ;  uncertainty k = 1.450552
        14        15        16        17     9      180.000000        9.468843         2    ;  uncertainty k = 0.511860
        14        15        16        17     9        0.000000        2.225778         3    ;  uncertainty k = 0.499658
        14        15        16        17     9      180.000000        0.881605         4    ;  uncertainty k = 0.281343
        14        15        16        18     9        0.000000        0.305198         1    ;  uncertainty k = 1.811399
        14        15        16        18     9      180.000000        6.858915         2    ;  uncertainty k = 1.078897
        14        15        16        18     9        0.000000        0.858300         3    ;  uncertainty k = 0.329044
        14        15        16        18     9      180.000000        0.689224         4    ;  uncertainty k = 0.141524
        15        14        12        19     9        0.000000        0.218535         1    ;  uncertainty k = 0.579805
        15        14        12        19     9      180.000000        8.664460         2    ;  uncertainty k = 0.682048
        15        14        12        19     9        0.000000       -0.416638         3    ;  uncertainty k = 0.202440
        15        14        12        19     9      180.000000        1.257994         4    ;  uncertainty k = 0.255220
        15        14        13        27     9        0.000000        2.011606         1    ;  uncertainty k = 1.082449
        15        14        13        27     9      180.000000        3.603904         2    ;  uncertainty k = 0.337725
        15        14        13        27     9        0.000000        0.303316         3    ;  uncertainty k = 0.285882
        15        14        13        27     9      180.000000        0.232546         4    ;  uncertainty k = 0.106101
        15        14        13        28     9        0.000000        2.011606         1    ;  uncertainty k = 1.082449
        15        14        13        28     9      180.000000        3.603904         2    ;  uncertainty k = 0.337725
        15        14        13        28     9        0.000000        0.303316         3    ;  uncertainty k = 0.285882
        15        14        13        28     9      180.000000        0.232546         4    ;  uncertainty k = 0.106101
        15        16        17        29     9        0.000000       20.245312         1    ;  uncertainty k = 0.267573
        15        16        17        29     9      180.000000       11.433631         2    ;  uncertainty k = 0.158571
        15        16        17        29     9        0.000000        1.021256         3    ;  uncertainty k = 0.271982
        15        16        17        29     9      180.000000       -0.450927         4    ;  uncertainty k = 0.179087
        15        16        17        30     9        0.000000       20.245312         1    ;  uncertainty k = 0.267573
        15        16        17        30     9      180.000000       11.433631         2    ;  uncertainty k = 0.158571
        15        16        17        30     9        0.000000        1.021256         3    ;  uncertainty k = 0.271982
        15        16        17        30     9      180.000000       -0.450927         4    ;  uncertainty k = 0.179087
        15        16        18        19     9        0.000000        0.078141         1    ;  uncertainty k = 1.029483
        15        16        18        19     9      180.000000        7.296374         2    ;  uncertainty k = 0.834056
        15        16        18        19     9        0.000000        0.720870         3    ;  uncertainty k = 0.507499
        15        16        18        19     9      180.000000        0.714600         4    ;  uncertainty k = 0.109920
        16        18        19        32     9        0.000000        0.226821         1    ;  uncertainty k = 0.816040
        16        18        19        32     9      180.000000       17.438592         2    ;  uncertainty k = 0.780377
        16        18        19        32     9        0.000000        1.242980         3    ;  uncertainty k = 0.910028
        16        18        19        32     9      180.000000        1.159219         4    ;  uncertainty k = 0.571825
        17        16        18        19     9        0.000000        0.925800         1    ;  uncertainty k = 1.498649
        17        16        18        19     9      180.000000        8.808187         2    ;  uncertainty k = 0.205521
        17        16        18        19     9        0.000000        2.091113         3    ;  uncertainty k = 0.487983
        17        16        18        19     9      180.000000        0.939354         4    ;  uncertainty k = 0.189438
        18        16        17        29     9        0.000000       20.446590         1    ;  uncertainty k = 0.445343
        18        16        17        29     9      180.000000       11.436313         2    ;  uncertainty k = 0.244172
        18        16        17        29     9        0.000000        1.046554         3    ;  uncertainty k = 0.190893
        18        16        17        29     9      180.000000       -0.438020         4    ;  uncertainty k = 0.188912
        18        16        17        30     9        0.000000       20.446590         1    ;  uncertainty k = 0.445343
        18        16        17        30     9      180.000000       11.436313         2    ;  uncertainty k = 0.244172
        18        16        17        30     9        0.000000        1.046554         3    ;  uncertainty k = 0.190893
        18        16        17        30     9      180.000000       -0.438020         4    ;  uncertainty k = 0.188912
        20         2         1        33     9        0.000000       -0.026706         1    ;  uncertainty k = 0.106680
        20         2         1        33     9      180.000000        7.552187         2    ;  uncertainty k = 0.400288
        20         2         1        33     9        0.000000       -0.423107         3    ;  uncertainty k = 0.278478
        20         2         1        33     9      180.000000        0.040208         4    ;  uncertainty k = 0.143255
        20         2         3        31     9        0.000000       -0.010151         1    ;  uncertainty k = 0.055407
        20         2         3        31     9      180.000000        7.712610         2    ;  uncertainty k = 0.236194
        20         2         3        31     9        0.000000       -0.463444         3    ;  uncertainty k = 0.261382
        20         2         3        31     9      180.000000        0.110164         4    ;  uncertainty k = 0.102630
        21         4         1        33     9        0.000000       -0.026706         1    ;  uncertainty k = 0.106680
        21         4         1        33     9      180.000000        7.552187         2    ;  uncertainty k = 0.400288
        21         4         1        33     9        0.000000       -0.423107         3    ;  uncertainty k = 0.278478
        21         4         1        33     9      180.000000        0.040208         4    ;  uncertainty k = 0.143255
        21         4         5        22     9        0.000000       -0.010151         1    ;  uncertainty k = 0.055407
        21         4         5        22     9      180.000000        7.712610         2    ;  uncertainty k = 0.236194
        21         4         5        22     9        0.000000       -0.463444         3    ;  uncertainty k = 0.261382
        21         4         5        22     9      180.000000        0.110164         4    ;  uncertainty k = 0.102630
        23         7         8        24     9        0.000000        1.124125         1    ;  uncertainty k = 0.218032
        23         7         8        24     9      180.000000       -0.142483         2    ;  uncertainty k = 0.216481
        23         7         8        24     9        0.000000        0.078454         3    ;  uncertainty k = 0.121242
        23         7         8        24     9      180.000000        0.043319         4    ;  uncertainty k = 0.072455
        23         7         8        25     9        0.000000        1.124125         1    ;  uncertainty k = 0.218032
        23         7         8        25     9      180.000000       -0.142483         2    ;  uncertainty k = 0.216481
        23         7         8        25     9        0.000000        0.078454         3    ;  uncertainty k = 0.121242
        23         7         8        25     9      180.000000        0.043319         4    ;  uncertainty k = 0.072455
        23         7        13        27     9        0.000000        0.999718         1    ;  uncertainty k = 0.337124
        23         7        13        27     9      180.000000       -0.158374         2    ;  uncertainty k = 0.373799
        23         7        13        27     9        0.000000        0.095467         3    ;  uncertainty k = 0.097019
        23         7        13        27     9      180.000000        0.088260         4    ;  uncertainty k = 0.080025
        23         7        13        28     9        0.000000        0.999718         1    ;  uncertainty k = 0.337124
        23         7        13        28     9      180.000000       -0.158374         2    ;  uncertainty k = 0.373799
        23         7        13        28     9        0.000000        0.095467         3    ;  uncertainty k = 0.097019
        23         7        13        28     9      180.000000        0.088260         4    ;  uncertainty k = 0.080025

[ dihedrals ] ; impropers
;       ai        aj        ak        al funct           phase               k        pn
         1         2         4        33     4      180.000000        4.111503         2    ;  uncertainty k = 0.177195
         1         4        33         2     4      180.000000        4.111503         2    ;  uncertainty k = 0.177195
         1        33         2         4     4      180.000000        4.111503         2    ;  uncertainty k = 0.177195
         2         1         3        20     4      180.000000        4.175386         2    ;  uncertainty k = 0.076667
         2         3        20         1     4      180.000000        4.175386         2    ;  uncertainty k = 0.076667
         2        20         1         3     4      180.000000        4.175386         2    ;  uncertainty k = 0.076667
         3         2         6        31     4      180.000000        4.098015         2    ;  uncertainty k = 0.123118
         3         6        31         2     4      180.000000        4.098015         2    ;  uncertainty k = 0.123118
         3        31         2         6     4      180.000000        4.098015         2    ;  uncertainty k = 0.123118
         4         1         5        21     4      180.000000        4.175386         2    ;  uncertainty k = 0.076667
         4         5        21         1     4      180.000000        4.175386         2    ;  uncertainty k = 0.076667
         4        21         1         5     4      180.000000        4.175386         2    ;  uncertainty k = 0.076667
         5         4         6        22     4      180.000000        4.098020         2    ;  uncertainty k = 0.123118
         5         6        22         4     4      180.000000        4.098020         2    ;  uncertainty k = 0.123118
         5        22         4         6     4      180.000000        4.098020         2    ;  uncertainty k = 0.123118
         6         3         5         7     4      180.000000       13.981714         2    ;  uncertainty k = 0.087597
         6         5         7         3     4      180.000000       13.981714         2    ;  uncertainty k = 0.087597
         6         7         3         5     4      180.000000       13.981714         2    ;  uncertainty k = 0.087597
         9         8        10        12     4      180.000000       18.370588         2    ;  uncertainty k = 0.254223
         9        10        12         8     4      180.000000       18.370588         2    ;  uncertainty k = 0.254223
         9        12         8        10     4      180.000000       18.370588         2    ;  uncertainty k = 0.254223
        12         9        14        19     4      180.000000        5.779440         2    ;  uncertainty k = 0.591272
        12        14        19         9     4      180.000000        5.779440         2    ;  uncertainty k = 0.591272
        12        19         9        14     4      180.000000        5.779440         2    ;  uncertainty k = 0.591272
        14        12        13        15     4      180.000000       30.782259         2    ;  uncertainty k = 0.076169
        14        13        15        12     4      180.000000       30.782259         2    ;  uncertainty k = 0.076169
        14        15        12        13     4      180.000000       30.782259         2    ;  uncertainty k = 0.076169
        16        15        17        18     4      180.000000       47.545006         2    ;  uncertainty k = 0.081441
        16        17        18        15     4      180.000000       47.545006         2    ;  uncertainty k = 0.081441
        16        18        15        17     4      180.000000       47.545006         2    ;  uncertainty k = 0.081441
        17        16        29        30     4      180.000000        0.337878         2    ;  uncertainty k = 0.461885
        17        29        30        16     4      180.000000        0.337878         2    ;  uncertainty k = 0.461885
        17        30        16        29     4      180.000000        0.337878         2    ;  uncertainty k = 0.461885
        19        12        18        32     4      180.000000       17.982941         2    ;  uncertainty k = 0.113310
        19        18        32        12     4      180.000000       17.982941         2    ;  uncertainty k = 0.113310
        19        32        12        18     4      180.000000       17.982941         2    ;  uncertainty k = 0.113310

[ pairs ]
;       ai        aj funct
         1         6     1
         1        22     1
         1        31     1
         2         5     1
         2         7     1
         2        21     1
         3         4     1
         3         8     1
         3        13     1
         3        22     1
         3        23     1
         3        33     1
         4         7     1
         4        20     1
         5         8     1
         5        13     1
         5        23     1
         5        31     1
         5        33     1
         6         9     1
         6        14     1
         6        20     1
         6        21     1
         6        24     1
         6        25     1
         6        27     1
         6        28     1
         7        10     1
         7        12     1
         7        15     1
         7        22     1
         7        31     1
         8        11     1
         8        14     1
         8        19     1
         8        27     1
         8        28     1
         9        13     1
         9        15     1
         9        18     1
         9        23     1
         9        26     1
         9        32     1
        10        14     1
        10        19     1
        10        24     1
        10        25     1
        11        12     1
        12        16     1
        12        24     1
        12        25     1
        12        27     1
        12        28     1
        13        16     1
        13        19     1
        13        24     1
        13        25     1
        14        17     1
        14        18     1
        14        23     1
        14        32     1
        15        19     1
        15        27     1
        15        28     1
        15        29     1
        15        30     1
        16        32     1
        17        19     1
        18        29     1
        18        30     1
        20        31     1
        20        33     1
        21        22     1
        21        33     1
        23        24     1
        23        25     1
        23        27     1
        23        28     1
