; ITP file created by ByteFF-joint-25, 2025-07-14 11:27:50.162678

[ atomtypes ]
;name           bonded.type        at.num        mass        charge   ptype           sigma         epsilon
 f0bf                                   9      0.0000       0.00000       A     3.03439e-01     3.47939e-01    ;  uncertainty sigma = 0.000014, epsilon = 0.000730
 c1bf                                   6      0.0000       0.00000       A     3.31522e-01     4.13270e-01    ;  uncertainty sigma = 0.000003, epsilon = 0.000629
 c2bf                                   6      0.0000       0.00000       A     3.31517e-01     4.13283e-01    ;  uncertainty sigma = 0.000005, epsilon = 0.000586
 c3bf                                   6      0.0000       0.00000       A     3.31518e-01     4.13523e-01    ;  uncertainty sigma = 0.000004, epsilon = 0.000559
 c4bf                                   6      0.0000       0.00000       A     3.31517e-01     4.13283e-01    ;  uncertainty sigma = 0.000005, epsilon = 0.000586
 c5bf                                   6      0.0000       0.00000       A     3.31518e-01     4.13523e-01    ;  uncertainty sigma = 0.000004, epsilon = 0.000559
 c6bf                                   6      0.0000       0.00000       A     3.31539e-01     4.13063e-01    ;  uncertainty sigma = 0.000004, epsilon = 0.000645
 c7bf                                   6      0.0000       0.00000       A     3.39797e-01     4.50319e-01    ;  uncertainty sigma = 0.000011, epsilon = 0.000769
 c8bf                                   6      0.0000       0.00000       A     3.39804e-01     4.50993e-01    ;  uncertainty sigma = 0.000010, epsilon = 0.001083
 c9bf                                   6      0.0000       0.00000       A     3.31505e-01     4.12765e-01    ;  uncertainty sigma = 0.000020, epsilon = 0.001240
 o10bf                                  8      0.0000       0.00000       A     3.04800e-01     6.11756e-01    ;  uncertainty sigma = 0.000020, epsilon = 0.001396
 c11bf                                  6      0.0000       0.00000       A     3.31528e-01     4.13782e-01    ;  uncertainty sigma = 0.000020, epsilon = 0.001784
 c12bf                                  6      0.0000       0.00000       A     3.39768e-01     4.50840e-01    ;  uncertainty sigma = 0.000013, epsilon = 0.000817
 c13bf                                  6      0.0000       0.00000       A     3.31538e-01     4.13339e-01    ;  uncertainty sigma = 0.000016, epsilon = 0.001143
 n14bf                                  7      0.0000       0.00000       A     3.38423e-01     3.92979e-01    ;  uncertainty sigma = 0.000041, epsilon = 0.001548
 c15bf                                  6      0.0000       0.00000       A     3.31531e-01     4.13128e-01    ;  uncertainty sigma = 0.000018, epsilon = 0.001137
 n16bf                                  7      0.0000       0.00000       A     3.36868e-01     4.69648e-01    ;  uncertainty sigma = 0.000038, epsilon = 0.001840
 n17bf                                  7      0.0000       0.00000       A     3.38448e-01     3.93865e-01    ;  uncertainty sigma = 0.000024, epsilon = 0.000882
 c18bf                                  6      0.0000       0.00000       A     3.31517e-01     4.13387e-01    ;  uncertainty sigma = 0.000015, epsilon = 0.001047
 h19bf                                  1      0.0000       0.00000       A     2.62567e-01     6.70836e-02    ;  uncertainty sigma = 0.000012, epsilon = 0.000443
 h20bf                                  1      0.0000       0.00000       A     2.62567e-01     6.70836e-02    ;  uncertainty sigma = 0.000012, epsilon = 0.000443
 h21bf                                  1      0.0000       0.00000       A     2.62562e-01     6.69941e-02    ;  uncertainty sigma = 0.000011, epsilon = 0.000488
 h22bf                                  1      0.0000       0.00000       A     2.60082e-01     8.72397e-02    ;  uncertainty sigma = 0.000032, epsilon = 0.000639
 h23bf                                  1      0.0000       0.00000       A     2.60017e-01     8.65482e-02    ;  uncertainty sigma = 0.000011, epsilon = 0.000948
 h24bf                                  1      0.0000       0.00000       A     2.60017e-01     8.65482e-02    ;  uncertainty sigma = 0.000011, epsilon = 0.000948
 h25bf                                  1      0.0000       0.00000       A     2.60043e-01     8.67081e-02    ;  uncertainty sigma = 0.000017, epsilon = 0.001169
 h26bf                                  1      0.0000       0.00000       A     2.60043e-01     8.67081e-02    ;  uncertainty sigma = 0.000017, epsilon = 0.001169
 h27bf                                  1      0.0000       0.00000       A     1.10707e-01     4.06772e-02    ;  uncertainty sigma = 0.000046, epsilon = 0.001139
 h28bf                                  1      0.0000       0.00000       A     1.10707e-01     4.06773e-02    ;  uncertainty sigma = 0.000046, epsilon = 0.001139
 h29bf                                  1      0.0000       0.00000       A     2.62562e-01     6.69941e-02    ;  uncertainty sigma = 0.000011, epsilon = 0.000488
 h30bf                                  1      0.0000       0.00000       A     2.53621e-01     6.75449e-02    ;  uncertainty sigma = 0.000040, epsilon = 0.001015

[ moleculetype ]
;name             nrexcl
 MOL                   3

[ atoms ]
;       nr            type      resi   res      atom      cgnr      charge          mass ; qtot
         1            f0bf         1   UNL        f0         1    -0.14344       18.9980 ; qtot   -0.143
         2            c1bf         1   UNL        c1         2     0.12572       12.0110 ; qtot   -0.018
         3            c2bf         1   UNL        c2         3    -0.16456       12.0110 ; qtot   -0.182
         4            c3bf         1   UNL        c3         4    -0.09650       12.0110 ; qtot   -0.279
         5            c4bf         1   UNL        c4         5    -0.16456       12.0110 ; qtot   -0.443
         6            c5bf         1   UNL        c5         6    -0.09650       12.0110 ; qtot   -0.540
         7            c6bf         1   UNL        c6         7    -0.09992       12.0110 ; qtot   -0.640
         8            c7bf         1   UNL        c7         8    -0.00393       12.0110 ; qtot   -0.644
         9            c8bf         1   UNL        c8         9    -0.17216       12.0110 ; qtot   -0.816
        10            c9bf         1   UNL        c9        10     0.59779       12.0110 ; qtot   -0.218
        11           o10bf         1   UNL       o10        11    -0.51432       15.9990 ; qtot   -0.732
        12           c11bf         1   UNL       c11        12    -0.48235       12.0110 ; qtot   -1.215
        13           c12bf         1   UNL       c12        13    -0.13306       12.0110 ; qtot   -1.348
        14           c13bf         1   UNL       c13        14     0.53386       12.0110 ; qtot   -0.814
        15           n14bf         1   UNL       n14        15    -0.77844       14.0070 ; qtot   -1.592
        16           c15bf         1   UNL       c15        16     0.89703       12.0110 ; qtot   -0.695
        17           n16bf         1   UNL       n16        17    -0.92787       14.0070 ; qtot   -1.623
        18           n17bf         1   UNL       n17        18    -0.76110       14.0070 ; qtot   -2.384
        19           c18bf         1   UNL       c18        19     0.52996       12.0110 ; qtot   -1.854
        20           h19bf         1   UNL       h19        20     0.15167        1.0080 ; qtot   -1.703
        21           h20bf         1   UNL       h20        21     0.15167        1.0080 ; qtot   -1.551
        22           h21bf         1   UNL       h21        22     0.13769        1.0080 ; qtot   -1.413
        23           h22bf         1   UNL       h22        23     0.06152        1.0080 ; qtot   -1.352
        24           h23bf         1   UNL       h23        24     0.07932        1.0080 ; qtot   -1.272
        25           h24bf         1   UNL       h24        25     0.07932        1.0080 ; qtot   -1.193
        26           h25bf         1   UNL       h25        26     0.07809        1.0080 ; qtot   -1.115
        27           h26bf         1   UNL       h26        27     0.07809        1.0080 ; qtot   -1.037
        28           h27bf         1   UNL       h27        28     0.42693        1.0080 ; qtot   -0.610
        29           h28bf         1   UNL       h28        29     0.42693        1.0080 ; qtot   -0.183
        30           h29bf         1   UNL       h29        30     0.13769        1.0080 ; qtot   -0.045
        31           h30bf         1   UNL       h30        31     0.04543        1.0080 ; qtot    0.000

[ bonds ]
;       ai        aj funct               r               k
         1         2     1        0.135626   340851.102441    ;  uncertainty r = 0.000032, k = 2.026590
         2         3     1        0.138936   362685.790625    ;  uncertainty r = 0.000012, k = 0.636918
         2         5     1        0.138936   362685.790625    ;  uncertainty r = 0.000012, k = 0.636918
         3         4     1        0.139539   370670.682910    ;  uncertainty r = 0.000023, k = 0.983100
         3        20     1        0.108794   336729.898193    ;  uncertainty r = 0.000011, k = 0.656360
         4         7     1        0.139883   349886.719092    ;  uncertainty r = 0.000040, k = 1.384950
         4        30     1        0.108820   334247.818848    ;  uncertainty r = 0.000026, k = 0.847939
         5         6     1        0.139539   370670.682910    ;  uncertainty r = 0.000023, k = 0.983100
         5        21     1        0.108794   336729.898193    ;  uncertainty r = 0.000011, k = 0.656360
         6         7     1        0.139883   349886.719092    ;  uncertainty r = 0.000040, k = 1.384950
         6        22     1        0.108820   334247.818848    ;  uncertainty r = 0.000026, k = 0.847939
         7         8     1        0.151384   221380.945801    ;  uncertainty r = 0.000053, k = 5.920668
         8         9     1        0.153861   200695.044482    ;  uncertainty r = 0.000097, k = 4.665671
         8        13     1        0.153746   199419.082813    ;  uncertainty r = 0.000099, k = 9.130335
         8        23     1        0.109674   301680.419873    ;  uncertainty r = 0.000040, k = 4.346452
         9        10     1        0.151812   195310.647119    ;  uncertainty r = 0.000050, k = 13.101457
         9        24     1        0.109629   311050.164062    ;  uncertainty r = 0.000012, k = 1.332868
         9        25     1        0.109629   311050.164062    ;  uncertainty r = 0.000012, k = 1.332868
        10        11     1        0.122964   726099.848535    ;  uncertainty r = 0.000103, k = 5.714803
        10        12     1        0.148021   306735.133154    ;  uncertainty r = 0.000230, k = 27.570860
        12        14     1        0.141456   436091.496484    ;  uncertainty r = 0.000104, k = 16.828762
        12        19     1        0.141171   433358.004297    ;  uncertainty r = 0.000148, k = 11.291953
        13        14     1        0.150665   236780.512256    ;  uncertainty r = 0.000123, k = 13.875209
        13        26     1        0.109633   309793.814893    ;  uncertainty r = 0.000027, k = 2.262882
        13        27     1        0.109633   309793.814893    ;  uncertainty r = 0.000027, k = 2.262882
        14        15     1        0.134055   427615.908643    ;  uncertainty r = 0.000142, k = 14.905425
        15        16     1        0.136419   607819.619043    ;  uncertainty r = 0.000214, k = 15.847185
        16        17     1        0.139782   696744.175195    ;  uncertainty r = 0.000198, k = 11.556484
        16        18     1        0.136962   580032.894629    ;  uncertainty r = 0.000126, k = 15.186498
        17        28     1        0.102280   439973.290332    ;  uncertainty r = 0.000017, k = 2.625454
        17        29     1        0.102280   439973.290332    ;  uncertainty r = 0.000017, k = 2.625454
        18        19     1        0.133279   426251.282129    ;  uncertainty r = 0.000159, k = 17.674855
        19        31     1        0.108736   326393.012598    ;  uncertainty r = 0.000089, k = 3.613230

[ angles ]
;       ai        aj        ak funct           theta             cth
         1         2         3     1      119.122940      518.408428    ;  uncertainty theta = 0.001805, k = 0.036427
         1         2         5     1      119.122940      518.408428    ;  uncertainty theta = 0.001805, k = 0.036427
         2         3         4     1      118.141769      493.647966    ;  uncertainty theta = 0.001482, k = 0.029760
         2         3        20     1      120.931297      281.433278    ;  uncertainty theta = 0.001265, k = 0.015501
         2         5         6     1      118.141769      493.647966    ;  uncertainty theta = 0.001482, k = 0.029760
         2         5        21     1      120.931297      281.433278    ;  uncertainty theta = 0.001265, k = 0.015501
         3         2         5     1      121.678688      368.198448    ;  uncertainty theta = 0.004362, k = 0.083149
         3         4         7     1      122.106651      518.618343    ;  uncertainty theta = 0.002888, k = 0.062360
         3         4        30     1      119.223244      290.115416    ;  uncertainty theta = 0.001360, k = 0.028745
         4         3        20     1      121.653091      280.043676    ;  uncertainty theta = 0.001656, k = 0.041393
         4         7         6     1      119.777000      476.337987    ;  uncertainty theta = 0.003695, k = 0.119383
         4         7         8     1      120.185753      416.211342    ;  uncertainty theta = 0.002384, k = 0.122596
         5         6         7     1      122.106651      518.618343    ;  uncertainty theta = 0.002888, k = 0.062360
         5         6        22     1      119.223244      290.115416    ;  uncertainty theta = 0.001360, k = 0.028745
         6         5        21     1      121.653091      280.043676    ;  uncertainty theta = 0.001656, k = 0.041393
         6         7         8     1      120.185753      416.211342    ;  uncertainty theta = 0.002384, k = 0.122596
         7         4        30     1      118.551208      264.563049    ;  uncertainty theta = 0.001477, k = 0.062472
         7         6        22     1      118.551208      264.563049    ;  uncertainty theta = 0.001477, k = 0.062472
         7         8         9     1      110.366310      559.633111    ;  uncertainty theta = 0.000932, k = 0.115004
         7         8        13     1      110.256027      555.810206    ;  uncertainty theta = 0.000679, k = 0.107337
         7         8        23     1      105.806908      396.660163    ;  uncertainty theta = 0.001847, k = 0.120792
         8         9        10     1      111.448105      511.326285    ;  uncertainty theta = 0.004192, k = 0.040790
         8         9        24     1      108.410362      382.179728    ;  uncertainty theta = 0.002870, k = 0.081384
         8         9        25     1      108.410362      382.179728    ;  uncertainty theta = 0.002870, k = 0.081384
         8        13        14     1      109.859756      538.488193    ;  uncertainty theta = 0.002255, k = 0.132825
         8        13        26     1      108.188644      389.371489    ;  uncertainty theta = 0.003013, k = 0.066197
         8        13        27     1      108.188644      389.371489    ;  uncertainty theta = 0.003013, k = 0.066197
         9         8        13     1      109.617371      626.545828    ;  uncertainty theta = 0.002783, k = 0.108386
         9         8        23     1      106.712875      398.724519    ;  uncertainty theta = 0.001210, k = 0.126173
         9        10        11     1      123.704811      578.161497    ;  uncertainty theta = 0.001558, k = 0.080781
         9        10        12     1      116.626083      346.913810    ;  uncertainty theta = 0.006317, k = 0.441205
        10         9        24     1      106.408188      371.627475    ;  uncertainty theta = 0.002204, k = 0.064666
        10         9        25     1      106.408188      371.627507    ;  uncertainty theta = 0.002204, k = 0.064666
        10        12        14     1      122.804794      441.485547    ;  uncertainty theta = 0.004672, k = 0.249748
        10        12        19     1      121.438866      412.062807    ;  uncertainty theta = 0.005198, k = 0.133064
        11        10        12     1      123.140915      592.144597    ;  uncertainty theta = 0.002779, k = 0.174431
        12        14        13     1      120.890732      387.971672    ;  uncertainty theta = 0.004991, k = 0.176370
        12        14        15     1      121.572754      633.322739    ;  uncertainty theta = 0.003530, k = 0.305557
        12        19        18     1      122.948975      739.620701    ;  uncertainty theta = 0.005173, k = 0.216371
        12        19        31     1      118.912880      254.505386    ;  uncertainty theta = 0.006180, k = 0.118180
        13         8        23     1      106.669144      398.688735    ;  uncertainty theta = 0.002410, k = 0.023518
        13        14        15     1      120.806641      467.802879    ;  uncertainty theta = 0.002786, k = 0.134965
        14        12        19     1      119.284714      464.086304    ;  uncertainty theta = 0.005495, k = 0.318455
        14        13        26     1      107.310669      388.681891    ;  uncertainty theta = 0.001373, k = 0.069375
        14        13        27     1      107.310669      388.681891    ;  uncertainty theta = 0.001373, k = 0.069375
        14        15        16     1      115.026512      434.486751    ;  uncertainty theta = 0.006077, k = 0.313287
        15        16        17     1      124.615211      814.246136    ;  uncertainty theta = 0.008662, k = 0.110250
        15        16        18     1      127.455177      746.290930    ;  uncertainty theta = 0.006371, k = 0.090001
        16        17        28     1      118.918655      455.494599    ;  uncertainty theta = 0.002825, k = 0.029219
        16        17        29     1      118.918655      455.494599    ;  uncertainty theta = 0.002825, k = 0.029219
        16        18        19     1      115.646469      414.423489    ;  uncertainty theta = 0.008538, k = 0.206151
        17        16        18     1      124.821243      818.536689    ;  uncertainty theta = 0.006930, k = 0.132805
        18        19        31     1      118.687462      317.140956    ;  uncertainty theta = 0.003605, k = 0.024565
        24         9        25     1      106.215942      302.752838    ;  uncertainty theta = 0.002248, k = 0.039929
        26        13        27     1      105.670143      311.306716    ;  uncertainty theta = 0.002478, k = 0.062709
        28        17        29     1      107.607529      265.714724    ;  uncertainty theta = 0.002791, k = 0.046310

[ dihedrals ] ; propers for gromacs 4.5 or higher, use funct 9
;       ai        aj        ak        al funct           phase               k        pn
         1         2         3         4     9        0.000000       -0.026879         1    ;  uncertainty k = 0.241384
         1         2         3         4     9      180.000000       12.064670         2    ;  uncertainty k = 0.547144
         1         2         3         4     9        0.000000        1.507683         3    ;  uncertainty k = 0.292719
         1         2         3         4     9      180.000000        1.551314         4    ;  uncertainty k = 0.254704
         1         2         3        20     9        0.000000       -0.348946         1    ;  uncertainty k = 0.239521
         1         2         3        20     9      180.000000        8.773120         2    ;  uncertainty k = 0.299320
         1         2         3        20     9        0.000000        0.779293         3    ;  uncertainty k = 0.244355
         1         2         3        20     9      180.000000        0.947408         4    ;  uncertainty k = 0.197188
         1         2         5         6     9        0.000000       -0.026879         1    ;  uncertainty k = 0.241384
         1         2         5         6     9      180.000000       12.064670         2    ;  uncertainty k = 0.547144
         1         2         5         6     9        0.000000        1.507683         3    ;  uncertainty k = 0.292719
         1         2         5         6     9      180.000000        1.551314         4    ;  uncertainty k = 0.254704
         1         2         5        21     9        0.000000       -0.348946         1    ;  uncertainty k = 0.239521
         1         2         5        21     9      180.000000        8.773120         2    ;  uncertainty k = 0.299320
         1         2         5        21     9        0.000000        0.779293         3    ;  uncertainty k = 0.244355
         1         2         5        21     9      180.000000        0.947408         4    ;  uncertainty k = 0.197188
         2         3         4         7     9        0.000000       -0.087347         1    ;  uncertainty k = 0.183103
         2         3         4         7     9      180.000000       13.921510         2    ;  uncertainty k = 0.217555
         2         3         4         7     9        0.000000       -0.900065         3    ;  uncertainty k = 0.533975
         2         3         4         7     9      180.000000        0.790756         4    ;  uncertainty k = 0.280387
         2         3         4        30     9        0.000000       -0.067418         1    ;  uncertainty k = 0.091158
         2         3         4        30     9      180.000000        7.990807         2    ;  uncertainty k = 0.487718
         2         3         4        30     9        0.000000        1.377658         3    ;  uncertainty k = 0.330487
         2         3         4        30     9      180.000000        1.812139         4    ;  uncertainty k = 0.173146
         2         5         6         7     9        0.000000       -0.087347         1    ;  uncertainty k = 0.183103
         2         5         6         7     9      180.000000       13.921510         2    ;  uncertainty k = 0.217555
         2         5         6         7     9        0.000000       -0.900065         3    ;  uncertainty k = 0.533975
         2         5         6         7     9      180.000000        0.790756         4    ;  uncertainty k = 0.280387
         2         5         6        22     9        0.000000       -0.067418         1    ;  uncertainty k = 0.091158
         2         5         6        22     9      180.000000        7.990807         2    ;  uncertainty k = 0.487718
         2         5         6        22     9        0.000000        1.377658         3    ;  uncertainty k = 0.330487
         2         5         6        22     9      180.000000        1.812139         4    ;  uncertainty k = 0.173146
         3         2         5         6     9        0.000000        0.005292         1    ;  uncertainty k = 0.203764
         3         2         5         6     9      180.000000        9.381058         2    ;  uncertainty k = 0.474458
         3         2         5         6     9        0.000000       -0.221684         3    ;  uncertainty k = 0.409373
         3         2         5         6     9      180.000000        1.156805         4    ;  uncertainty k = 0.270444
         3         2         5        21     9        0.000000        0.112258         1    ;  uncertainty k = 0.116024
         3         2         5        21     9      180.000000        5.609769         2    ;  uncertainty k = 0.669228
         3         2         5        21     9        0.000000        1.285149         3    ;  uncertainty k = 0.303254
         3         2         5        21     9      180.000000        1.500968         4    ;  uncertainty k = 0.193386
         3         4         7         6     9        0.000000       -0.178719         1    ;  uncertainty k = 0.166935
         3         4         7         6     9      180.000000       11.783378         2    ;  uncertainty k = 0.321961
         3         4         7         6     9        0.000000       -0.441091         3    ;  uncertainty k = 0.303362
         3         4         7         6     9      180.000000        0.800950         4    ;  uncertainty k = 0.354493
         3         4         7         8     9        0.000000        0.159170         1    ;  uncertainty k = 0.270990
         3         4         7         8     9      180.000000        8.902218         2    ;  uncertainty k = 0.586434
         3         4         7         8     9        0.000000        1.358610         3    ;  uncertainty k = 0.468680
         3         4         7         8     9      180.000000        1.823519         4    ;  uncertainty k = 0.206208
         4         3         2         5     9        0.000000        0.005292         1    ;  uncertainty k = 0.203764
         4         3         2         5     9      180.000000        9.381058         2    ;  uncertainty k = 0.474458
         4         3         2         5     9        0.000000       -0.221684         3    ;  uncertainty k = 0.409373
         4         3         2         5     9      180.000000        1.156805         4    ;  uncertainty k = 0.270444
         4         7         6         5     9        0.000000       -0.178719         1    ;  uncertainty k = 0.166935
         4         7         6         5     9      180.000000       11.783378         2    ;  uncertainty k = 0.321961
         4         7         6         5     9        0.000000       -0.441091         3    ;  uncertainty k = 0.303362
         4         7         6         5     9      180.000000        0.800950         4    ;  uncertainty k = 0.354493
         4         7         6        22     9        0.000000        0.074506         1    ;  uncertainty k = 0.214992
         4         7         6        22     9      180.000000        7.141181         2    ;  uncertainty k = 0.431965
         4         7         6        22     9        0.000000        1.474884         3    ;  uncertainty k = 0.399377
         4         7         6        22     9      180.000000        1.613585         4    ;  uncertainty k = 0.169026
         4         7         8         9     9        0.000000       -0.553634         1    ;  uncertainty k = 0.378892
         4         7         8         9     9      180.000000        2.430967         2    ;  uncertainty k = 0.223763
         4         7         8         9     9        0.000000        0.278056         3    ;  uncertainty k = 0.100210
         4         7         8         9     9      180.000000        0.264657         4    ;  uncertainty k = 0.056454
         4         7         8        13     9        0.000000       -0.569974         1    ;  uncertainty k = 0.381368
         4         7         8        13     9      180.000000        2.420345         2    ;  uncertainty k = 0.203033
         4         7         8        13     9        0.000000        0.260872         3    ;  uncertainty k = 0.074402
         4         7         8        13     9      180.000000        0.267959         4    ;  uncertainty k = 0.051157
         4         7         8        23     9        0.000000       -0.288460         1    ;  uncertainty k = 0.287340
         4         7         8        23     9      180.000000        1.657792         2    ;  uncertainty k = 0.127252
         4         7         8        23     9        0.000000        0.471713         3    ;  uncertainty k = 0.124603
         4         7         8        23     9      180.000000        0.327793         4    ;  uncertainty k = 0.027933
         5         2         3        20     9        0.000000        0.112258         1    ;  uncertainty k = 0.116024
         5         2         3        20     9      180.000000        5.609769         2    ;  uncertainty k = 0.669228
         5         2         3        20     9        0.000000        1.285149         3    ;  uncertainty k = 0.303254
         5         2         3        20     9      180.000000        1.500968         4    ;  uncertainty k = 0.193386
         5         6         7         8     9        0.000000        0.159170         1    ;  uncertainty k = 0.270990
         5         6         7         8     9      180.000000        8.902218         2    ;  uncertainty k = 0.586434
         5         6         7         8     9        0.000000        1.358610         3    ;  uncertainty k = 0.468680
         5         6         7         8     9      180.000000        1.823519         4    ;  uncertainty k = 0.206208
         6         7         4        30     9        0.000000        0.074506         1    ;  uncertainty k = 0.214992
         6         7         4        30     9      180.000000        7.141181         2    ;  uncertainty k = 0.431965
         6         7         4        30     9        0.000000        1.474884         3    ;  uncertainty k = 0.399377
         6         7         4        30     9      180.000000        1.613585         4    ;  uncertainty k = 0.169026
         6         7         8         9     9        0.000000       -0.553634         1    ;  uncertainty k = 0.378892
         6         7         8         9     9      180.000000        2.430967         2    ;  uncertainty k = 0.223763
         6         7         8         9     9        0.000000        0.278056         3    ;  uncertainty k = 0.100210
         6         7         8         9     9      180.000000        0.264657         4    ;  uncertainty k = 0.056454
         6         7         8        13     9        0.000000       -0.569974         1    ;  uncertainty k = 0.381368
         6         7         8        13     9      180.000000        2.420345         2    ;  uncertainty k = 0.203033
         6         7         8        13     9        0.000000        0.260872         3    ;  uncertainty k = 0.074402
         6         7         8        13     9      180.000000        0.267959         4    ;  uncertainty k = 0.051157
         6         7         8        23     9        0.000000       -0.288460         1    ;  uncertainty k = 0.287340
         6         7         8        23     9      180.000000        1.657792         2    ;  uncertainty k = 0.127252
         6         7         8        23     9        0.000000        0.471713         3    ;  uncertainty k = 0.124603
         6         7         8        23     9      180.000000        0.327793         4    ;  uncertainty k = 0.027933
         7         4         3        20     9        0.000000        0.152721         1    ;  uncertainty k = 0.174142
         7         4         3        20     9      180.000000        7.405022         2    ;  uncertainty k = 0.475052
         7         4         3        20     9        0.000000        1.563252         3    ;  uncertainty k = 0.284926
         7         4         3        20     9      180.000000        1.877852         4    ;  uncertainty k = 0.197961
         7         6         5        21     9        0.000000        0.152721         1    ;  uncertainty k = 0.174142
         7         6         5        21     9      180.000000        7.405022         2    ;  uncertainty k = 0.475052
         7         6         5        21     9        0.000000        1.563252         3    ;  uncertainty k = 0.284926
         7         6         5        21     9      180.000000        1.877852         4    ;  uncertainty k = 0.197961
         7         8         9        10     9        0.000000       -1.976646         1    ;  uncertainty k = 0.870926
         7         8         9        10     9      180.000000        0.231330         2    ;  uncertainty k = 0.355458
         7         8         9        10     9        0.000000        0.715898         3    ;  uncertainty k = 0.230831
         7         8         9        10     9      180.000000       -0.099536         4    ;  uncertainty k = 0.120857
         7         8         9        24     9        0.000000        0.759858         1    ;  uncertainty k = 0.299527
         7         8         9        24     9      180.000000       -0.231011         2    ;  uncertainty k = 0.323806
         7         8         9        24     9        0.000000        0.828302         3    ;  uncertainty k = 0.063093
         7         8         9        24     9      180.000000       -0.028236         4    ;  uncertainty k = 0.084667
         7         8         9        25     9        0.000000        0.759858         1    ;  uncertainty k = 0.299527
         7         8         9        25     9      180.000000       -0.231011         2    ;  uncertainty k = 0.323806
         7         8         9        25     9        0.000000        0.828302         3    ;  uncertainty k = 0.063093
         7         8         9        25     9      180.000000       -0.028236         4    ;  uncertainty k = 0.084667
         7         8        13        14     9        0.000000       -1.935392         1    ;  uncertainty k = 0.589891
         7         8        13        14     9      180.000000        0.167021         2    ;  uncertainty k = 0.570015
         7         8        13        14     9        0.000000        1.027740         3    ;  uncertainty k = 0.175322
         7         8        13        14     9      180.000000       -0.006585         4    ;  uncertainty k = 0.037487
         7         8        13        26     9        0.000000        0.703930         1    ;  uncertainty k = 0.221082
         7         8        13        26     9      180.000000       -0.114042         2    ;  uncertainty k = 0.288149
         7         8        13        26     9        0.000000        0.795713         3    ;  uncertainty k = 0.148799
         7         8        13        26     9      180.000000       -0.056403         4    ;  uncertainty k = 0.089458
         7         8        13        27     9        0.000000        0.703930         1    ;  uncertainty k = 0.221082
         7         8        13        27     9      180.000000       -0.114042         2    ;  uncertainty k = 0.288149
         7         8        13        27     9        0.000000        0.795713         3    ;  uncertainty k = 0.148799
         7         8        13        27     9      180.000000       -0.056403         4    ;  uncertainty k = 0.089458
         8         7         4        30     9        0.000000       -0.013945         1    ;  uncertainty k = 0.228460
         8         7         4        30     9      180.000000        7.910175         2    ;  uncertainty k = 0.283633
         8         7         4        30     9        0.000000        0.705124         3    ;  uncertainty k = 0.329697
         8         7         4        30     9      180.000000        0.944167         4    ;  uncertainty k = 0.135707
         8         7         6        22     9        0.000000       -0.013945         1    ;  uncertainty k = 0.228460
         8         7         6        22     9      180.000000        7.910175         2    ;  uncertainty k = 0.283633
         8         7         6        22     9        0.000000        0.705124         3    ;  uncertainty k = 0.329697
         8         7         6        22     9      180.000000        0.944167         4    ;  uncertainty k = 0.135707
         8         9        10        11     9        0.000000       -1.815112         1    ;  uncertainty k = 1.593692
         8         9        10        11     9      180.000000        4.364269         2    ;  uncertainty k = 0.872140
         8         9        10        11     9        0.000000        1.430057         3    ;  uncertainty k = 0.738196
         8         9        10        11     9      180.000000        0.482510         4    ;  uncertainty k = 0.365211
         8         9        10        12     9        0.000000       -3.693003         1    ;  uncertainty k = 1.984084
         8         9        10        12     9      180.000000        2.358518         2    ;  uncertainty k = 0.759059
         8         9        10        12     9        0.000000        0.293666         3    ;  uncertainty k = 0.327707
         8         9        10        12     9      180.000000        0.206523         4    ;  uncertainty k = 0.170602
         8        13        14        12     9        0.000000       -2.986339         1    ;  uncertainty k = 2.469727
         8        13        14        12     9      180.000000        3.092044         2    ;  uncertainty k = 0.900103
         8        13        14        12     9        0.000000       -0.007198         3    ;  uncertainty k = 0.294166
         8        13        14        12     9      180.000000        0.536083         4    ;  uncertainty k = 0.240817
         8        13        14        15     9        0.000000       -2.493745         1    ;  uncertainty k = 0.811820
         8        13        14        15     9      180.000000        3.207141         2    ;  uncertainty k = 0.598933
         8        13        14        15     9        0.000000        0.566785         3    ;  uncertainty k = 0.312404
         8        13        14        15     9      180.000000        0.422725         4    ;  uncertainty k = 0.168505
         9         8        13        14     9        0.000000        0.336152         1    ;  uncertainty k = 1.842850
         9         8        13        14     9      180.000000       -1.287158         2    ;  uncertainty k = 0.684512
         9         8        13        14     9        0.000000        0.740355         3    ;  uncertainty k = 0.214162
         9         8        13        14     9      180.000000       -0.384870         4    ;  uncertainty k = 0.129811
         9         8        13        26     9        0.000000       -0.725498         1    ;  uncertainty k = 0.162309
         9         8        13        26     9      180.000000       -0.514182         2    ;  uncertainty k = 0.277134
         9         8        13        26     9        0.000000        0.265372         3    ;  uncertainty k = 0.142653
         9         8        13        26     9      180.000000        0.059294         4    ;  uncertainty k = 0.096051
         9         8        13        27     9        0.000000       -0.725498         1    ;  uncertainty k = 0.162309
         9         8        13        27     9      180.000000       -0.514182         2    ;  uncertainty k = 0.277134
         9         8        13        27     9        0.000000        0.265372         3    ;  uncertainty k = 0.142653
         9         8        13        27     9      180.000000        0.059294         4    ;  uncertainty k = 0.096051
         9        10        12        14     9        0.000000        0.332040         1    ;  uncertainty k = 2.926738
         9        10        12        14     9      180.000000        0.521274         2    ;  uncertainty k = 0.310930
         9        10        12        14     9        0.000000       -0.272696         3    ;  uncertainty k = 0.231417
         9        10        12        14     9      180.000000        0.692467         4    ;  uncertainty k = 0.209964
         9        10        12        19     9        0.000000       -2.793454         1    ;  uncertainty k = 2.136322
         9        10        12        19     9      180.000000        1.697080         2    ;  uncertainty k = 1.216400
         9        10        12        19     9        0.000000        0.066722         3    ;  uncertainty k = 0.388168
         9        10        12        19     9      180.000000        0.399284         4    ;  uncertainty k = 0.198855
        10         9         8        13     9        0.000000       -0.343637         1    ;  uncertainty k = 2.821685
        10         9         8        13     9      180.000000       -0.880727         2    ;  uncertainty k = 0.781844
        10         9         8        13     9        0.000000        0.406085         3    ;  uncertainty k = 0.292515
        10         9         8        13     9      180.000000       -0.309645         4    ;  uncertainty k = 0.391960
        10         9         8        23     9        0.000000       -1.913236         1    ;  uncertainty k = 0.719439
        10         9         8        23     9      180.000000        0.027491         2    ;  uncertainty k = 0.493672
        10         9         8        23     9        0.000000        0.235864         3    ;  uncertainty k = 0.130004
        10         9         8        23     9      180.000000       -0.005379         4    ;  uncertainty k = 0.036267
        10        12        14        13     9        0.000000       -0.839396         1    ;  uncertainty k = 0.751376
        10        12        14        13     9      180.000000        3.993883         2    ;  uncertainty k = 1.160955
        10        12        14        13     9        0.000000        0.889788         3    ;  uncertainty k = 0.420013
        10        12        14        13     9      180.000000        1.166160         4    ;  uncertainty k = 0.243849
        10        12        14        15     9        0.000000        0.034488         1    ;  uncertainty k = 0.968736
        10        12        14        15     9      180.000000        6.726317         2    ;  uncertainty k = 0.897336
        10        12        14        15     9        0.000000        0.830310         3    ;  uncertainty k = 0.232578
        10        12        14        15     9      180.000000        1.610358         4    ;  uncertainty k = 0.338587
        10        12        19        18     9        0.000000        0.002599         1    ;  uncertainty k = 0.658646
        10        12        19        18     9      180.000000        8.591088         2    ;  uncertainty k = 0.430425
        10        12        19        18     9        0.000000        0.941384         3    ;  uncertainty k = 0.377406
        10        12        19        18     9      180.000000        1.760920         4    ;  uncertainty k = 0.395576
        10        12        19        31     9        0.000000       -0.873588         1    ;  uncertainty k = 0.745132
        10        12        19        31     9      180.000000        5.828322         2    ;  uncertainty k = 0.700670
        10        12        19        31     9        0.000000        0.704980         3    ;  uncertainty k = 0.305605
        10        12        19        31     9      180.000000        1.162141         4    ;  uncertainty k = 0.096422
        11        10         9        24     9        0.000000        2.612707         1    ;  uncertainty k = 1.034468
        11        10         9        24     9      180.000000        5.058704         2    ;  uncertainty k = 0.377616
        11        10         9        24     9        0.000000        0.404917         3    ;  uncertainty k = 0.254137
        11        10         9        24     9      180.000000        0.159048         4    ;  uncertainty k = 0.137767
        11        10         9        25     9        0.000000        2.612707         1    ;  uncertainty k = 1.034468
        11        10         9        25     9      180.000000        5.058704         2    ;  uncertainty k = 0.377616
        11        10         9        25     9        0.000000        0.404917         3    ;  uncertainty k = 0.254137
        11        10         9        25     9      180.000000        0.159048         4    ;  uncertainty k = 0.137767
        11        10        12        14     9        0.000000       -1.269625         1    ;  uncertainty k = 1.806224
        11        10        12        14     9      180.000000        6.008442         2    ;  uncertainty k = 1.156386
        11        10        12        14     9        0.000000        0.256826         3    ;  uncertainty k = 0.249017
        11        10        12        14     9      180.000000       -0.101522         4    ;  uncertainty k = 0.281600
        11        10        12        19     9        0.000000       -2.380742         1    ;  uncertainty k = 1.172100
        11        10        12        19     9      180.000000        5.446318         2    ;  uncertainty k = 1.027315
        11        10        12        19     9        0.000000        0.512377         3    ;  uncertainty k = 0.206032
        11        10        12        19     9      180.000000       -0.319551         4    ;  uncertainty k = 0.238867
        12        10         9        24     9        0.000000       -2.790865         1    ;  uncertainty k = 1.165260
        12        10         9        24     9      180.000000        2.600930         2    ;  uncertainty k = 0.925291
        12        10         9        24     9        0.000000        0.549771         3    ;  uncertainty k = 0.200161
        12        10         9        24     9      180.000000        0.053087         4    ;  uncertainty k = 0.131331
        12        10         9        25     9        0.000000       -2.790865         1    ;  uncertainty k = 1.165260
        12        10         9        25     9      180.000000        2.600930         2    ;  uncertainty k = 0.925291
        12        10         9        25     9        0.000000        0.549771         3    ;  uncertainty k = 0.200161
        12        10         9        25     9      180.000000        0.053087         4    ;  uncertainty k = 0.131331
        12        14        13        26     9        0.000000       -1.167229         1    ;  uncertainty k = 0.822764
        12        14        13        26     9      180.000000        2.919853         2    ;  uncertainty k = 0.439556
        12        14        13        26     9        0.000000        0.616994         3    ;  uncertainty k = 0.199888
        12        14        13        26     9      180.000000        0.166235         4    ;  uncertainty k = 0.066675
        12        14        13        27     9        0.000000       -1.167229         1    ;  uncertainty k = 0.822764
        12        14        13        27     9      180.000000        2.919853         2    ;  uncertainty k = 0.439556
        12        14        13        27     9        0.000000        0.616994         3    ;  uncertainty k = 0.199888
        12        14        13        27     9      180.000000        0.166235         4    ;  uncertainty k = 0.066675
        12        14        15        16     9        0.000000       -0.665564         1    ;  uncertainty k = 0.997789
        12        14        15        16     9      180.000000       14.792413         2    ;  uncertainty k = 0.421131
        12        14        15        16     9        0.000000        0.099604         3    ;  uncertainty k = 0.979757
        12        14        15        16     9      180.000000        1.502547         4    ;  uncertainty k = 0.304663
        12        19        18        16     9        0.000000       -1.087967         1    ;  uncertainty k = 1.174392
        12        19        18        16     9      180.000000       16.422989         2    ;  uncertainty k = 0.500100
        12        19        18        16     9        0.000000       -0.144206         3    ;  uncertainty k = 0.729699
        12        19        18        16     9      180.000000        1.565802         4    ;  uncertainty k = 0.553152
        13         8         9        24     9        0.000000       -0.789750         1    ;  uncertainty k = 0.326052
        13         8         9        24     9      180.000000       -0.640318         2    ;  uncertainty k = 0.204355
        13         8         9        24     9        0.000000        0.280941         3    ;  uncertainty k = 0.081288
        13         8         9        24     9      180.000000        0.035028         4    ;  uncertainty k = 0.078550
        13         8         9        25     9        0.000000       -0.789750         1    ;  uncertainty k = 0.326052
        13         8         9        25     9      180.000000       -0.640318         2    ;  uncertainty k = 0.204355
        13         8         9        25     9        0.000000        0.280941         3    ;  uncertainty k = 0.081288
        13         8         9        25     9      180.000000        0.035028         4    ;  uncertainty k = 0.078550
        13        14        12        19     9        0.000000       -0.312611         1    ;  uncertainty k = 0.469089
        13        14        12        19     9      180.000000        4.761541         2    ;  uncertainty k = 1.006792
        13        14        12        19     9        0.000000        0.715844         3    ;  uncertainty k = 0.269895
        13        14        12        19     9      180.000000        1.217715         4    ;  uncertainty k = 0.411256
        13        14        15        16     9        0.000000        0.477286         1    ;  uncertainty k = 1.360139
        13        14        15        16     9      180.000000       16.653094         2    ;  uncertainty k = 0.688519
        13        14        15        16     9        0.000000        1.468400         3    ;  uncertainty k = 0.672123
        13        14        15        16     9      180.000000        1.343168         4    ;  uncertainty k = 0.456800
        14        12        19        18     9        0.000000        0.015023         1    ;  uncertainty k = 0.606477
        14        12        19        18     9      180.000000       11.493621         2    ;  uncertainty k = 0.638297
        14        12        19        18     9        0.000000       -0.750793         3    ;  uncertainty k = 0.452186
        14        12        19        18     9      180.000000        0.972959         4    ;  uncertainty k = 0.283149
        14        12        19        31     9        0.000000       -0.689562         1    ;  uncertainty k = 0.899005
        14        12        19        31     9      180.000000        5.420093         2    ;  uncertainty k = 1.336662
        14        12        19        31     9        0.000000        0.718269         3    ;  uncertainty k = 0.142265
        14        12        19        31     9      180.000000        1.185339         4    ;  uncertainty k = 0.239934
        14        13         8        23     9        0.000000       -0.717905         1    ;  uncertainty k = 0.396852
        14        13         8        23     9      180.000000       -0.120068         2    ;  uncertainty k = 0.327102
        14        13         8        23     9        0.000000        0.513329         3    ;  uncertainty k = 0.232256
        14        13         8        23     9      180.000000        0.027146         4    ;  uncertainty k = 0.057340
        14        15        16        17     9        0.000000        1.249627         1    ;  uncertainty k = 1.346136
        14        15        16        17     9      180.000000        9.519856         2    ;  uncertainty k = 0.658095
        14        15        16        17     9        0.000000        2.207408         3    ;  uncertainty k = 0.479930
        14        15        16        17     9      180.000000        0.964428         4    ;  uncertainty k = 0.200767
        14        15        16        18     9        0.000000        0.362643         1    ;  uncertainty k = 1.988849
        14        15        16        18     9      180.000000        6.883464         2    ;  uncertainty k = 1.102453
        14        15        16        18     9        0.000000        0.912363         3    ;  uncertainty k = 0.365098
        14        15        16        18     9      180.000000        0.671694         4    ;  uncertainty k = 0.159065
        15        14        12        19     9        0.000000        0.081436         1    ;  uncertainty k = 0.424743
        15        14        12        19     9      180.000000        8.665826         2    ;  uncertainty k = 0.967926
        15        14        12        19     9        0.000000       -0.426152         3    ;  uncertainty k = 0.517470
        15        14        12        19     9      180.000000        1.317782         4    ;  uncertainty k = 0.216549
        15        14        13        26     9        0.000000        1.939240         1    ;  uncertainty k = 0.998143
        15        14        13        26     9      180.000000        3.632907         2    ;  uncertainty k = 0.421748
        15        14        13        26     9        0.000000        0.318789         3    ;  uncertainty k = 0.266638
        15        14        13        26     9      180.000000        0.231202         4    ;  uncertainty k = 0.102015
        15        14        13        27     9        0.000000        1.939240         1    ;  uncertainty k = 0.998143
        15        14        13        27     9      180.000000        3.632907         2    ;  uncertainty k = 0.421748
        15        14        13        27     9        0.000000        0.318789         3    ;  uncertainty k = 0.266638
        15        14        13        27     9      180.000000        0.231202         4    ;  uncertainty k = 0.102015
        15        16        17        28     9        0.000000       20.476249         1    ;  uncertainty k = 0.247999
        15        16        17        28     9      180.000000       12.085200         2    ;  uncertainty k = 0.264849
        15        16        17        28     9        0.000000        1.011495         3    ;  uncertainty k = 0.276279
        15        16        17        28     9      180.000000       -0.534028         4    ;  uncertainty k = 0.197446
        15        16        17        29     9        0.000000       20.476249         1    ;  uncertainty k = 0.247999
        15        16        17        29     9      180.000000       12.085200         2    ;  uncertainty k = 0.264849
        15        16        17        29     9        0.000000        1.011495         3    ;  uncertainty k = 0.276279
        15        16        17        29     9      180.000000       -0.534028         4    ;  uncertainty k = 0.197446
        15        16        18        19     9        0.000000        0.203795         1    ;  uncertainty k = 1.407507
        15        16        18        19     9      180.000000        7.187698         2    ;  uncertainty k = 0.898573
        15        16        18        19     9        0.000000        0.703153         3    ;  uncertainty k = 0.473742
        15        16        18        19     9      180.000000        0.685649         4    ;  uncertainty k = 0.147660
        16        18        19        31     9        0.000000        0.081604         1    ;  uncertainty k = 1.010794
        16        18        19        31     9      180.000000       16.956571         2    ;  uncertainty k = 0.710938
        16        18        19        31     9        0.000000        1.125422         3    ;  uncertainty k = 1.011399
        16        18        19        31     9      180.000000        1.226960         4    ;  uncertainty k = 0.341967
        17        16        18        19     9        0.000000        0.803910         1    ;  uncertainty k = 1.351913
        17        16        18        19     9      180.000000        8.763759         2    ;  uncertainty k = 0.246277
        17        16        18        19     9        0.000000        2.029238         3    ;  uncertainty k = 0.535856
        17        16        18        19     9      180.000000        0.943066         4    ;  uncertainty k = 0.267829
        18        16        17        28     9        0.000000       20.749703         1    ;  uncertainty k = 0.429473
        18        16        17        28     9      180.000000       12.287619         2    ;  uncertainty k = 0.250421
        18        16        17        28     9        0.000000        1.011858         3    ;  uncertainty k = 0.154907
        18        16        17        28     9      180.000000       -0.539998         4    ;  uncertainty k = 0.190311
        18        16        17        29     9        0.000000       20.749703         1    ;  uncertainty k = 0.429473
        18        16        17        29     9      180.000000       12.287619         2    ;  uncertainty k = 0.250421
        18        16        17        29     9        0.000000        1.011858         3    ;  uncertainty k = 0.154907
        18        16        17        29     9      180.000000       -0.539998         4    ;  uncertainty k = 0.190311
        20         3         4        30     9        0.000000       -0.006849         1    ;  uncertainty k = 0.098910
        20         3         4        30     9      180.000000        7.619947         2    ;  uncertainty k = 0.278774
        20         3         4        30     9        0.000000       -0.461402         3    ;  uncertainty k = 0.233830
        20         3         4        30     9      180.000000        0.104799         4    ;  uncertainty k = 0.114056
        21         5         6        22     9        0.000000       -0.006849         1    ;  uncertainty k = 0.098910
        21         5         6        22     9      180.000000        7.619947         2    ;  uncertainty k = 0.278774
        21         5         6        22     9        0.000000       -0.461402         3    ;  uncertainty k = 0.233830
        21         5         6        22     9      180.000000        0.104799         4    ;  uncertainty k = 0.114056
        23         8         9        24     9        0.000000        1.023775         1    ;  uncertainty k = 0.274736
        23         8         9        24     9      180.000000       -0.112597         2    ;  uncertainty k = 0.123579
        23         8         9        24     9        0.000000        0.084178         3    ;  uncertainty k = 0.127415
        23         8         9        24     9      180.000000        0.059236         4    ;  uncertainty k = 0.057727
        23         8         9        25     9        0.000000        1.023775         1    ;  uncertainty k = 0.274736
        23         8         9        25     9      180.000000       -0.112597         2    ;  uncertainty k = 0.123579
        23         8         9        25     9        0.000000        0.084178         3    ;  uncertainty k = 0.127415
        23         8         9        25     9      180.000000        0.059236         4    ;  uncertainty k = 0.057727
        23         8        13        26     9        0.000000        0.967096         1    ;  uncertainty k = 0.332630
        23         8        13        26     9      180.000000       -0.164455         2    ;  uncertainty k = 0.391242
        23         8        13        26     9        0.000000        0.099061         3    ;  uncertainty k = 0.081069
        23         8        13        26     9      180.000000        0.093050         4    ;  uncertainty k = 0.076966
        23         8        13        27     9        0.000000        0.967096         1    ;  uncertainty k = 0.332630
        23         8        13        27     9      180.000000       -0.164455         2    ;  uncertainty k = 0.391242
        23         8        13        27     9        0.000000        0.099061         3    ;  uncertainty k = 0.081069
        23         8        13        27     9      180.000000        0.093050         4    ;  uncertainty k = 0.076966

[ dihedrals ] ; impropers
;       ai        aj        ak        al funct           phase               k        pn
         2         1         3         5     4      180.000000       16.708416         2    ;  uncertainty k = 0.071322
         2         3         5         1     4      180.000000       16.708416         2    ;  uncertainty k = 0.071322
         2         5         1         3     4      180.000000       16.708416         2    ;  uncertainty k = 0.071322
         3         2         4        20     4      180.000000        2.013757         2    ;  uncertainty k = 0.087766
         3         4        20         2     4      180.000000        2.013757         2    ;  uncertainty k = 0.087766
         3        20         2         4     4      180.000000        2.013757         2    ;  uncertainty k = 0.087766
         4         3         7        30     4      180.000000        4.591524         2    ;  uncertainty k = 0.126227
         4         7        30         3     4      180.000000        4.591524         2    ;  uncertainty k = 0.126227
         4        30         3         7     4      180.000000        4.591524         2    ;  uncertainty k = 0.126227
         5         2         6        21     4      180.000000        2.013757         2    ;  uncertainty k = 0.087766
         5         6        21         2     4      180.000000        2.013757         2    ;  uncertainty k = 0.087766
         5        21         2         6     4      180.000000        2.013757         2    ;  uncertainty k = 0.087766
         6         5         7        22     4      180.000000        4.591524         2    ;  uncertainty k = 0.126227
         6         7        22         5     4      180.000000        4.591524         2    ;  uncertainty k = 0.126227
         6        22         5         7     4      180.000000        4.591524         2    ;  uncertainty k = 0.126227
         7         4         6         8     4      180.000000       12.664544         2    ;  uncertainty k = 0.091909
         7         6         8         4     4      180.000000       12.664544         2    ;  uncertainty k = 0.091909
         7         8         4         6     4      180.000000       12.664544         2    ;  uncertainty k = 0.091909
        10         9        11        12     4      180.000000       56.716925         2    ;  uncertainty k = 0.036239
        10        11        12         9     4      180.000000       56.716925         2    ;  uncertainty k = 0.036239
        10        12         9        11     4      180.000000       56.716925         2    ;  uncertainty k = 0.036239
        12        10        14        19     4      180.000000        4.881222         2    ;  uncertainty k = 0.641089
        12        14        19        10     4      180.000000        4.881222         2    ;  uncertainty k = 0.641089
        12        19        10        14     4      180.000000        4.881222         2    ;  uncertainty k = 0.641089
        14        12        13        15     4      180.000000       32.083875         2    ;  uncertainty k = 0.063702
        14        13        15        12     4      180.000000       32.083875         2    ;  uncertainty k = 0.063702
        14        15        12        13     4      180.000000       32.083875         2    ;  uncertainty k = 0.063702
        16        15        17        18     4      180.000000       48.111989         2    ;  uncertainty k = 0.072087
        16        17        18        15     4      180.000000       48.111989         2    ;  uncertainty k = 0.072087
        16        18        15        17     4      180.000000       48.111989         2    ;  uncertainty k = 0.072087
        17        16        28        29     4      180.000000        0.337878         2    ;  uncertainty k = 0.461885
        17        28        29        16     4      180.000000        0.337878         2    ;  uncertainty k = 0.461885
        17        29        16        28     4      180.000000        0.337878         2    ;  uncertainty k = 0.461885
        19        12        18        31     4      180.000000       19.394260         2    ;  uncertainty k = 0.101328
        19        18        31        12     4      180.000000       19.394260         2    ;  uncertainty k = 0.101328
        19        31        12        18     4      180.000000       19.394260         2    ;  uncertainty k = 0.101328

[ pairs ]
;       ai        aj funct
         1         4     1
         1         6     1
         1        20     1
         1        21     1
         2         7     1
         2        22     1
         2        30     1
         3         6     1
         3         8     1
         3        21     1
         4         5     1
         4         9     1
         4        13     1
         4        22     1
         4        23     1
         5         8     1
         5        20     1
         6         9     1
         6        13     1
         6        23     1
         6        30     1
         7        10     1
         7        14     1
         7        20     1
         7        21     1
         7        24     1
         7        25     1
         7        26     1
         7        27     1
         8        11     1
         8        12     1
         8        15     1
         8        22     1
         8        30     1
         9        14     1
         9        19     1
         9        26     1
         9        27     1
        10        13     1
        10        15     1
        10        18     1
        10        23     1
        10        31     1
        11        14     1
        11        19     1
        11        24     1
        11        25     1
        12        16     1
        12        24     1
        12        25     1
        12        26     1
        12        27     1
        13        16     1
        13        19     1
        13        24     1
        13        25     1
        14        17     1
        14        18     1
        14        23     1
        14        31     1
        15        19     1
        15        26     1
        15        27     1
        15        28     1
        15        29     1
        16        31     1
        17        19     1
        18        28     1
        18        29     1
        20        30     1
        21        22     1
        23        24     1
        23        25     1
        23        26     1
        23        27     1
