Generated by PDBParser (exclude clash < 1.000 A)
492
    1SOL     OW    1  -0.324   1.547  -1.503
    1SOL    HW1    2  -0.238   1.505  -1.472
    1SOL    HW2    3  -0.307   1.597  -1.588
    2SOL     OW    4  -0.959   1.656   1.244
    2SOL    HW1    5  -0.999   1.727   1.188
    2SOL    HW2    6  -0.916   1.587   1.186
    3SOL     OW    7   1.140   0.542   3.824
    3SOL    HW1    8   1.065   0.505   3.768
    3SOL    HW2    9   1.177   0.469   3.882
    4SOL     OW   10   0.043   2.550   1.154
    4SOL    HW1   11   0.038   2.558   1.054
    4SOL    HW2   12   0.034   2.641   1.194
    5SOL     OW   13  -0.339   2.627   1.182
    5SOL    HW1   14  -0.239   2.623   1.172
    5SOL    HW2   15  -0.362   2.687   1.258
    6SOL     OW   16  -1.594   1.336   0.142
    6SOL    HW1   17  -1.521   1.299   0.200
    6SOL    HW2   18  -1.556   1.364   0.054
    7SOL     OW   19   1.180   0.123   3.339
    7SOL    HW1   20   1.150   0.216   3.358
    7SOL    HW2   21   1.111   0.076   3.284
    8SOL     OW   22   0.073   2.583  -0.960
    8SOL    HW1   23   0.151   2.537  -1.001
    8SOL    HW2   24   0.101   2.671  -0.923
    9SOL     OW   25  -0.472   3.064   0.309
    9SOL    HW1   26  -0.541   3.009   0.263
    9SOL    HW2   27  -0.436   3.133   0.246
   10SOL     OW   28   0.899   1.713  -0.772
   10SOL    HW1   29   0.821   1.776  -0.767
   10SOL    HW2   30   0.947   1.727  -0.859
   11SOL     OW   31  -0.260   0.302   1.311
   11SOL    HW1   32  -0.231   0.394   1.339
   11SOL    HW2   33  -0.329   0.268   1.376
   12SOL     OW   34   0.348   2.736   0.303
   12SOL    HW1   35   0.311   2.649   0.270
   12SOL    HW2   36   0.424   2.719   0.366
   13SOL     OW   37   1.395   0.507   3.259
   13SOL    HW1   38   1.397   0.448   3.178
   13SOL    HW2   39   1.395   0.450   3.341
   14SOL     OW   40   1.776  -0.319   1.650
   14SOL    HW1   41   1.719  -0.384   1.599
   14SOL    HW2   42   1.857  -0.296   1.595
   15SOL     OW   43   2.308   2.280  -0.464
   15SOL    HW1   44   2.364   2.338  -0.405
   15SOL    HW2   45   2.348   2.277  -0.556
   16SOL     OW   46   1.224   1.998  -0.194
   16SOL    HW1   47   1.317   1.984  -0.227
   16SOL    HW2   48   1.198   1.923  -0.133
   17SOL     OW   49   2.009   2.030  -0.591
   17SOL    HW1   50   1.992   1.935  -0.619
   17SOL    HW2   51   2.050   2.031  -0.500
   18SOL     OW   52   1.922   0.495  -0.193
   18SOL    HW1   53   1.997   0.539  -0.144
   18SOL    HW2   54   1.862   0.565  -0.233
   19SOL     OW   55  -0.252   0.800   2.492
   19SOL    HW1   56  -0.212   0.711   2.518
   19SOL    HW2   57  -0.291   0.844   2.573
   20SOL     OW   58   1.512   2.521   1.214
   20SOL    HW1   59   1.526   2.606   1.264
   20SOL    HW2   60   1.501   2.446   1.279
   21SOL     OW   61   2.318   1.658   0.534
   21SOL    HW1   62   2.314   1.670   0.435
   21SOL    HW2   63   2.411   1.634   0.561
   22SOL     OW   64   1.589   2.361   0.581
   22SOL    HW1   65   1.552   2.269   0.578
   22SOL    HW2   66   1.529   2.423   0.531
   23SOL     OW   67   0.907   2.003   1.663
   23SOL    HW1   68   0.959   2.031   1.583
   23SOL    HW2   69   0.917   1.904   1.677
   24SOL     OW   70   0.826   0.727  -0.112
   24SOL    HW1   71   0.801   0.725  -0.209
   24SOL    HW2   72   0.925   0.713  -0.103
   25SOL     OW   73   0.730   1.471   2.493
   25SOL    HW1   74   0.725   1.437   2.587
   25SOL    HW2   75   0.669   1.550   2.482
   26SOL     OW   76   1.520  -0.593   1.001
   26SOL    HW1   77   1.586  -0.629   1.066
   26SOL    HW2   78   1.547  -0.501   0.973
   27SOL     OW   79   2.147  -1.214   1.028
   27SOL    HW1   80   2.243  -1.237   1.048
   27SOL    HW2   81   2.126  -1.238   0.934
   28SOL     OW   82  -0.164   0.321   0.429
   28SOL    HW1   83  -0.168   0.417   0.404
   28SOL    HW2   84  -0.150   0.312   0.528
   29SOL     OW   85   2.040   2.457   0.491
   29SOL    HW1   86   1.995   2.388   0.434
   29SOL    HW2   87   2.021   2.439   0.587
   30SOL     OW   88  -0.662   0.035  -1.819
   30SOL    HW1   89  -0.645   0.125  -1.858
   30SOL    HW2   90  -0.622   0.031  -1.727
   31SOL     OW   91   0.455  -0.179   0.208
   31SOL    HW1   92   0.445  -0.138   0.299
   31SOL    HW2   93   0.541  -0.230   0.204
   32SOL     OW   94  -0.540   0.016  -0.063
   32SOL    HW1   95  -0.515  -0.046  -0.137
   32SOL    HW2   96  -0.508   0.108  -0.086
   33SOL     OW   97  -1.322   0.334  -0.386
   33SOL    HW1   98  -1.244   0.386  -0.351
   33SOL    HW2   99  -1.334   0.252  -0.330
   34SOL     OW  100   0.481  -0.566   2.391
   34SOL    HW1  101   0.536  -0.489   2.357
   34SOL    HW2  102   0.419  -0.597   2.320
   35SOL     OW  103  -0.269   1.177  -1.456
   35SOL    HW1  104  -0.342   1.109  -1.467
   35SOL    HW2  105  -0.230   1.171  -1.365
   36SOL     OW  106   1.861  -0.210   0.492
   36SOL    HW1  107   1.826  -0.119   0.514
   36SOL    HW2  108   1.943  -0.202   0.436
   37SOL     OW  109   2.954   1.578  -0.460
   37SOL    HW1  110   3.017   1.513  -0.502
   37SOL    HW2  111   2.874   1.528  -0.424
   38SOL     OW  112   0.354   0.385  -1.881
   38SOL    HW1  113   0.382   0.349  -1.969
   38SOL    HW2  114   0.429   0.374  -1.815
   39SOL     OW  115  -0.694   0.871   1.736
   39SOL    HW1  116  -0.648   0.798   1.684
   39SOL    HW2  117  -0.627   0.940   1.764
   40SOL     OW  118   1.172   1.055  -1.874
   40SOL    HW1  119   1.150   0.958  -1.873
   40SOL    HW2  120   1.242   1.074  -1.805
   41SOL     OW  121   1.692  -0.907   0.898
   41SOL    HW1  122   1.754  -0.877   0.971
   41SOL    HW2  123   1.642  -0.828   0.862
   42SOL     OW  124   0.470   0.178   1.535
   42SOL    HW1  125   0.465   0.150   1.631
   42SOL    HW2  126   0.452   0.100   1.476
   43SOL     OW  127   2.854   0.934  -0.094
   43SOL    HW1  128   2.898   0.920  -0.005
   43SOL    HW2  129   2.908   0.889  -0.165
   44SOL     OW  130   2.553   1.083   0.265
   44SOL    HW1  131   2.464   1.128   0.263
   44SOL    HW2  132   2.616   1.136   0.321
   45SOL     OW  133   1.879   1.482   2.300
   45SOL    HW1  134   1.802   1.500   2.239
   45SOL    HW2  135   1.850   1.423   2.375
   46SOL     OW  136   0.981  -0.554   2.139
   46SOL    HW1  137   0.909  -0.570   2.072
   46SOL    HW2  138   1.024  -0.641   2.163
   47SOL     OW  139   0.842   0.970   0.146
   47SOL    HW1  140   0.834   0.926   0.057
   47SOL    HW2  141   0.903   1.048   0.140
   48SOL     OW  142   1.256   1.093  -0.843
   48SOL    HW1  143   1.165   1.053  -0.831
   48SOL    HW2  144   1.298   1.109  -0.754
   49SOL     OW  145  -0.479   1.575   2.252
   49SOL    HW1  146  -0.412   1.502   2.263
   49SOL    HW2  147  -0.458   1.628   2.170
   50SOL     OW  148   1.759   0.873   2.974
   50SOL    HW1  149   1.714   0.945   2.920
   50SOL    HW2  150   1.690   0.822   3.025
   51SOL     OW  151  -0.838   2.394   0.985
   51SOL    HW1  152  -0.887   2.309   1.005
   51SOL    HW2  153  -0.808   2.393   0.889
   52SOL     OW  154   0.157   0.063   1.521
   52SOL    HW1  155   0.234   0.011   1.484
   52SOL    HW2  156   0.112   0.010   1.593
   53SOL     OW  157   0.712   0.230   1.286
   53SOL    HW1  158   0.723   0.190   1.377
   53SOL    HW2  159   0.777   0.304   1.274
   54SOL     OW  160   0.941   2.099  -1.276
   54SOL    HW1  161   0.897   2.031  -1.218
   54SOL    HW2  162   0.920   2.081  -1.372
   55SOL     OW  163  -1.201   1.802  -0.131
   55SOL    HW1  164  -1.270   1.750  -0.081
   55SOL    HW2  165  -1.200   1.896  -0.097
   56SOL     OW  166   2.564   1.401   0.039
   56SOL    HW1  167   2.647   1.456   0.024
   56SOL    HW2  168   2.526   1.423   0.129
   57SOL     OW  169   1.620   0.119   1.068
   57SOL    HW1  170   1.700   0.172   1.095
   57SOL    HW2  171   1.649   0.041   1.011
   58SOL     OW  172   1.967   0.084   3.442
   58SOL    HW1  173   2.007   0.124   3.359
   58SOL    HW2  174   1.938   0.158   3.503
   59SOL     OW  175   2.600   1.259   0.547
   59SOL    HW1  176   2.529   1.236   0.613
   59SOL    HW2  177   2.595   1.357   0.527
   60SOL     OW  178  -0.229   0.600   3.149
   60SOL    HW1  179  -0.232   0.567   3.054
   60SOL    HW2  180  -0.205   0.697   3.149
   61SOL     OW  181   2.045   0.980   2.824
   61SOL    HW1  182   1.961   0.949   2.868
   61SOL    HW2  183   2.023   1.049   2.755
   62SOL     OW  184   2.480   1.844  -0.828
   62SOL    HW1  185   2.547   1.903  -0.874
   62SOL    HW2  186   2.485   1.752  -0.868
   63SOL     OW  187   0.478   1.771   2.186
   63SOL    HW1  188   0.382   1.766   2.214
   63SOL    HW2  189   0.483   1.800   2.090
   64SOL     OW  190   1.543   1.711  -0.793
   64SOL    HW1  191   1.561   1.744  -0.701
   64SOL    HW2  192   1.580   1.619  -0.804
   65SOL     OW  193   0.301   2.433   1.232
   65SOL    HW1  194   0.359   2.476   1.163
   65SOL    HW2  195   0.214   2.483   1.238
   66SOL     OW  196  -1.570   0.461   1.105
   66SOL    HW1  197  -1.589   0.555   1.075
   66SOL    HW2  198  -1.632   0.436   1.179
   67SOL     OW  199   1.003   3.026  -0.495
   67SOL    HW1  200   1.062   3.107  -0.495
   67SOL    HW2  201   1.058   2.945  -0.514
   68SOL     OW  202   2.488   2.323  -0.710
   68SOL    HW1  203   2.543   2.250  -0.752
   68SOL    HW2  204   2.477   2.398  -0.775
   69SOL     OW  205  -0.535   2.397  -0.718
   69SOL    HW1  206  -0.435   2.398  -0.712
   69SOL    HW2  207  -0.565   2.308  -0.753
   70SOL     OW  208   1.375   2.335   0.090
   70SOL    HW1  209   1.346   2.291   0.175
   70SOL    HW2  210   1.311   2.312   0.017
   71SOL     OW  211   2.331   0.849   0.240
   71SOL    HW1  212   2.297   0.939   0.212
   71SOL    HW2  213   2.430   0.854   0.254
   72SOL     OW  214   0.235   2.595   0.812
   72SOL    HW1  215   0.136   2.606   0.822
   72SOL    HW2  216   0.253   2.522   0.746
   73SOL     OW  217   1.295   1.021  -0.139
   73SOL    HW1  218   1.293   1.101  -0.199
   73SOL    HW2  219   1.328   1.047  -0.049
   74SOL     OW  220  -1.474   2.284  -0.148
   74SOL    HW1  221  -1.392   2.232  -0.122
   74SOL    HW2  222  -1.508   2.251  -0.236
   75SOL     OW  223   1.535  -0.086  -1.436
   75SOL    HW1  224   1.438  -0.077  -1.462
   75SOL    HW2  225   1.541  -0.109  -1.339
   76SOL     OW  226  -0.197   0.395  -1.894
   76SOL    HW1  227  -0.110   0.354  -1.866
   76SOL    HW2  228  -0.250   0.418  -1.813
   77SOL     OW  229   1.401   0.323   3.004
   77SOL    HW1  230   1.493   0.323   2.965
   77SOL    HW2  231   1.336   0.357   2.937
   78SOL     OW  232   1.502   0.068  -0.873
   78SOL    HW1  233   1.503   0.134  -0.949
   78SOL    HW2  234   1.408   0.057  -0.840
   79SOL     OW  235  -1.617   2.171   0.543
   79SOL    HW1  236  -1.693   2.120   0.583
   79SOL    HW2  237  -1.542   2.176   0.609
   80SOL     OW  238   2.430   0.885  -1.240
   80SOL    HW1  239   2.357   0.820  -1.220
   80SOL    HW2  240   2.403   0.977  -1.213
   81SOL     OW  241   0.203   1.089  -1.573
   81SOL    HW1  242   0.245   1.037  -1.648
   81SOL    HW2  243   0.186   1.183  -1.602
   82SOL     OW  244  -0.295  -0.087  -1.789
   82SOL    HW1  245  -0.222  -0.106  -1.723
   82SOL    HW2  246  -0.341  -0.002  -1.764
   83SOL     OW  247  -0.595   2.099   1.064
   83SOL    HW1  248  -0.603   2.074   0.968
   83SOL    HW2  249  -0.634   2.026   1.121
   84SOL     OW  250  -1.228   0.959   1.240
   84SOL    HW1  251  -1.293   0.908   1.183
   84SOL    HW2  252  -1.200   1.042   1.193
   85SOL     OW  253   1.188   2.127   1.778
   85SOL    HW1  254   1.102   2.089   1.743
   85SOL    HW2  255   1.170   2.217   1.818
   86SOL     OW  256   1.695   0.315   2.867
   86SOL    HW1  257   1.688   0.276   2.775
   86SOL    HW2  258   1.756   0.258   2.922
   87SOL     OW  259  -2.038   0.647   0.507
   87SOL    HW1  260  -2.000   0.679   0.594
   87SOL    HW2  261  -2.008   0.708   0.433
   88SOL     OW  262   1.748   0.085   0.562
   88SOL    HW1  263   1.795   0.121   0.643
   88SOL    HW2  264   1.650   0.080   0.580
   89SOL     OW  265   1.302   0.726  -0.177
   89SOL    HW1  266   1.300   0.826  -0.165
   89SOL    HW2  267   1.239   0.683  -0.113
   90SOL     OW  268  -1.081   0.665   1.191
   90SOL    HW1  269  -1.125   0.753   1.206
   90SOL    HW2  270  -1.040   0.663   1.099
   91SOL     OW  271   1.839   1.304  -0.505
   91SOL    HW1  272   1.846   1.398  -0.537
   91SOL    HW2  273   1.930   1.267  -0.488
   92SOL     OW  274   0.361   1.673   2.515
   92SOL    HW1  275   0.338   1.761   2.473
   92SOL    HW2  276   0.378   1.605   2.443
   93SOL     OW  277   2.525   0.949   1.622
   93SOL    HW1  278   2.532   1.046   1.646
   93SOL    HW2  279   2.431   0.927   1.597
   94SOL     OW  280   1.393   1.602  -1.109
   94SOL    HW1  281   1.379   1.672  -1.039
   94SOL    HW2  282   1.313   1.542  -1.111
   95SOL     OW  283  -1.151   2.413  -0.316
   95SOL    HW1  284  -1.181   2.353  -0.390
   95SOL    HW2  285  -1.133   2.359  -0.234
   96SOL     OW  286   1.996  -0.193   2.719
   96SOL    HW1  287   1.930  -0.246   2.771
   96SOL    HW2  288   1.948  -0.128   2.660
   97SOL     OW  289  -0.948   0.714  -2.069
   97SOL    HW1  290  -0.894   0.634  -2.040
   97SOL    HW2  291  -0.915   0.795  -2.021
   98SOL     OW  292   0.441   2.440   1.500
   98SOL    HW1  293   0.394   2.438   1.411
   98SOL    HW2  294   0.503   2.362   1.507
   99SOL     OW  295   1.532   0.509  -0.155
   99SOL    HW1  296   1.528   0.436  -0.224
   99SOL    HW2  297   1.533   0.598  -0.201
  100SOL     OW  298  -0.089   1.145   2.987
  100SOL    HW1  299  -0.075   1.140   2.888
  100SOL    HW2  300  -0.114   1.054   3.022
  101SOL     OW  301   1.125   2.717   1.151
  101SOL    HW1  302   1.071   2.657   1.210
  101SOL    HW2  303   1.165   2.791   1.205
  102SOL     OW  304  -1.515   2.038   0.289
  102SOL    HW1  305  -1.533   2.045   0.387
  102SOL    HW2  306  -1.600   2.044   0.238
  103SOL     OW  307   0.320   2.440  -1.088
  103SOL    HW1  308   0.327   2.347  -1.052
  103SOL    HW2  309   0.403   2.490  -1.065
  104SOL     OW  310  -0.613   0.432   1.742
  104SOL    HW1  311  -0.583   0.499   1.673
  104SOL    HW2  312  -0.665   0.479   1.813
  105SOL     OW  313   1.032   1.763  -1.032
  105SOL    HW1  314   1.039   1.673  -1.075
  105SOL    HW2  315   0.941   1.801  -1.050
  106SOL     OW  316  -1.505   2.604  -0.218
  106SOL    HW1  317  -1.496   2.506  -0.197
  106SOL    HW2  318  -1.533   2.653  -0.136
  107SOL     OW  319   2.838   1.243  -0.156
  107SOL    HW1  320   2.759   1.282  -0.108
  107SOL    HW2  321   2.827   1.256  -0.254
  108SOL     OW  322   2.505  -0.550   1.657
  108SOL    HW1  323   2.441  -0.625   1.642
  108SOL    HW2  324   2.577  -0.555   1.587
  109SOL     OW  325   1.371  -0.621   1.893
  109SOL    HW1  326   1.359  -0.608   1.794
  109SOL    HW2  327   1.281  -0.620   1.936
  110SOL     OW  328   0.732   2.257  -1.064
  110SOL    HW1  329   0.791   2.210  -1.129
  110SOL    HW2  330   0.698   2.342  -1.105
  111SOL     OW  331   3.119   1.506   0.546
  111SOL    HW1  332   3.092   1.602   0.544
  111SOL    HW2  333   3.087   1.464   0.630
  112SOL     OW  334   0.060   0.940  -1.283
  112SOL    HW1  335   0.056   1.028  -1.236
  112SOL    HW2  336   0.086   0.954  -1.379
  113SOL     OW  337   1.824   2.575   0.282
  113SOL    HW1  338   1.845   2.478   0.291
  113SOL    HW2  339   1.727   2.590   0.302
  114SOL     OW  340   0.550   0.063  -1.917
  114SOL    HW1  341   0.568   0.023  -2.007
  114SOL    HW2  342   0.464   0.115  -1.920
  115SOL     OW  343   0.940   1.768  -1.808
  115SOL    HW1  344   0.967   1.772  -1.711
  115SOL    HW2  345   0.898   1.855  -1.834
  116SOL     OW  346   0.575   1.054  -1.857
  116SOL    HW1  347   0.518   1.115  -1.913
  116SOL    HW2  348   0.533   1.041  -1.768
  117SOL     OW  349   0.233  -0.606   1.793
  117SOL    HW1  350   0.269  -0.587   1.884
  117SOL    HW2  351   0.249  -0.527   1.734
  118SOL     OW  352   0.655   3.024  -0.409
  118SOL    HW1  353   0.652   2.931  -0.446
  118SOL    HW2  354   0.592   3.082  -0.460
  119SOL     OW  355   2.064  -0.546   0.621
  119SOL    HW1  356   2.108  -0.531   0.710
  119SOL    HW2  357   1.999  -0.621   0.628
  120SOL     OW  358   0.254   0.422   1.232
  120SOL    HW1  359   0.181   0.453   1.292
  120SOL    HW2  360   0.304   0.501   1.196
  121SOL     OW  361   1.213   2.342   2.110
  121SOL    HW1  362   1.242   2.405   2.182
  121SOL    HW2  363   1.113   2.336   2.109
  122SOL     OW  364   0.938   2.505   0.645
  122SOL    HW1  365   0.923   2.406   0.644
  122SOL    HW2  366   1.018   2.527   0.589
  123SOL     OW  367   2.263   0.224   0.663
  123SOL    HW1  368   2.227   0.178   0.745
  123SOL    HW2  369   2.202   0.299   0.637
  124SOL     OW  370  -0.156   0.294   1.648
  124SOL    HW1  371  -0.102   0.300   1.732
  124SOL    HW2  372  -0.234   0.356   1.655
  125SOL     OW  373   0.999   1.564   2.722
  125SOL    HW1  374   0.914   1.510   2.725
  125SOL    HW2  375   0.993   1.639   2.788
  126SOL     OW  376   2.699   0.292   2.000
  126SOL    HW1  377   2.713   0.325   2.093
  126SOL    HW2  378   2.758   0.343   1.937
  127SOL     OW  379   0.094   1.998   2.577
  127SOL    HW1  380   0.166   1.966   2.516
  127SOL    HW2  381   0.119   1.977   2.672
  128SOL     OW  382   2.361  -1.042   2.280
  128SOL    HW1  383   2.277  -1.074   2.325
  128SOL    HW2  384   2.440  -1.082   2.326
  129SOL     OW  385  -0.337  -0.365  -1.635
  129SOL    HW1  386  -0.324  -0.279  -1.683
  129SOL    HW2  387  -0.294  -0.361  -1.545
  130SOL     OW  388   0.901   2.878  -0.229
  130SOL    HW1  389   0.828   2.921  -0.283
  130SOL    HW2  390   0.984   2.873  -0.285
  131SOL     OW  391  -1.397   1.548  -0.821
  131SOL    HW1  392  -1.337   1.479  -0.783
  131SOL    HW2  393  -1.469   1.504  -0.876
  132SOL     OW  394   1.993  -1.599   1.079
  132SOL    HW1  395   2.086  -1.600   1.044
  132SOL    HW2  396   1.932  -1.644   1.014
  133SOL     OW  397   1.468   1.723   1.669
  133SOL    HW1  398   1.543   1.768   1.621
  133SOL    HW2  399   1.410   1.675   1.604
  134SOL     OW  400   1.941  -0.523  -0.914
  134SOL    HW1  401   2.029  -0.535  -0.960
  134SOL    HW2  402   1.875  -0.589  -0.950
  135SOL     OW  403   1.980   2.099   0.072
  135SOL    HW1  404   1.952   2.146   0.155
  135SOL    HW2  405   1.917   2.121  -0.003
  136SOL     OW  406   2.404   1.411  -0.899
  136SOL    HW1  407   2.407   1.439  -0.803
  136SOL    HW2  408   2.348   1.477  -0.950
  137SOL     OW  409   2.065   1.516   2.026
  137SOL    HW1  410   2.075   1.615   2.040
  137SOL    HW2  411   2.010   1.477   2.099
  138SOL     OW  412   2.071   0.130  -0.915
  138SOL    HW1  413   1.995   0.195  -0.919
  138SOL    HW2  414   2.087   0.103  -0.820
  139SOL     OW  415   1.169   0.716   0.762
  139SOL    HW1  416   1.131   0.758   0.844
  139SOL    HW2  417   1.123   0.753   0.681
  140SOL     OW  418  -0.920   0.521  -0.908
  140SOL    HW1  419  -0.996   0.561  -0.856
  140SOL    HW2  420  -0.871   0.456  -0.851
  141SOL     OW  421   0.748  -0.605   1.919
  141SOL    HW1  422   0.757  -0.505   1.927
  141SOL    HW2  423   0.663  -0.627   1.871
  142SOL     OW  424   1.228  -0.056  -1.518
  142SOL    HW1  425   1.200   0.039  -1.508
  142SOL    HW2  426   1.172  -0.114  -1.458
  143SOL     OW  427   2.745   0.149   1.332
  143SOL    HW1  428   2.662   0.100   1.306
  143SOL    HW2  429   2.735   0.246   1.308
  144SOL     OW  430  -1.879   0.782   0.869
  144SOL    HW1  431  -1.793   0.767   0.919
  144SOL    HW2  432  -1.876   0.729   0.783
  145SOL     OW  433   1.465  -1.130   0.991
  145SOL    HW1  434   1.533  -1.062   0.963
  145SOL    HW2  435   1.445  -1.191   0.914
  146SOL     OW  436   0.404  -0.105   1.401
  146SOL    HW1  437   0.375  -0.170   1.472
  146SOL    HW2  438   0.485  -0.140   1.355
  147SOL     OW  439   2.615  -0.319   2.203
  147SOL    HW1  440   2.606  -0.311   2.104
  147SOL    HW2  441   2.545  -0.382   2.238
  148SOL     OW  442   1.468  -0.385   1.452
  148SOL    HW1  443   1.458  -0.483   1.437
  148SOL    HW2  444   1.474  -0.338   1.363
  149SOL     OW  445  -0.869   1.690   1.872
  149SOL    HW1  446  -0.831   1.779   1.897
  149SOL    HW2  447  -0.855   1.625   1.947
  150SOL     OW  448   2.575  -0.027   2.338
  150SOL    HW1  449   2.587  -0.117   2.296
  150SOL    HW2  450   2.501  -0.031   2.405
  151SOL     OW  451   2.161   0.638  -0.034
  151SOL    HW1  452   2.179   0.687  -0.120
  151SOL    HW2  453   2.213   0.680   0.040
  152SOL     OW  454  -1.936   0.877   0.165
  152SOL    HW1  455  -1.872   0.800   0.157
  152SOL    HW2  456  -1.885   0.962   0.172
  153SOL     OW  457  -0.324  -0.437  -0.675
  153SOL    HW1  458  -0.380  -0.367  -0.631
  153SOL    HW2  459  -0.311  -0.514  -0.612
  154SOL     OW  460   0.339   1.898  -1.257
  154SOL    HW1  461   0.312   1.844  -1.178
  154SOL    HW2  462   0.422   1.860  -1.298
  155SOL     OW  463   2.364  -1.015   1.945
  155SOL    HW1  464   2.363  -1.023   2.045
  155SOL    HW2  465   2.400  -1.100   1.905
  156SOL     OW  466  -0.065  -0.219  -0.225
  156SOL    HW1  467  -0.038  -0.145  -0.285
  156SOL    HW2  468  -0.143  -0.191  -0.169
  157SOL     OW  469   1.481   0.274  -1.698
  157SOL    HW1  470   1.417   0.256  -1.623
  157SOL    HW2  471   1.574   0.249  -1.670
  158SOL     OW  472   1.123   2.021  -0.472
  158SOL    HW1  473   1.113   1.929  -0.512
  158SOL    HW2  474   1.156   2.013  -0.379
  159SOL     OW  475   1.785   1.785   2.261
  159SOL    HW1  476   1.735   1.714   2.211
  159SOL    HW2  477   1.801   1.754   2.355
  160SOL     OW  478   1.109   2.031   3.063
  160SOL    HW1  479   1.135   1.941   3.098
  160SOL    HW2  480   1.121   2.100   3.135
  161SOL     OW  481   2.179   1.968  -0.870
  161SOL    HW1  482   2.271   1.930  -0.857
  161SOL    HW2  483   2.137   1.982  -0.780
  162SOL     OW  484   0.024  -0.325   2.388
  162SOL    HW1  485   0.094  -0.352   2.322
  162SOL    HW2  486  -0.065  -0.358   2.357
  163SOL     OW  487   0.544  -0.081   2.872
  163SOL    HW1  488   0.489  -0.163   2.861
  163SOL    HW2  489   0.539  -0.050   2.967
  164SOL     OW  490   0.682   0.510   0.032
  164SOL    HW1  491   0.730   0.583  -0.017
  164SOL    HW2  492   0.605   0.478  -0.024
    4.8816    4.8816    4.8816
