; ITP file created by ByteFF-ML, 2025-12-06 03:39:25.139378

[ atomtypes ]
;name           bonded.type        at.num        mass        charge   ptype           sigma         epsilon
 f0bf                                   9      0.0000       0.00000       A     3.03427e-01     3.47782e-01
 c1bf                                   6      0.0000       0.00000       A     3.31525e-01     4.13214e-01
 c2bf                                   6      0.0000       0.00000       A     3.31491e-01     4.12522e-01
 c3bf                                   6      0.0000       0.00000       A     3.31544e-01     4.12514e-01
 c4bf                                   6      0.0000       0.00000       A     3.31491e-01     4.12522e-01
 c5bf                                   6      0.0000       0.00000       A     3.31544e-01     4.12514e-01
 c6bf                                   6      0.0000       0.00000       A     3.31406e-01     4.12228e-01
 c7bf                                   6      0.0000       0.00000       A     3.39780e-01     4.52018e-01
 c8bf                                   6      0.0000       0.00000       A     3.39868e-01     4.50821e-01
 c9bf                                   6      0.0000       0.00000       A     3.31332e-01     4.12707e-01
 n10bf                                  7      0.0000       0.00000       A     3.38783e-01     3.92738e-01
 o11bf                                  8      0.0000       0.00000       A     3.24179e-01     3.84587e-01
 c12bf                                  6      0.0000       0.00000       A     3.31376e-01     4.11971e-01
 c13bf                                  6      0.0000       0.00000       A     3.39863e-01     4.51913e-01
 c14bf                                  6      0.0000       0.00000       A     3.31469e-01     4.12873e-01
 n15bf                                  7      0.0000       0.00000       A     3.38241e-01     3.91806e-01
 c16bf                                  6      0.0000       0.00000       A     3.31382e-01     4.14783e-01
 n17bf                                  7      0.0000       0.00000       A     3.36784e-01     4.72733e-01
 n18bf                                  7      0.0000       0.00000       A     3.38303e-01     3.93616e-01
 c19bf                                  6      0.0000       0.00000       A     3.31230e-01     4.14413e-01
 h20bf                                  1      0.0000       0.00000       A     2.62526e-01     6.71227e-02
 h21bf                                  1      0.0000       0.00000       A     2.62526e-01     6.71227e-02
 h22bf                                  1      0.0000       0.00000       A     2.62479e-01     6.73525e-02
 h23bf                                  1      0.0000       0.00000       A     2.59841e-01     8.68565e-02
 h24bf                                  1      0.0000       0.00000       A     2.59890e-01     8.73641e-02
 h25bf                                  1      0.0000       0.00000       A     2.59890e-01     8.73641e-02
 h26bf                                  1      0.0000       0.00000       A     5.35355e-02     2.08814e-02
 h27bf                                  1      0.0000       0.00000       A     2.59803e-01     8.72028e-02
 h28bf                                  1      0.0000       0.00000       A     2.59803e-01     8.72028e-02
 h29bf                                  1      0.0000       0.00000       A     1.10066e-01     4.24315e-02
 h30bf                                  1      0.0000       0.00000       A     1.10066e-01     4.24315e-02
 h31bf                                  1      0.0000       0.00000       A     2.62479e-01     6.73525e-02
 h32bf                                  1      0.0000       0.00000       A     2.53485e-01     6.65513e-02

[ moleculetype ]
;name             nrexcl
 11                    3

[ atoms ]
;       nr            type      resi   res      atom      cgnr      charge          mass ; qtot
         1            f0bf         1   UNL        f0         1    -0.18099       18.9980 ; qtot   -0.181
         2            c1bf         1   UNL        c1         2     0.15907       12.0110 ; qtot   -0.022
         3            c2bf         1   UNL        c2         3    -0.14679       12.0110 ; qtot   -0.169
         4            c3bf         1   UNL        c3         4    -0.07972       12.0110 ; qtot   -0.248
         5            c4bf         1   UNL        c4         5    -0.14679       12.0110 ; qtot   -0.395
         6            c5bf         1   UNL        c5         6    -0.07972       12.0110 ; qtot   -0.475
         7            c6bf         1   UNL        c6         7    -0.09372       12.0110 ; qtot   -0.569
         8            c7bf         1   UNL        c7         8    -0.00607       12.0110 ; qtot   -0.575
         9            c8bf         1   UNL        c8         9    -0.11918       12.0110 ; qtot   -0.694
        10            c9bf         1   UNL        c9        10     0.44349       12.0110 ; qtot   -0.250
        11           n10bf         1   UNL       n10        11    -0.32189       14.0070 ; qtot   -0.572
        12           o11bf         1   UNL       o11        12    -0.52066       15.9990 ; qtot   -1.093
        13           c12bf         1   UNL       c12        13    -0.30594       12.0110 ; qtot   -1.399
        14           c13bf         1   UNL       c13        14    -0.13373       12.0110 ; qtot   -1.533
        15           c14bf         1   UNL       c14        15     0.17847       12.0110 ; qtot   -1.354
        16           n15bf         1   UNL       n15        16    -0.24095       14.0070 ; qtot   -1.595
        17           c16bf         1   UNL       c16        17     0.36756       12.0110 ; qtot   -1.228
        18           n17bf         1   UNL       n17        18    -1.03015       14.0070 ; qtot   -2.258
        19           n18bf         1   UNL       n18        19    -0.24637       14.0070 ; qtot   -2.504
        20           c19bf         1   UNL       c19        20     0.18835       12.0110 ; qtot   -2.316
        21           h20bf         1   UNL       h20        21     0.13470        1.0080 ; qtot   -2.181
        22           h21bf         1   UNL       h21        22     0.13470        1.0080 ; qtot   -2.046
        23           h22bf         1   UNL       h22        23     0.11843        1.0080 ; qtot   -1.928
        24           h23bf         1   UNL       h23        24     0.06119        1.0080 ; qtot   -1.867
        25           h24bf         1   UNL       h24        25     0.06837        1.0080 ; qtot   -1.798
        26           h25bf         1   UNL       h25        26     0.06837        1.0080 ; qtot   -1.730
        27           h26bf         1   UNL       h26        27     0.46640        1.0080 ; qtot   -1.264
        28           h27bf         1   UNL       h27        28     0.07268        1.0080 ; qtot   -1.191
        29           h28bf         1   UNL       h28        29     0.07268        1.0080 ; qtot   -1.118
        30           h29bf         1   UNL       h29        30     0.47748        1.0080 ; qtot   -0.641
        31           h30bf         1   UNL       h30        31     0.47748        1.0080 ; qtot   -0.163
        32           h31bf         1   UNL       h31        32     0.11843        1.0080 ; qtot   -0.045
        33           h32bf         1   UNL       h32        33     0.04482        1.0080 ; qtot   -0.000

[ bonds ]
;       ai        aj funct               r               k
         1         2     1        0.135808   286795.783691
         2         3     1        0.139113   307731.029346
         2         5     1        0.139113   307731.029346
         3         4     1        0.139776   318191.361328
         3        21     1        0.108513   324000.491895
         4         7     1        0.140360   285683.361670
         4        32     1        0.108643   317148.987598
         5         6     1        0.139776   318191.361328
         5        22     1        0.108513   324000.491895
         6         7     1        0.140360   285683.361670
         6        23     1        0.108643   317148.987598
         7         8     1        0.151622   188534.924194
         8         9     1        0.154267   170291.226025
         8        14     1        0.153840   177270.377563
         8        24     1        0.109591   297224.449658
         9        10     1        0.151127   188989.765649
         9        25     1        0.109422   298913.142090
         9        26     1        0.109422   298913.142090
        10        11     1        0.129024   505805.864258
        10        13     1        0.147226   207710.816235
        11        12     1        0.140889   209139.081226
        12        27     1        0.097167   471574.697070
        13        15     1        0.140933   265953.799561
        13        20     1        0.140548   276607.804980
        14        15     1        0.150759   198415.001978
        14        28     1        0.109510   297123.935596
        14        29     1        0.109510   297123.935596
        15        16     1        0.133615   329331.516699
        16        17     1        0.134833   264285.562354
        17        18     1        0.136602   334912.115674
        17        19     1        0.135162   257250.982520
        18        30     1        0.101078   429790.878711
        18        31     1        0.101078   429790.827637
        19        20     1        0.133129   358360.289502
        20        33     1        0.108718   318089.008594

[ angles ]
;       ai        aj        ak funct           theta             cth
         1         2         3     1      119.015671      576.816457
         1         2         5     1      119.015671      576.816457
         2         3         4     1      118.466797      689.389654
         2         3        21     1      119.845154      438.392939
         2         5         6     1      118.466797      689.389654
         2         5        22     1      119.845154      438.392939
         3         2         5     1      121.938232      573.794204
         3         4         7     1      121.506065      697.750376
         3         4        32     1      118.778732      431.565082
         4         3        21     1      121.715736      425.041628
         4         7         6     1      117.974442      638.683552
         4         7         8     1      120.972153      506.982806
         5         6         7     1      121.506065      697.750376
         5         6        23     1      118.778732      431.565082
         6         5        22     1      121.715736      425.041628
         6         7         8     1      120.972153      506.982806
         7         4        32     1      119.861877      409.843536
         7         6        23     1      119.861877      409.843568
         7         8         9     1      112.207932      600.219303
         7         8        14     1      112.462585      596.584351
         7         8        24     1      107.657303      506.826423
         8         9        10     1      111.248146      660.057028
         8         9        25     1      109.981178      471.076672
         8         9        26     1      109.981178      471.076609
         8        14        15     1      112.310318      603.282734
         8        14        28     1      110.408531      467.288306
         8        14        29     1      110.408531      467.288306
         9         8        14     1      109.191566      565.994597
         9         8        24     1      107.275330      480.275586
         9        10        11     1      120.008690      432.688460
         9        10        13     1      117.153885      491.594910
        10         9        25     1      109.013084      496.407857
        10         9        26     1      109.013084      496.407857
        10        11        12     1      113.112999      801.250620
        10        13        15     1      120.230179      594.837421
        10        13        20     1      123.885643      513.558516
        11        10        13     1      124.515732      399.499155
        11        12        27     1      102.120949      637.494545
        13        15        14     1      120.560204      495.019947
        13        15        16     1      122.318359      740.579364
        13        20        19     1      123.672630      754.235397
        13        20        33     1      119.552567      405.439119
        14         8        24     1      107.443764      480.181354
        14        15        16     1      116.970764      441.773765
        15        13        20     1      115.494774      773.622596
        15        14        28     1      108.370018      513.192218
        15        14        29     1      108.370018      513.192218
        15        16        17     1      116.580101      849.389476
        16        17        18     1      116.771118      577.833728
        16        17        19     1      126.387306      667.883513
        17        18        30     1      117.066307      464.047743
        17        18        31     1      117.066307      464.047743
        17        19        20     1      115.779945      941.439838
        18        17        19     1      116.752159      621.263030
        19        20        33     1      116.720825      391.075580
        25         9        26     1      107.134850      355.028227
        28        14        29     1      106.622803      364.625743
        30        18        31     1      117.697060      318.890408

[ dihedrals ] ; propers for gromacs 4.5 or higher, use funct 9
;       ai        aj        ak        al funct           phase               k        pn
         1         2         3         4     9        0.000000        0.595726         1
         1         2         3         4     9      180.000000       23.163802         2
         1         2         3         4     9        0.000000        0.535926         3
         1         2         3         4     9      180.000000       -0.656523         4
         1         2         3        21     9        0.000000        0.247396         1
         1         2         3        21     9      180.000000       15.711528         2
         1         2         3        21     9        0.000000        0.305856         3
         1         2         3        21     9      180.000000        0.172634         4
         1         2         5         6     9        0.000000        0.595726         1
         1         2         5         6     9      180.000000       23.163802         2
         1         2         5         6     9        0.000000        0.535926         3
         1         2         5         6     9      180.000000       -0.656523         4
         1         2         5        22     9        0.000000        0.247396         1
         1         2         5        22     9      180.000000       15.711528         2
         1         2         5        22     9        0.000000        0.305856         3
         1         2         5        22     9      180.000000        0.172634         4
         2         3         4         7     9        0.000000       -0.021855         1
         2         3         4         7     9      180.000000       19.104828         2
         2         3         4         7     9        0.000000       -1.491856         3
         2         3         4         7     9      180.000000       -0.448759         4
         2         3         4        32     9        0.000000        0.214396         1
         2         3         4        32     9      180.000000       14.908485         2
         2         3         4        32     9        0.000000       -0.513548         3
         2         3         4        32     9      180.000000        0.100368         4
         2         5         6         7     9        0.000000       -0.021855         1
         2         5         6         7     9      180.000000       19.104828         2
         2         5         6         7     9        0.000000       -1.491856         3
         2         5         6         7     9      180.000000       -0.448759         4
         2         5         6        23     9        0.000000        0.214397         1
         2         5         6        23     9      180.000000       14.908488         2
         2         5         6        23     9        0.000000       -0.513549         3
         2         5         6        23     9      180.000000        0.100368         4
         3         2         5         6     9        0.000000       -0.115152         1
         3         2         5         6     9      180.000000       16.950368         2
         3         2         5         6     9        0.000000       -1.159834         3
         3         2         5         6     9      180.000000       -0.292430         4
         3         2         5        22     9        0.000000        0.134860         1
         3         2         5        22     9      180.000000       12.681977         2
         3         2         5        22     9        0.000000       -0.511494         3
         3         2         5        22     9      180.000000        0.160510         4
         3         4         7         6     9        0.000000       -0.111579         1
         3         4         7         6     9      180.000000       19.061766         2
         3         4         7         6     9        0.000000       -1.515364         3
         3         4         7         6     9      180.000000       -0.407968         4
         3         4         7         8     9        0.000000        0.148813         1
         3         4         7         8     9      180.000000       15.569574         2
         3         4         7         8     9        0.000000       -0.110256         3
         3         4         7         8     9      180.000000       -0.241952         4
         4         3         2         5     9        0.000000       -0.115152         1
         4         3         2         5     9      180.000000       16.950368         2
         4         3         2         5     9        0.000000       -1.159834         3
         4         3         2         5     9      180.000000       -0.292430         4
         4         7         6         5     9        0.000000       -0.111579         1
         4         7         6         5     9      180.000000       19.061766         2
         4         7         6         5     9        0.000000       -1.515364         3
         4         7         6         5     9      180.000000       -0.407968         4
         4         7         6        23     9        0.000000       -0.020018         1
         4         7         6        23     9      180.000000       14.341013         2
         4         7         6        23     9        0.000000       -0.665879         3
         4         7         6        23     9      180.000000        0.044535         4
         4         7         8         9     9        0.000000        0.056179         1
         4         7         8         9     9      180.000000        0.497412         2
         4         7         8         9     9        0.000000        0.152247         3
         4         7         8         9     9      180.000000        0.109106         4
         4         7         8        14     9        0.000000        0.076933         1
         4         7         8        14     9      180.000000        0.574084         2
         4         7         8        14     9        0.000000        0.179297         3
         4         7         8        14     9      180.000000        0.083703         4
         4         7         8        24     9        0.000000        0.153580         1
         4         7         8        24     9      180.000000       -0.112162         2
         4         7         8        24     9        0.000000        0.069867         3
         4         7         8        24     9      180.000000       -0.025034         4
         5         2         3        21     9        0.000000        0.134860         1
         5         2         3        21     9      180.000000       12.681977         2
         5         2         3        21     9        0.000000       -0.511494         3
         5         2         3        21     9      180.000000        0.160510         4
         5         6         7         8     9        0.000000        0.148813         1
         5         6         7         8     9      180.000000       15.569574         2
         5         6         7         8     9        0.000000       -0.110256         3
         5         6         7         8     9      180.000000       -0.241952         4
         6         7         4        32     9        0.000000       -0.020019         1
         6         7         4        32     9      180.000000       14.341012         2
         6         7         4        32     9        0.000000       -0.665879         3
         6         7         4        32     9      180.000000        0.044536         4
         6         7         8         9     9        0.000000        0.056179         1
         6         7         8         9     9      180.000000        0.497412         2
         6         7         8         9     9        0.000000        0.152247         3
         6         7         8         9     9      180.000000        0.109106         4
         6         7         8        14     9        0.000000        0.076933         1
         6         7         8        14     9      180.000000        0.574084         2
         6         7         8        14     9        0.000000        0.179297         3
         6         7         8        14     9      180.000000        0.083703         4
         6         7         8        24     9        0.000000        0.153580         1
         6         7         8        24     9      180.000000       -0.112162         2
         6         7         8        24     9        0.000000        0.069867         3
         6         7         8        24     9      180.000000       -0.025034         4
         7         4         3        21     9        0.000000        0.069335         1
         7         4         3        21     9      180.000000       14.163433         2
         7         4         3        21     9        0.000000       -0.638643         3
         7         4         3        21     9      180.000000        0.143198         4
         7         6         5        22     9        0.000000        0.069335         1
         7         6         5        22     9      180.000000       14.163433         2
         7         6         5        22     9        0.000000       -0.638643         3
         7         6         5        22     9      180.000000        0.143198         4
         7         8         9        10     9        0.000000       -0.649536         1
         7         8         9        10     9      180.000000       -0.261823         2
         7         8         9        10     9        0.000000        0.345657         3
         7         8         9        10     9      180.000000        0.066691         4
         7         8         9        25     9        0.000000        0.029838         1
         7         8         9        25     9      180.000000        0.026065         2
         7         8         9        25     9        0.000000        0.490434         3
         7         8         9        25     9      180.000000       -0.043775         4
         7         8         9        26     9        0.000000        0.029838         1
         7         8         9        26     9      180.000000        0.026067         2
         7         8         9        26     9        0.000000        0.490434         3
         7         8         9        26     9      180.000000       -0.043775         4
         7         8        14        15     9        0.000000       -0.313494         1
         7         8        14        15     9      180.000000       -0.306571         2
         7         8        14        15     9        0.000000        0.564730         3
         7         8        14        15     9      180.000000        0.074403         4
         7         8        14        28     9        0.000000        0.049825         1
         7         8        14        28     9      180.000000       -0.011891         2
         7         8        14        28     9        0.000000        0.543850         3
         7         8        14        28     9      180.000000       -0.042095         4
         7         8        14        29     9        0.000000        0.049825         1
         7         8        14        29     9      180.000000       -0.011891         2
         7         8        14        29     9        0.000000        0.543850         3
         7         8        14        29     9      180.000000       -0.042095         4
         8         7         4        32     9        0.000000       -0.074920         1
         8         7         4        32     9      180.000000       13.012186         2
         8         7         4        32     9        0.000000       -0.351043         3
         8         7         4        32     9      180.000000        0.196548         4
         8         7         6        23     9        0.000000       -0.074920         1
         8         7         6        23     9      180.000000       13.012186         2
         8         7         6        23     9        0.000000       -0.351043         3
         8         7         6        23     9      180.000000        0.196548         4
         8         9        10        11     9        0.000000       -1.083153         1
         8         9        10        11     9      180.000000       -0.847875         2
         8         9        10        11     9        0.000000       -0.444257         3
         8         9        10        11     9      180.000000        0.183517         4
         8         9        10        13     9        0.000000        0.033951         1
         8         9        10        13     9      180.000000       -0.646406         2
         8         9        10        13     9        0.000000        0.032059         3
         8         9        10        13     9      180.000000        0.160639         4
         8        14        15        13     9        0.000000        1.657769         1
         8        14        15        13     9      180.000000       -1.063944         2
         8        14        15        13     9        0.000000       -0.180098         3
         8        14        15        13     9      180.000000        0.443498         4
         8        14        15        16     9        0.000000       -0.348014         1
         8        14        15        16     9      180.000000       -0.404174         2
         8        14        15        16     9        0.000000        0.245127         3
         8        14        15        16     9      180.000000        0.236491         4
         9         8        14        15     9        0.000000        3.217517         1
         9         8        14        15     9      180.000000       -2.281468         2
         9         8        14        15     9        0.000000       -0.058116         3
         9         8        14        15     9      180.000000        0.174313         4
         9         8        14        28     9        0.000000       -0.012887         1
         9         8        14        28     9      180.000000        0.037674         2
         9         8        14        28     9        0.000000        0.239313         3
         9         8        14        28     9      180.000000        0.037410         4
         9         8        14        29     9        0.000000       -0.012887         1
         9         8        14        29     9      180.000000        0.037674         2
         9         8        14        29     9        0.000000        0.239313         3
         9         8        14        29     9      180.000000        0.037410         4
         9        10        11        12     9        0.000000        3.252203         1
         9        10        11        12     9      180.000000       51.887719         2
         9        10        11        12     9        0.000000        3.034897         3
         9        10        11        12     9      180.000000       -3.471283         4
         9        10        13        15     9        0.000000        0.001821         1
         9        10        13        15     9      180.000000        3.181297         2
         9        10        13        15     9        0.000000       -0.273439         3
         9        10        13        15     9      180.000000        0.195817         4
         9        10        13        20     9        0.000000       -1.078681         1
         9        10        13        20     9      180.000000        3.515841         2
         9        10        13        20     9        0.000000       -0.144746         3
         9        10        13        20     9      180.000000        0.150722         4
        10         9         8        14     9        0.000000        0.193499         1
        10         9         8        14     9      180.000000       -0.500197         2
        10         9         8        14     9        0.000000       -0.011025         3
        10         9         8        14     9      180.000000       -0.212942         4
        10         9         8        24     9        0.000000       -0.296659         1
        10         9         8        24     9      180.000000       -0.046722         2
        10         9         8        24     9        0.000000        0.169163         3
        10         9         8        24     9      180.000000        0.116090         4
        10        11        12        27     9        0.000000        2.024121         1
        10        11        12        27     9      180.000000       12.678770         2
        10        11        12        27     9        0.000000       -0.330975         3
        10        11        12        27     9      180.000000        0.221989         4
        10        13        15        14     9        0.000000       -0.081095         1
        10        13        15        14     9      180.000000       12.701550         2
        10        13        15        14     9        0.000000        0.058892         3
        10        13        15        14     9      180.000000       -0.446282         4
        10        13        15        16     9        0.000000       -0.138668         1
        10        13        15        16     9      180.000000       13.265177         2
        10        13        15        16     9        0.000000       -0.033823         3
        10        13        15        16     9      180.000000       -0.447267         4
        10        13        20        19     9        0.000000       -0.068819         1
        10        13        20        19     9      180.000000       13.845205         2
        10        13        20        19     9        0.000000        0.048471         3
        10        13        20        19     9      180.000000       -0.494599         4
        10        13        20        33     9        0.000000       -0.028253         1
        10        13        20        33     9      180.000000       11.684197         2
        10        13        20        33     9        0.000000       -0.010865         3
        10        13        20        33     9      180.000000       -0.085467         4
        11        10         9        25     9        0.000000       -0.062281         1
        11        10         9        25     9      180.000000       -0.089707         2
        11        10         9        25     9        0.000000       -0.519571         3
        11        10         9        25     9      180.000000        0.016824         4
        11        10         9        26     9        0.000000       -0.062281         1
        11        10         9        26     9      180.000000       -0.089707         2
        11        10         9        26     9        0.000000       -0.519571         3
        11        10         9        26     9      180.000000        0.016824         4
        11        10        13        15     9        0.000000        1.888015         1
        11        10        13        15     9      180.000000        3.601241         2
        11        10        13        15     9        0.000000        0.315727         3
        11        10        13        15     9      180.000000       -0.060737         4
        11        10        13        20     9        0.000000        0.770710         1
        11        10        13        20     9      180.000000        3.814427         2
        11        10        13        20     9        0.000000        0.320550         3
        11        10        13        20     9      180.000000       -0.045678         4
        12        11        10        13     9        0.000000        1.194487         1
        12        11        10        13     9      180.000000       38.770240         2
        12        11        10        13     9        0.000000        3.824235         3
        12        11        10        13     9      180.000000       -1.756185         4
        13        10         9        25     9        0.000000        0.051098         1
        13        10         9        25     9      180.000000       -0.096648         2
        13        10         9        25     9        0.000000       -0.079830         3
        13        10         9        25     9      180.000000        0.154182         4
        13        10         9        26     9        0.000000        0.051097         1
        13        10         9        26     9      180.000000       -0.096649         2
        13        10         9        26     9        0.000000       -0.079829         3
        13        10         9        26     9      180.000000        0.154182         4
        13        15        14        28     9        0.000000       -0.018522         1
        13        15        14        28     9      180.000000       -0.028330         2
        13        15        14        28     9        0.000000       -0.231855         3
        13        15        14        28     9      180.000000        0.035401         4
        13        15        14        29     9        0.000000       -0.018522         1
        13        15        14        29     9      180.000000       -0.028330         2
        13        15        14        29     9        0.000000       -0.231855         3
        13        15        14        29     9      180.000000        0.035401         4
        13        15        16        17     9        0.000000       -0.829526         1
        13        15        16        17     9      180.000000       19.604488         2
        13        15        16        17     9        0.000000       -0.673400         3
        13        15        16        17     9      180.000000       -0.273950         4
        13        20        19        17     9        0.000000       -0.704938         1
        13        20        19        17     9      180.000000       20.948294         2
        13        20        19        17     9        0.000000       -1.276740         3
        13        20        19        17     9      180.000000       -0.206957         4
        14         8         9        25     9        0.000000       -0.035060         1
        14         8         9        25     9      180.000000        0.066395         2
        14         8         9        25     9        0.000000        0.194452         3
        14         8         9        25     9      180.000000        0.051826         4
        14         8         9        26     9        0.000000       -0.035060         1
        14         8         9        26     9      180.000000        0.066395         2
        14         8         9        26     9        0.000000        0.194452         3
        14         8         9        26     9      180.000000        0.051826         4
        14        15        13        20     9        0.000000        0.012482         1
        14        15        13        20     9      180.000000       12.430198         2
        14        15        13        20     9        0.000000       -0.024727         3
        14        15        13        20     9      180.000000       -0.371572         4
        14        15        16        17     9        0.000000        0.293064         1
        14        15        16        17     9      180.000000       20.610724         2
        14        15        16        17     9        0.000000        0.593723         3
        14        15        16        17     9      180.000000       -0.826397         4
        15        13        20        19     9        0.000000        0.252392         1
        15        13        20        19     9      180.000000       13.936697         2
        15        13        20        19     9        0.000000       -0.224869         3
        15        13        20        19     9      180.000000       -0.277823         4
        15        13        20        33     9        0.000000        0.288294         1
        15        13        20        33     9      180.000000       12.628423         2
        15        13        20        33     9        0.000000       -0.283320         3
        15        13        20        33     9      180.000000       -0.168012         4
        15        14         8        24     9        0.000000       -0.278051         1
        15        14         8        24     9      180.000000       -0.059909         2
        15        14         8        24     9        0.000000        0.273833         3
        15        14         8        24     9      180.000000        0.089371         4
        15        16        17        18     9        0.000000        1.247319         1
        15        16        17        18     9      180.000000       18.809178         2
        15        16        17        18     9        0.000000        0.454804         3
        15        16        17        18     9      180.000000       -1.303541         4
        15        16        17        19     9        0.000000        0.327321         1
        15        16        17        19     9      180.000000       10.303849         2
        15        16        17        19     9        0.000000        0.838719         3
        15        16        17        19     9      180.000000       -0.477356         4
        16        15        13        20     9        0.000000        0.166568         1
        16        15        13        20     9      180.000000       14.025081         2
        16        15        13        20     9        0.000000       -0.044732         3
        16        15        13        20     9      180.000000       -0.508297         4
        16        15        14        28     9        0.000000        0.111133         1
        16        15        14        28     9      180.000000        0.072780         2
        16        15        14        28     9        0.000000        0.018690         3
        16        15        14        28     9      180.000000        0.008674         4
        16        15        14        29     9        0.000000        0.111133         1
        16        15        14        29     9      180.000000        0.072780         2
        16        15        14        29     9        0.000000        0.018690         3
        16        15        14        29     9      180.000000        0.008674         4
        16        17        18        30     9        0.000000        2.068125         1
        16        17        18        30     9      180.000000        8.500600         2
        16        17        18        30     9        0.000000       -0.260618         3
        16        17        18        30     9      180.000000       -0.742210         4
        16        17        18        31     9        0.000000        2.068125         1
        16        17        18        31     9      180.000000        8.500600         2
        16        17        18        31     9        0.000000       -0.260618         3
        16        17        18        31     9      180.000000       -0.742210         4
        16        17        19        20     9        0.000000        0.615405         1
        16        17        19        20     9      180.000000       11.294575         2
        16        17        19        20     9        0.000000        0.564882         3
        16        17        19        20     9      180.000000       -0.433730         4
        17        19        20        33     9        0.000000        0.356049         1
        17        19        20        33     9      180.000000       18.492385         2
        17        19        20        33     9        0.000000       -0.275172         3
        17        19        20        33     9      180.000000        0.046746         4
        18        17        19        20     9        0.000000        1.138540         1
        18        17        19        20     9      180.000000       20.172826         2
        18        17        19        20     9        0.000000        0.398444         3
        18        17        19        20     9      180.000000       -1.305231         4
        19        17        18        30     9        0.000000        1.980462         1
        19        17        18        30     9      180.000000        8.437557         2
        19        17        18        30     9        0.000000       -0.214409         3
        19        17        18        30     9      180.000000       -0.855761         4
        19        17        18        31     9        0.000000        1.980462         1
        19        17        18        31     9      180.000000        8.437556         2
        19        17        18        31     9        0.000000       -0.214409         3
        19        17        18        31     9      180.000000       -0.855761         4
        21         3         4        32     9        0.000000       -0.227669         1
        21         3         4        32     9      180.000000       11.625787         2
        21         3         4        32     9        0.000000       -0.739828         3
        21         3         4        32     9      180.000000        0.301893         4
        22         5         6        23     9        0.000000       -0.227670         1
        22         5         6        23     9      180.000000       11.625787         2
        22         5         6        23     9        0.000000       -0.739827         3
        22         5         6        23     9      180.000000        0.301893         4
        24         8         9        25     9        0.000000        0.008271         1
        24         8         9        25     9      180.000000        0.035558         2
        24         8         9        25     9        0.000000        0.399288         3
        24         8         9        25     9      180.000000       -0.041525         4
        24         8         9        26     9        0.000000        0.008270         1
        24         8         9        26     9      180.000000        0.035557         2
        24         8         9        26     9        0.000000        0.399288         3
        24         8         9        26     9      180.000000       -0.041525         4
        24         8        14        28     9        0.000000        0.008530         1
        24         8        14        28     9      180.000000       -0.001695         2
        24         8        14        28     9        0.000000        0.450569         3
        24         8        14        28     9      180.000000       -0.035413         4
        24         8        14        29     9        0.000000        0.008530         1
        24         8        14        29     9      180.000000       -0.001695         2
        24         8        14        29     9        0.000000        0.450569         3
        24         8        14        29     9      180.000000       -0.035413         4

[ dihedrals ] ; impropers
;       ai        aj        ak        al funct           phase               k        pn
         2         1         3         5     4      180.000000        0.578985         2
         2         3         5         1     4      180.000000        0.578985         2
         2         5         1         3     4      180.000000        0.578985         2
        10         9        11        13     4      180.000000       11.392111         2
        10        11        13         9     4      180.000000       11.392111         2
        10        13         9        11     4      180.000000       11.392111         2
        15        13        14        16     4      180.000000       14.475536         2
        15        14        16        13     4      180.000000       14.475536         2
        15        16        13        14     4      180.000000       14.475536         2
        17        16        18        19     4      180.000000        4.071695         2
        17        18        19        16     4      180.000000        4.071695         2
        17        19        16        18     4      180.000000        4.071695         2
        20        13        19        33     4      180.000000       13.343716         2
        20        19        33        13     4      180.000000       13.343716         2
        20        33        13        19     4      180.000000       13.343716         2

[ pairs ]
;       ai        aj funct
         1         4     1
         1         6     1
         1        21     1
         1        22     1
         2         7     1
         2        23     1
         2        32     1
         3         6     1
         3         8     1
         3        22     1
         4         5     1
         4         9     1
         4        14     1
         4        23     1
         4        24     1
         5         8     1
         5        21     1
         6         9     1
         6        14     1
         6        24     1
         6        32     1
         7        10     1
         7        15     1
         7        21     1
         7        22     1
         7        25     1
         7        26     1
         7        28     1
         7        29     1
         8        11     1
         8        13     1
         8        16     1
         8        23     1
         8        32     1
         9        12     1
         9        15     1
         9        20     1
         9        28     1
         9        29     1
        10        14     1
        10        16     1
        10        19     1
        10        24     1
        10        27     1
        10        33     1
        11        15     1
        11        20     1
        11        25     1
        11        26     1
        12        13     1
        13        17     1
        13        25     1
        13        26     1
        13        28     1
        13        29     1
        14        17     1
        14        20     1
        14        25     1
        14        26     1
        15        18     1
        15        19     1
        15        24     1
        15        33     1
        16        20     1
        16        28     1
        16        29     1
        16        30     1
        16        31     1
        17        33     1
        18        20     1
        19        30     1
        19        31     1
        21        32     1
        22        23     1
        24        25     1
        24        26     1
        24        28     1
        24        29     1
