; ITP file created by ByteFF-ML, 2025-12-06 03:39:37.139467

[ atomtypes ]
;name           bonded.type        at.num        mass        charge   ptype           sigma         epsilon
 f0bf                                   9      0.0000       0.00000       A     3.03427e-01     3.47782e-01
 c1bf                                   6      0.0000       0.00000       A     3.31525e-01     4.13214e-01
 c2bf                                   6      0.0000       0.00000       A     3.31491e-01     4.12522e-01
 c3bf                                   6      0.0000       0.00000       A     3.31544e-01     4.12514e-01
 c4bf                                   6      0.0000       0.00000       A     3.31491e-01     4.12522e-01
 c5bf                                   6      0.0000       0.00000       A     3.31544e-01     4.12514e-01
 c6bf                                   6      0.0000       0.00000       A     3.31406e-01     4.12228e-01
 c7bf                                   6      0.0000       0.00000       A     3.39780e-01     4.52018e-01
 c8bf                                   6      0.0000       0.00000       A     3.39872e-01     4.49329e-01
 c9bf                                   6      0.0000       0.00000       A     3.31501e-01     4.13824e-01
 n10bf                                  7      0.0000       0.00000       A     3.38862e-01     3.93244e-01
 o11bf                                  8      0.0000       0.00000       A     3.24179e-01     3.84587e-01
 c12bf                                  6      0.0000       0.00000       A     3.31471e-01     4.16170e-01
 c13bf                                  6      0.0000       0.00000       A     3.39793e-01     4.51737e-01
 c14bf                                  6      0.0000       0.00000       A     3.31493e-01     4.13301e-01
 n15bf                                  7      0.0000       0.00000       A     3.38250e-01     3.91083e-01
 c16bf                                  6      0.0000       0.00000       A     3.31280e-01     4.15256e-01
 n17bf                                  7      0.0000       0.00000       A     3.36802e-01     4.71982e-01
 n18bf                                  7      0.0000       0.00000       A     3.38408e-01     3.91650e-01
 c19bf                                  6      0.0000       0.00000       A     3.31307e-01     4.10333e-01
 h20bf                                  1      0.0000       0.00000       A     2.62526e-01     6.71227e-02
 h21bf                                  1      0.0000       0.00000       A     2.62526e-01     6.71227e-02
 h22bf                                  1      0.0000       0.00000       A     2.62479e-01     6.73525e-02
 h23bf                                  1      0.0000       0.00000       A     2.59841e-01     8.68565e-02
 h24bf                                  1      0.0000       0.00000       A     2.59890e-01     8.73641e-02
 h25bf                                  1      0.0000       0.00000       A     2.59890e-01     8.73641e-02
 h26bf                                  1      0.0000       0.00000       A     5.35355e-02     2.08814e-02
 h27bf                                  1      0.0000       0.00000       A     2.59803e-01     8.72028e-02
 h28bf                                  1      0.0000       0.00000       A     2.59803e-01     8.72028e-02
 h29bf                                  1      0.0000       0.00000       A     1.10066e-01     4.24315e-02
 h30bf                                  1      0.0000       0.00000       A     1.10066e-01     4.24315e-02
 c31bf                                  6      0.0000       0.00000       A     3.39764e-01     4.51935e-01
 h32bf                                  1      0.0000       0.00000       A     2.59969e-01     8.70097e-02
 h33bf                                  1      0.0000       0.00000       A     2.59969e-01     8.70097e-02
 h34bf                                  1      0.0000       0.00000       A     2.59969e-01     8.70097e-02
 h35bf                                  1      0.0000       0.00000       A     2.62479e-01     6.73525e-02

[ moleculetype ]
;name             nrexcl
 12                    3

[ atoms ]
;       nr            type      resi   res      atom      cgnr      charge          mass ; qtot
         1            f0bf         1   UNL        f0         1    -0.18099       18.9980 ; qtot   -0.181
         2            c1bf         1   UNL        c1         2     0.15907       12.0110 ; qtot   -0.022
         3            c2bf         1   UNL        c2         3    -0.14679       12.0110 ; qtot   -0.169
         4            c3bf         1   UNL        c3         4    -0.07972       12.0110 ; qtot   -0.248
         5            c4bf         1   UNL        c4         5    -0.14679       12.0110 ; qtot   -0.395
         6            c5bf         1   UNL        c5         6    -0.07972       12.0110 ; qtot   -0.475
         7            c6bf         1   UNL        c6         7    -0.09372       12.0110 ; qtot   -0.569
         8            c7bf         1   UNL        c7         8    -0.00611       12.0110 ; qtot   -0.575
         9            c8bf         1   UNL        c8         9    -0.12066       12.0110 ; qtot   -0.695
        10            c9bf         1   UNL        c9        10     0.44773       12.0110 ; qtot   -0.248
        11           n10bf         1   UNL       n10        11    -0.32560       14.0070 ; qtot   -0.573
        12           o11bf         1   UNL       o11        12    -0.52514       15.9990 ; qtot   -1.098
        13           c12bf         1   UNL       c12        13    -0.30294       12.0110 ; qtot   -1.401
        14           c13bf         1   UNL       c13        14    -0.13353       12.0110 ; qtot   -1.535
        15           c14bf         1   UNL       c14        15     0.17965       12.0110 ; qtot   -1.355
        16           n15bf         1   UNL       n15        16    -0.24622       14.0070 ; qtot   -1.601
        17           c16bf         1   UNL       c16        17     0.37063       12.0110 ; qtot   -1.231
        18           n17bf         1   UNL       n17        18    -1.02809       14.0070 ; qtot   -2.259
        19           n18bf         1   UNL       n18        19    -0.26323       14.0070 ; qtot   -2.522
        20           c19bf         1   UNL       c19        20     0.21953       12.0110 ; qtot   -2.303
        21           h20bf         1   UNL       h20        21     0.13470        1.0080 ; qtot   -2.168
        22           h21bf         1   UNL       h21        22     0.13470        1.0080 ; qtot   -2.033
        23           h22bf         1   UNL       h22        23     0.11843        1.0080 ; qtot   -1.915
        24           h23bf         1   UNL       h23        24     0.06119        1.0080 ; qtot   -1.854
        25           h24bf         1   UNL       h24        25     0.06831        1.0080 ; qtot   -1.785
        26           h25bf         1   UNL       h25        26     0.06831        1.0080 ; qtot   -1.717
        27           h26bf         1   UNL       h26        27     0.46640        1.0080 ; qtot   -1.251
        28           h27bf         1   UNL       h27        28     0.07157        1.0080 ; qtot   -1.179
        29           h28bf         1   UNL       h28        29     0.07157        1.0080 ; qtot   -1.107
        30           h29bf         1   UNL       h29        30     0.47640        1.0080 ; qtot   -0.631
        31           h30bf         1   UNL       h30        31     0.47640        1.0080 ; qtot   -0.155
        32           c31bf         1   UNL       c31        32    -0.15202       12.0110 ; qtot   -0.307
        33           h32bf         1   UNL       h32        33     0.06275        1.0080 ; qtot   -0.244
        34           h33bf         1   UNL       h33        34     0.06275        1.0080 ; qtot   -0.181
        35           h34bf         1   UNL       h34        35     0.06275        1.0080 ; qtot   -0.118
        36           h35bf         1   UNL       h35        36     0.11843        1.0080 ; qtot   -0.000

[ bonds ]
;       ai        aj funct               r               k
         1         2     1        0.135808   286795.783691
         2         3     1        0.139113   307731.029346
         2         5     1        0.139113   307731.029346
         3         4     1        0.139776   318191.361328
         3        21     1        0.108513   324000.491895
         4         7     1        0.140360   285683.361670
         4        36     1        0.108643   317148.987598
         5         6     1        0.139776   318191.361328
         5        22     1        0.108513   324000.491895
         6         7     1        0.140360   285683.361670
         6        23     1        0.108643   317148.987598
         7         8     1        0.151622   188534.924194
         8         9     1        0.154180   171318.328564
         8        14     1        0.153681   179446.164819
         8        24     1        0.109591   297224.449658
         9        10     1        0.151197   187528.596094
         9        25     1        0.109418   298932.448145
         9        26     1        0.109418   298932.448145
        10        11     1        0.129060   506319.006934
        10        13     1        0.147650   202629.378369
        11        12     1        0.141271   206818.945459
        12        27     1        0.097167   471574.697070
        13        15     1        0.141260   256477.412402
        13        20     1        0.142245   240602.728027
        14        15     1        0.150834   197044.808374
        14        28     1        0.109505   297162.598779
        14        29     1        0.109505   297162.598779
        15        16     1        0.133669   327033.330078
        16        17     1        0.134567   269085.287598
        17        18     1        0.136754   331182.854980
        17        19     1        0.134651   266011.283594
        18        30     1        0.101080   429504.045898
        18        31     1        0.101080   429504.045898
        19        20     1        0.133707   330704.008643
        20        32     1        0.150638   202499.547705
        32        33     1        0.109243   307403.183936
        32        34     1        0.109243   307403.183936
        32        35     1        0.109243   307403.183936

[ angles ]
;       ai        aj        ak funct           theta             cth
         1         2         3     1      119.015671      576.816457
         1         2         5     1      119.015671      576.816457
         2         3         4     1      118.466797      689.389654
         2         3        21     1      119.845154      438.392939
         2         5         6     1      118.466797      689.389654
         2         5        22     1      119.845154      438.392939
         3         2         5     1      121.938232      573.794204
         3         4         7     1      121.506065      697.750376
         3         4        36     1      118.778732      431.565082
         4         3        21     1      121.715736      425.041628
         4         7         6     1      117.974442      638.683552
         4         7         8     1      120.972153      506.982806
         5         6         7     1      121.506065      697.750376
         5         6        23     1      118.778732      431.565082
         6         5        22     1      121.715736      425.041628
         6         7         8     1      120.972153      506.982806
         7         4        36     1      119.861877      409.843536
         7         6        23     1      119.861877      409.843568
         7         8         9     1      112.282776      598.342772
         7         8        14     1      112.583725      600.148182
         7         8        24     1      107.657310      506.826423
         8         9        10     1      111.197769      655.832487
         8         9        25     1      109.973618      471.844765
         8         9        26     1      109.973618      471.844765
         8        14        15     1      112.140442      608.747101
         8        14        28     1      110.449234      466.939341
         8        14        29     1      110.449234      466.939341
         9         8        14     1      108.830055      568.310429
         9         8        24     1      107.314285      479.929526
         9        10        11     1      120.835876      442.903048
         9        10        13     1      117.776489      486.984408
        10         9        25     1      109.077713      498.168066
        10         9        26     1      109.077713      498.168066
        10        11        12     1      112.810524      812.580159
        10        13        15     1      118.612839      598.884861
        10        13        20     1      125.020386      525.449966
        11        10        13     1      120.662064      402.309610
        11        12        27     1      102.078308      633.371897
        13        15        14     1      120.826553      477.245257
        13        15        16     1      122.698654      721.367477
        13        20        19     1      121.228188      743.307813
        13        20        32     1      123.606651      456.126802
        14         8        24     1      107.499191      480.738733
        14        15        16     1      116.095993      460.050323
        15        13        20     1      115.999168      815.529503
        15        14        28     1      108.404587      513.723709
        15        14        29     1      108.404587      513.723709
        15        16        17     1      116.060204      870.243526
        16        17        18     1      116.984520      584.312237
        16        17        19     1      126.302536      666.537899
        17        18        30     1      116.789551      467.143798
        17        18        31     1      116.789551      467.143798
        17        19        20     1      117.405640      936.974100
        18        17        19     1      116.582581      610.643998
        19        20        32     1      115.223915      514.212425
        20        32        33     1      110.244286      508.144297
        20        32        34     1      110.244286      508.144297
        20        32        35     1      110.244286      508.144297
        25         9        26     1      107.161087      354.799765
        28        14        29     1      106.625412      364.489055
        30        18        31     1      117.566406      320.237650
        33        32        34     1      108.657333      349.777190
        33        32        35     1      108.657333      349.777190
        34        32        35     1      108.657333      349.777190

[ dihedrals ] ; propers for gromacs 4.5 or higher, use funct 9
;       ai        aj        ak        al funct           phase               k        pn
         1         2         3         4     9        0.000000        0.595726         1
         1         2         3         4     9      180.000000       23.163802         2
         1         2         3         4     9        0.000000        0.535926         3
         1         2         3         4     9      180.000000       -0.656523         4
         1         2         3        21     9        0.000000        0.247396         1
         1         2         3        21     9      180.000000       15.711528         2
         1         2         3        21     9        0.000000        0.305856         3
         1         2         3        21     9      180.000000        0.172634         4
         1         2         5         6     9        0.000000        0.595726         1
         1         2         5         6     9      180.000000       23.163802         2
         1         2         5         6     9        0.000000        0.535926         3
         1         2         5         6     9      180.000000       -0.656523         4
         1         2         5        22     9        0.000000        0.247396         1
         1         2         5        22     9      180.000000       15.711528         2
         1         2         5        22     9        0.000000        0.305856         3
         1         2         5        22     9      180.000000        0.172634         4
         2         3         4         7     9        0.000000       -0.021855         1
         2         3         4         7     9      180.000000       19.104828         2
         2         3         4         7     9        0.000000       -1.491856         3
         2         3         4         7     9      180.000000       -0.448759         4
         2         3         4        36     9        0.000000        0.214396         1
         2         3         4        36     9      180.000000       14.908485         2
         2         3         4        36     9        0.000000       -0.513548         3
         2         3         4        36     9      180.000000        0.100368         4
         2         5         6         7     9        0.000000       -0.021855         1
         2         5         6         7     9      180.000000       19.104828         2
         2         5         6         7     9        0.000000       -1.491856         3
         2         5         6         7     9      180.000000       -0.448759         4
         2         5         6        23     9        0.000000        0.214397         1
         2         5         6        23     9      180.000000       14.908488         2
         2         5         6        23     9        0.000000       -0.513549         3
         2         5         6        23     9      180.000000        0.100368         4
         3         2         5         6     9        0.000000       -0.115152         1
         3         2         5         6     9      180.000000       16.950368         2
         3         2         5         6     9        0.000000       -1.159834         3
         3         2         5         6     9      180.000000       -0.292430         4
         3         2         5        22     9        0.000000        0.134860         1
         3         2         5        22     9      180.000000       12.681977         2
         3         2         5        22     9        0.000000       -0.511494         3
         3         2         5        22     9      180.000000        0.160510         4
         3         4         7         6     9        0.000000       -0.111579         1
         3         4         7         6     9      180.000000       19.061766         2
         3         4         7         6     9        0.000000       -1.515364         3
         3         4         7         6     9      180.000000       -0.407968         4
         3         4         7         8     9        0.000000        0.148813         1
         3         4         7         8     9      180.000000       15.569574         2
         3         4         7         8     9        0.000000       -0.110256         3
         3         4         7         8     9      180.000000       -0.241952         4
         4         3         2         5     9        0.000000       -0.115152         1
         4         3         2         5     9      180.000000       16.950368         2
         4         3         2         5     9        0.000000       -1.159834         3
         4         3         2         5     9      180.000000       -0.292430         4
         4         7         6         5     9        0.000000       -0.111579         1
         4         7         6         5     9      180.000000       19.061766         2
         4         7         6         5     9        0.000000       -1.515364         3
         4         7         6         5     9      180.000000       -0.407968         4
         4         7         6        23     9        0.000000       -0.020018         1
         4         7         6        23     9      180.000000       14.341013         2
         4         7         6        23     9        0.000000       -0.665879         3
         4         7         6        23     9      180.000000        0.044535         4
         4         7         8         9     9        0.000000        0.050068         1
         4         7         8         9     9      180.000000        0.468696         2
         4         7         8         9     9        0.000000        0.157666         3
         4         7         8         9     9      180.000000        0.108962         4
         4         7         8        14     9        0.000000        0.042410         1
         4         7         8        14     9      180.000000        0.575596         2
         4         7         8        14     9        0.000000        0.152548         3
         4         7         8        14     9      180.000000        0.085682         4
         4         7         8        24     9        0.000000        0.153580         1
         4         7         8        24     9      180.000000       -0.112162         2
         4         7         8        24     9        0.000000        0.069867         3
         4         7         8        24     9      180.000000       -0.025034         4
         5         2         3        21     9        0.000000        0.134860         1
         5         2         3        21     9      180.000000       12.681977         2
         5         2         3        21     9        0.000000       -0.511494         3
         5         2         3        21     9      180.000000        0.160510         4
         5         6         7         8     9        0.000000        0.148813         1
         5         6         7         8     9      180.000000       15.569574         2
         5         6         7         8     9        0.000000       -0.110256         3
         5         6         7         8     9      180.000000       -0.241952         4
         6         7         4        36     9        0.000000       -0.020019         1
         6         7         4        36     9      180.000000       14.341012         2
         6         7         4        36     9        0.000000       -0.665879         3
         6         7         4        36     9      180.000000        0.044536         4
         6         7         8         9     9        0.000000        0.050068         1
         6         7         8         9     9      180.000000        0.468696         2
         6         7         8         9     9        0.000000        0.157666         3
         6         7         8         9     9      180.000000        0.108962         4
         6         7         8        14     9        0.000000        0.042410         1
         6         7         8        14     9      180.000000        0.575596         2
         6         7         8        14     9        0.000000        0.152548         3
         6         7         8        14     9      180.000000        0.085682         4
         6         7         8        24     9        0.000000        0.153580         1
         6         7         8        24     9      180.000000       -0.112162         2
         6         7         8        24     9        0.000000        0.069867         3
         6         7         8        24     9      180.000000       -0.025034         4
         7         4         3        21     9        0.000000        0.069335         1
         7         4         3        21     9      180.000000       14.163433         2
         7         4         3        21     9        0.000000       -0.638643         3
         7         4         3        21     9      180.000000        0.143198         4
         7         6         5        22     9        0.000000        0.069335         1
         7         6         5        22     9      180.000000       14.163433         2
         7         6         5        22     9        0.000000       -0.638643         3
         7         6         5        22     9      180.000000        0.143198         4
         7         8         9        10     9        0.000000       -0.701462         1
         7         8         9        10     9      180.000000       -0.239175         2
         7         8         9        10     9        0.000000        0.332444         3
         7         8         9        10     9      180.000000        0.074457         4
         7         8         9        25     9        0.000000        0.027112         1
         7         8         9        25     9      180.000000        0.030984         2
         7         8         9        25     9        0.000000        0.496748         3
         7         8         9        25     9      180.000000       -0.049110         4
         7         8         9        26     9        0.000000        0.027112         1
         7         8         9        26     9      180.000000        0.030984         2
         7         8         9        26     9        0.000000        0.496748         3
         7         8         9        26     9      180.000000       -0.049110         4
         7         8        14        15     9        0.000000       -0.603808         1
         7         8        14        15     9      180.000000       -0.112875         2
         7         8        14        15     9        0.000000        0.494550         3
         7         8        14        15     9      180.000000        0.061652         4
         7         8        14        28     9        0.000000        0.060231         1
         7         8        14        28     9      180.000000       -0.009818         2
         7         8        14        28     9        0.000000        0.526529         3
         7         8        14        28     9      180.000000       -0.038724         4
         7         8        14        29     9        0.000000        0.060231         1
         7         8        14        29     9      180.000000       -0.009818         2
         7         8        14        29     9        0.000000        0.526529         3
         7         8        14        29     9      180.000000       -0.038724         4
         8         7         4        36     9        0.000000       -0.074920         1
         8         7         4        36     9      180.000000       13.012186         2
         8         7         4        36     9        0.000000       -0.351043         3
         8         7         4        36     9      180.000000        0.196548         4
         8         7         6        23     9        0.000000       -0.074920         1
         8         7         6        23     9      180.000000       13.012186         2
         8         7         6        23     9        0.000000       -0.351043         3
         8         7         6        23     9      180.000000        0.196548         4
         8         9        10        11     9        0.000000        0.502617         1
         8         9        10        11     9      180.000000       -0.984255         2
         8         9        10        11     9        0.000000       -0.489026         3
         8         9        10        11     9      180.000000        0.280716         4
         8         9        10        13     9        0.000000       -0.018341         1
         8         9        10        13     9      180.000000       -0.584899         2
         8         9        10        13     9        0.000000        0.060286         3
         8         9        10        13     9      180.000000        0.146576         4
         8        14        15        13     9        0.000000        1.447180         1
         8        14        15        13     9      180.000000       -0.743277         2
         8        14        15        13     9        0.000000       -0.213736         3
         8        14        15        13     9      180.000000        0.325076         4
         8        14        15        16     9        0.000000       -0.230672         1
         8        14        15        16     9      180.000000       -0.431758         2
         8        14        15        16     9        0.000000        0.256526         3
         8        14        15        16     9      180.000000        0.249083         4
         9         8        14        15     9        0.000000        2.190358         1
         9         8        14        15     9      180.000000       -1.994077         2
         9         8        14        15     9        0.000000        0.031898         3
         9         8        14        15     9      180.000000        0.137767         4
         9         8        14        28     9        0.000000       -0.007933         1
         9         8        14        28     9      180.000000        0.041601         2
         9         8        14        28     9        0.000000        0.219005         3
         9         8        14        28     9      180.000000        0.037753         4
         9         8        14        29     9        0.000000       -0.007933         1
         9         8        14        29     9      180.000000        0.041601         2
         9         8        14        29     9        0.000000        0.219005         3
         9         8        14        29     9      180.000000        0.037753         4
         9        10        11        12     9        0.000000        4.157254         1
         9        10        11        12     9      180.000000       51.204933         2
         9        10        11        12     9        0.000000        2.120437         3
         9        10        11        12     9      180.000000       -3.188153         4
         9        10        13        15     9        0.000000       -0.105298         1
         9        10        13        15     9      180.000000        2.988596         2
         9        10        13        15     9        0.000000       -0.801920         3
         9        10        13        15     9      180.000000        0.147455         4
         9        10        13        20     9        0.000000       -1.293767         1
         9        10        13        20     9      180.000000        2.564224         2
         9        10        13        20     9        0.000000       -0.166098         3
         9        10        13        20     9      180.000000        0.052734         4
        10         9         8        14     9        0.000000       -0.491744         1
        10         9         8        14     9      180.000000       -0.257366         2
        10         9         8        14     9        0.000000        0.007267         3
        10         9         8        14     9      180.000000       -0.196155         4
        10         9         8        24     9        0.000000       -0.347255         1
        10         9         8        24     9      180.000000       -0.017214         2
        10         9         8        24     9        0.000000        0.146457         3
        10         9         8        24     9      180.000000        0.132972         4
        10        11        12        27     9        0.000000        2.198068         1
        10        11        12        27     9      180.000000       12.283681         2
        10        11        12        27     9        0.000000       -0.372772         3
        10        11        12        27     9      180.000000        0.273089         4
        10        13        15        14     9        0.000000       -0.024045         1
        10        13        15        14     9      180.000000       12.900430         2
        10        13        15        14     9        0.000000        0.226122         3
        10        13        15        14     9      180.000000       -0.591238         4
        10        13        15        16     9        0.000000       -0.014305         1
        10        13        15        16     9      180.000000       13.171290         2
        10        13        15        16     9        0.000000        0.095227         3
        10        13        15        16     9      180.000000       -0.457752         4
        10        13        20        19     9        0.000000        0.205978         1
        10        13        20        19     9      180.000000       12.740901         2
        10        13        20        19     9        0.000000        0.144999         3
        10        13        20        19     9      180.000000       -0.611686         4
        10        13        20        32     9        0.000000       -0.082683         1
        10        13        20        32     9      180.000000       12.643956         2
        10        13        20        32     9        0.000000        0.009629         3
        10        13        20        32     9      180.000000       -0.543150         4
        11        10         9        25     9        0.000000       -0.067984         1
        11        10         9        25     9      180.000000       -0.140699         2
        11        10         9        25     9        0.000000       -0.584376         3
        11        10         9        25     9      180.000000        0.011105         4
        11        10         9        26     9        0.000000       -0.067984         1
        11        10         9        26     9      180.000000       -0.140699         2
        11        10         9        26     9        0.000000       -0.584376         3
        11        10         9        26     9      180.000000        0.011105         4
        11        10        13        15     9        0.000000        3.293583         1
        11        10        13        15     9      180.000000        3.739881         2
        11        10        13        15     9        0.000000        0.376543         3
        11        10        13        15     9      180.000000       -0.168725         4
        11        10        13        20     9        0.000000       -0.009804         1
        11        10        13        20     9      180.000000        3.455469         2
        11        10        13        20     9        0.000000        0.063352         3
        11        10        13        20     9      180.000000       -0.130541         4
        12        11        10        13     9        0.000000       -2.699043         1
        12        11        10        13     9      180.000000       38.687819         2
        12        11        10        13     9        0.000000        4.601281         3
        12        11        10        13     9      180.000000       -1.294552         4
        13        10         9        25     9        0.000000        0.097270         1
        13        10         9        25     9      180.000000       -0.090523         2
        13        10         9        25     9        0.000000       -0.054021         3
        13        10         9        25     9      180.000000        0.144485         4
        13        10         9        26     9        0.000000        0.097270         1
        13        10         9        26     9      180.000000       -0.090523         2
        13        10         9        26     9        0.000000       -0.054021         3
        13        10         9        26     9      180.000000        0.144485         4
        13        15        14        28     9        0.000000       -0.050928         1
        13        15        14        28     9      180.000000        0.000416         2
        13        15        14        28     9        0.000000       -0.211184         3
        13        15        14        28     9      180.000000        0.036524         4
        13        15        14        29     9        0.000000       -0.050928         1
        13        15        14        29     9      180.000000        0.000416         2
        13        15        14        29     9        0.000000       -0.211184         3
        13        15        14        29     9      180.000000        0.036524         4
        13        15        16        17     9        0.000000       -0.820047         1
        13        15        16        17     9      180.000000       19.251178         2
        13        15        16        17     9        0.000000       -0.800118         3
        13        15        16        17     9      180.000000       -0.237508         4
        13        20        19        17     9        0.000000       -0.419784         1
        13        20        19        17     9      180.000000       19.701046         2
        13        20        19        17     9        0.000000       -0.673837         3
        13        20        19        17     9      180.000000       -0.382273         4
        13        20        32        33     9        0.000000       -0.053023         1
        13        20        32        33     9      180.000000        0.024168         2
        13        20        32        33     9        0.000000       -0.072946         3
        13        20        32        33     9      180.000000        0.026040         4
        13        20        32        34     9        0.000000       -0.053023         1
        13        20        32        34     9      180.000000        0.024168         2
        13        20        32        34     9        0.000000       -0.072946         3
        13        20        32        34     9      180.000000        0.026040         4
        13        20        32        35     9        0.000000       -0.053023         1
        13        20        32        35     9      180.000000        0.024168         2
        13        20        32        35     9        0.000000       -0.072946         3
        13        20        32        35     9      180.000000        0.026040         4
        14         8         9        25     9        0.000000       -0.044455         1
        14         8         9        25     9      180.000000        0.050285         2
        14         8         9        25     9        0.000000        0.198144         3
        14         8         9        25     9      180.000000        0.051687         4
        14         8         9        26     9        0.000000       -0.044455         1
        14         8         9        26     9      180.000000        0.050285         2
        14         8         9        26     9        0.000000        0.198144         3
        14         8         9        26     9      180.000000        0.051687         4
        14        15        13        20     9        0.000000        0.046383         1
        14        15        13        20     9      180.000000       11.984395         2
        14        15        13        20     9        0.000000       -0.057611         3
        14        15        13        20     9      180.000000       -0.415970         4
        14        15        16        17     9        0.000000        0.319576         1
        14        15        16        17     9      180.000000       21.094482         2
        14        15        16        17     9        0.000000        0.595843         3
        14        15        16        17     9      180.000000       -0.944654         4
        15        13        20        19     9        0.000000        0.056891         1
        15        13        20        19     9      180.000000       12.472255         2
        15        13        20        19     9        0.000000        0.070846         3
        15        13        20        19     9      180.000000       -0.560172         4
        15        13        20        32     9        0.000000        0.336974         1
        15        13        20        32     9      180.000000       12.345534         2
        15        13        20        32     9        0.000000        0.133026         3
        15        13        20        32     9      180.000000       -0.613308         4
        15        14         8        24     9        0.000000       -0.278631         1
        15        14         8        24     9      180.000000       -0.042722         2
        15        14         8        24     9        0.000000        0.243282         3
        15        14         8        24     9      180.000000        0.093606         4
        15        16        17        18     9        0.000000        1.328924         1
        15        16        17        18     9      180.000000       19.298655         2
        15        16        17        18     9        0.000000        0.513296         3
        15        16        17        18     9      180.000000       -1.382907         4
        15        16        17        19     9        0.000000        0.332521         1
        15        16        17        19     9      180.000000       10.966068         2
        15        16        17        19     9        0.000000        0.873333         3
        15        16        17        19     9      180.000000       -0.600360         4
        16        15        13        20     9        0.000000        0.241143         1
        16        15        13        20     9      180.000000       12.977944         2
        16        15        13        20     9        0.000000       -0.132314         3
        16        15        13        20     9      180.000000       -0.391115         4
        16        15        14        28     9        0.000000        0.157985         1
        16        15        14        28     9      180.000000        0.067395         2
        16        15        14        28     9        0.000000        0.035732         3
        16        15        14        28     9      180.000000        0.008465         4
        16        15        14        29     9        0.000000        0.157985         1
        16        15        14        29     9      180.000000        0.067395         2
        16        15        14        29     9        0.000000        0.035732         3
        16        15        14        29     9      180.000000        0.008465         4
        16        17        18        30     9        0.000000        2.150164         1
        16        17        18        30     9      180.000000        8.456022         2
        16        17        18        30     9        0.000000       -0.226335         3
        16        17        18        30     9      180.000000       -0.706930         4
        16        17        18        31     9        0.000000        2.150164         1
        16        17        18        31     9      180.000000        8.456022         2
        16        17        18        31     9        0.000000       -0.226335         3
        16        17        18        31     9      180.000000       -0.706930         4
        16        17        19        20     9        0.000000        0.451493         1
        16        17        19        20     9      180.000000       10.466505         2
        16        17        19        20     9        0.000000        0.528119         3
        16        17        19        20     9      180.000000       -0.424154         4
        17        19        20        32     9        0.000000        0.005730         1
        17        19        20        32     9      180.000000       19.763849         2
        17        19        20        32     9        0.000000        0.655866         3
        17        19        20        32     9      180.000000       -0.556164         4
        18        17        19        20     9        0.000000        1.168166         1
        18        17        19        20     9      180.000000       18.736900         2
        18        17        19        20     9        0.000000        0.275943         3
        18        17        19        20     9      180.000000       -1.220427         4
        19        17        18        30     9        0.000000        2.115856         1
        19        17        18        30     9      180.000000        8.542262         2
        19        17        18        30     9        0.000000       -0.196071         3
        19        17        18        30     9      180.000000       -0.809972         4
        19        17        18        31     9        0.000000        2.115856         1
        19        17        18        31     9      180.000000        8.542262         2
        19        17        18        31     9        0.000000       -0.196071         3
        19        17        18        31     9      180.000000       -0.809972         4
        19        20        32        33     9        0.000000       -0.044806         1
        19        20        32        33     9      180.000000       -0.015071         2
        19        20        32        33     9        0.000000        0.146304         3
        19        20        32        33     9      180.000000       -0.008751         4
        19        20        32        34     9        0.000000       -0.044806         1
        19        20        32        34     9      180.000000       -0.015071         2
        19        20        32        34     9        0.000000        0.146304         3
        19        20        32        34     9      180.000000       -0.008751         4
        19        20        32        35     9        0.000000       -0.044806         1
        19        20        32        35     9      180.000000       -0.015071         2
        19        20        32        35     9        0.000000        0.146304         3
        19        20        32        35     9      180.000000       -0.008751         4
        21         3         4        36     9        0.000000       -0.227669         1
        21         3         4        36     9      180.000000       11.625787         2
        21         3         4        36     9        0.000000       -0.739828         3
        21         3         4        36     9      180.000000        0.301893         4
        22         5         6        23     9        0.000000       -0.227670         1
        22         5         6        23     9      180.000000       11.625787         2
        22         5         6        23     9        0.000000       -0.739827         3
        22         5         6        23     9      180.000000        0.301893         4
        24         8         9        25     9        0.000000        0.001573         1
        24         8         9        25     9      180.000000        0.037697         2
        24         8         9        25     9        0.000000        0.393593         3
        24         8         9        25     9      180.000000       -0.040527         4
        24         8         9        26     9        0.000000        0.001573         1
        24         8         9        26     9      180.000000        0.037697         2
        24         8         9        26     9        0.000000        0.393593         3
        24         8         9        26     9      180.000000       -0.040527         4
        24         8        14        28     9        0.000000        0.009642         1
        24         8        14        28     9      180.000000        0.006593         2
        24         8        14        28     9        0.000000        0.434619         3
        24         8        14        28     9      180.000000       -0.029744         4
        24         8        14        29     9        0.000000        0.009642         1
        24         8        14        29     9      180.000000        0.006593         2
        24         8        14        29     9        0.000000        0.434619         3
        24         8        14        29     9      180.000000       -0.029744         4

[ dihedrals ] ; impropers
;       ai        aj        ak        al funct           phase               k        pn
         2         1         3         5     4      180.000000        0.578985         2
         2         3         5         1     4      180.000000        0.578985         2
         2         5         1         3     4      180.000000        0.578985         2
        10         9        11        13     4      180.000000        2.347911         2
        10        11        13         9     4      180.000000        2.347911         2
        10        13         9        11     4      180.000000        2.347911         2
        15        13        14        16     4      180.000000       11.793254         2
        15        14        16        13     4      180.000000       11.793254         2
        15        16        13        14     4      180.000000       11.793254         2
        17        16        18        19     4      180.000000        3.794660         2
        17        18        19        16     4      180.000000        3.794660         2
        17        19        16        18     4      180.000000        3.794660         2
        20        13        19        32     4      180.000000       14.252839         2
        20        19        32        13     4      180.000000       14.252839         2
        20        32        13        19     4      180.000000       14.252839         2

[ pairs ]
;       ai        aj funct
         1         4     1
         1         6     1
         1        21     1
         1        22     1
         2         7     1
         2        23     1
         2        36     1
         3         6     1
         3         8     1
         3        22     1
         4         5     1
         4         9     1
         4        14     1
         4        23     1
         4        24     1
         5         8     1
         5        21     1
         6         9     1
         6        14     1
         6        24     1
         6        36     1
         7        10     1
         7        15     1
         7        21     1
         7        22     1
         7        25     1
         7        26     1
         7        28     1
         7        29     1
         8        11     1
         8        13     1
         8        16     1
         8        23     1
         8        36     1
         9        12     1
         9        15     1
         9        20     1
         9        28     1
         9        29     1
        10        14     1
        10        16     1
        10        19     1
        10        24     1
        10        27     1
        10        32     1
        11        15     1
        11        20     1
        11        25     1
        11        26     1
        12        13     1
        13        17     1
        13        25     1
        13        26     1
        13        28     1
        13        29     1
        13        33     1
        13        34     1
        13        35     1
        14        17     1
        14        20     1
        14        25     1
        14        26     1
        15        18     1
        15        19     1
        15        24     1
        15        32     1
        16        20     1
        16        28     1
        16        29     1
        16        30     1
        16        31     1
        17        32     1
        18        20     1
        19        30     1
        19        31     1
        19        33     1
        19        34     1
        19        35     1
        21        36     1
        22        23     1
        24        25     1
        24        26     1
        24        28     1
        24        29     1
