; ITP file created by ByteFF-ML, 2025-12-06 03:38:45.541788

[ atomtypes ]
;name           bonded.type        at.num        mass        charge   ptype           sigma         epsilon
 c0bf                                   6      0.0000       0.00000       A     3.31506e-01     4.12855e-01
 c1bf                                   6      0.0000       0.00000       A     3.31499e-01     4.13093e-01
 c2bf                                   6      0.0000       0.00000       A     3.31533e-01     4.12279e-01
 c3bf                                   6      0.0000       0.00000       A     3.31499e-01     4.13093e-01
 c4bf                                   6      0.0000       0.00000       A     3.31533e-01     4.12279e-01
 c5bf                                   6      0.0000       0.00000       A     3.31405e-01     4.12075e-01
 c6bf                                   6      0.0000       0.00000       A     3.39758e-01     4.51796e-01
 c7bf                                   6      0.0000       0.00000       A     3.39967e-01     4.51683e-01
 c8bf                                   6      0.0000       0.00000       A     3.31435e-01     4.13497e-01
 o9bf                                   8      0.0000       0.00000       A     3.04823e-01     6.13029e-01
 c10bf                                  6      0.0000       0.00000       A     3.31482e-01     4.12440e-01
 c11bf                                  6      0.0000       0.00000       A     3.39861e-01     4.52026e-01
 c12bf                                  6      0.0000       0.00000       A     3.31346e-01     4.11353e-01
 n13bf                                  7      0.0000       0.00000       A     3.38223e-01     3.89720e-01
 c14bf                                  6      0.0000       0.00000       A     3.31382e-01     4.14783e-01
 n15bf                                  7      0.0000       0.00000       A     3.36784e-01     4.72733e-01
 n16bf                                  7      0.0000       0.00000       A     3.38292e-01     3.93659e-01
 c17bf                                  6      0.0000       0.00000       A     3.31254e-01     4.13369e-01
 h18bf                                  1      0.0000       0.00000       A     2.62458e-01     6.72647e-02
 h19bf                                  1      0.0000       0.00000       A     2.62458e-01     6.72647e-02
 h20bf                                  1      0.0000       0.00000       A     2.62497e-01     6.75329e-02
 h21bf                                  1      0.0000       0.00000       A     2.59863e-01     8.70432e-02
 h22bf                                  1      0.0000       0.00000       A     2.59833e-01     8.75252e-02
 h23bf                                  1      0.0000       0.00000       A     2.59833e-01     8.75252e-02
 h24bf                                  1      0.0000       0.00000       A     2.59803e-01     8.72028e-02
 h25bf                                  1      0.0000       0.00000       A     2.59803e-01     8.72028e-02
 h26bf                                  1      0.0000       0.00000       A     1.10066e-01     4.24315e-02
 h27bf                                  1      0.0000       0.00000       A     1.10066e-01     4.24315e-02
 h28bf                                  1      0.0000       0.00000       A     2.62497e-01     6.75329e-02
 h29bf                                  1      0.0000       0.00000       A     2.62457e-01     6.73477e-02
 h30bf                                  1      0.0000       0.00000       A     2.53453e-01     6.68306e-02

[ moleculetype ]
;name             nrexcl
 2                     3

[ atoms ]
;       nr            type      resi   res      atom      cgnr      charge          mass ; qtot
         1            c0bf         1   UNL        c0         1    -0.11089       12.0110 ; qtot   -0.111
         2            c1bf         1   UNL        c1         2    -0.11113       12.0110 ; qtot   -0.222
         3            c2bf         1   UNL        c2         3    -0.10631       12.0110 ; qtot   -0.328
         4            c3bf         1   UNL        c3         4    -0.11113       12.0110 ; qtot   -0.439
         5            c4bf         1   UNL        c4         5    -0.10631       12.0110 ; qtot   -0.546
         6            c5bf         1   UNL        c5         6    -0.08109       12.0110 ; qtot   -0.627
         7            c6bf         1   UNL        c6         7    -0.00094       12.0110 ; qtot   -0.628
         8            c7bf         1   UNL        c7         8    -0.16865       12.0110 ; qtot   -0.796
         9            c8bf         1   UNL        c8         9     0.60235       12.0110 ; qtot   -0.194
        10            o9bf         1   UNL        o9        10    -0.51835       15.9990 ; qtot   -0.712
        11           c10bf         1   UNL       c10        11    -0.34818       12.0110 ; qtot   -1.061
        12           c11bf         1   UNL       c11        12    -0.13356       12.0110 ; qtot   -1.194
        13           c12bf         1   UNL       c12        13     0.20105       12.0110 ; qtot   -0.993
        14           n13bf         1   UNL       n13        14    -0.25019       14.0070 ; qtot   -1.243
        15           c14bf         1   UNL       c14        15     0.37941       12.0110 ; qtot   -0.864
        16           n15bf         1   UNL       n15        16    -1.03015       14.0070 ; qtot   -1.894
        17           n16bf         1   UNL       n16        17    -0.24145       14.0070 ; qtot   -2.136
        18           c17bf         1   UNL       c17        18     0.19902       12.0110 ; qtot   -1.936
        19           h18bf         1   UNL       h18        19     0.11406        1.0080 ; qtot   -1.822
        20           h19bf         1   UNL       h19        20     0.11406        1.0080 ; qtot   -1.708
        21           h20bf         1   UNL       h20        21     0.11219        1.0080 ; qtot   -1.596
        22           h21bf         1   UNL       h21        22     0.06190        1.0080 ; qtot   -1.534
        23           h22bf         1   UNL       h22        23     0.07538        1.0080 ; qtot   -1.459
        24           h23bf         1   UNL       h23        24     0.07538        1.0080 ; qtot   -1.384
        25           h24bf         1   UNL       h24        25     0.07631        1.0080 ; qtot   -1.307
        26           h25bf         1   UNL       h25        26     0.07631        1.0080 ; qtot   -1.231
        27           h26bf         1   UNL       h26        27     0.47748        1.0080 ; qtot   -0.753
        28           h27bf         1   UNL       h27        28     0.47748        1.0080 ; qtot   -0.276
        29           h28bf         1   UNL       h28        29     0.11219        1.0080 ; qtot   -0.164
        30           h29bf         1   UNL       h29        30     0.11376        1.0080 ; qtot   -0.050
        31           h30bf         1   UNL       h30        31     0.05000        1.0080 ; qtot    0.000

[ bonds ]
;       ai        aj funct               r               k
         1         2     1        0.139901   307433.751855
         1         4     1        0.139901   307433.751855
         1        30     1        0.108625   319984.475000
         2         3     1        0.139828   313743.741748
         2        19     1        0.108651   318708.794238
         3         6     1        0.140375   286271.762207
         3        29     1        0.108684   315351.890137
         4         5     1        0.139828   313743.741748
         4        20     1        0.108651   318708.794238
         5         6     1        0.140375   286271.762207
         5        21     1        0.108684   315351.890137
         6         7     1        0.151639   188192.726929
         7         8     1        0.153984   174099.038867
         7        12     1        0.153895   176798.349634
         7        22     1        0.109590   296994.871045
         8         9     1        0.151971   174572.931006
         8        23     1        0.109491   298546.352588
         8        24     1        0.109491   298546.352588
         9        10     1        0.122507   648094.500684
         9        11     1        0.147972   185099.097656
        11        13     1        0.140866   274172.049951
        11        18     1        0.140652   276491.381299
        12        13     1        0.150610   199655.377686
        12        25     1        0.109492   298015.665918
        12        26     1        0.109492   298015.665918
        13        14     1        0.133608   331595.228223
        14        15     1        0.135094   260863.615234
        15        16     1        0.136602   334912.115674
        15        17     1        0.135495   251514.121973
        16        27     1        0.101078   429790.878711
        16        28     1        0.101078   429790.878711
        17        18     1        0.132919   363741.928857
        18        31     1        0.108780   318104.764990

[ angles ]
;       ai        aj        ak funct           theta             cth
         1         2         3     1      120.169235      698.271269
         1         2        19     1      120.083542      438.078386
         1         4         5     1      120.169235      698.271269
         1         4        20     1      120.083542      438.078386
         2         1         4     1      119.357559      675.610276
         2         1        30     1      120.333389      432.683065
         2         3         6     1      121.026627      704.349420
         2         3        29     1      119.288551      439.705547
         3         2        19     1      119.795448      435.613448
         3         6         5     1      118.066391      643.834451
         3         6         7     1      120.887009      501.360556
         4         1        30     1      120.333389      432.683065
         4         5         6     1      121.026627      704.349420
         4         5        21     1      119.288551      439.705547
         5         4        20     1      119.795448      435.613448
         5         6         7     1      120.887009      501.360556
         6         3        29     1      119.752609      415.261585
         6         5        21     1      119.752609      415.261585
         6         7         8     1      112.338852      636.726580
         6         7        12     1      112.357460      596.454941
         6         7        22     1      107.666420      508.028550
         7         8         9     1      112.938049      743.138821
         7         8        23     1      110.620529      467.373887
         7         8        24     1      110.620529      467.373887
         7        12        13     1      112.302719      612.071011
         7        12        25     1      110.459488      466.160875
         7        12        26     1      110.459488      466.160875
         8         7        12     1      109.169022      573.623808
         8         7        22     1      107.463318      482.467245
         8         9        10     1      121.857605      609.436667
         8         9        11     1      116.152306      497.996872
         9         8        23     1      107.458786      544.032555
         9         8        24     1      107.458786      544.032555
         9        11        13     1      122.351486      626.184414
         9        11        18     1      121.279762      587.810885
        10         9        11     1      122.149879      589.698078
        11        13        12     1      120.685074      530.624104
        11        13        14     1      122.022545      748.917103
        11        18        17     1      123.364151      750.626429
        11        18        31     1      119.047707      401.802794
        12         7        22     1      107.411804      481.691683
        12        13        14     1      117.100708      440.742928
        13        11        18     1      116.211670      782.686801
        13        12        25     1      108.292862      517.246808
        13        12        26     1      108.292862      517.246808
        13        14        15     1      116.503372      841.144948
        14        15        16     1      116.499023      579.528435
        14        15        17     1      126.599586      672.480767
        15        16        27     1      117.066307      464.047775
        15        16        28     1      117.066307      464.047775
        15        17        18     1      115.572342      955.447836
        16        15        17     1      116.492355      624.230315
        17        18        31     1      117.178871      414.129365
        23         8        24     1      106.952271      357.290878
        25        12        26     1      106.627457      364.420424
        27        16        28     1      117.697060      318.890408

[ dihedrals ] ; propers for gromacs 4.5 or higher, use funct 9
;       ai        aj        ak        al funct           phase               k        pn
         1         2         3         6     9        0.000000        0.008584         1
         1         2         3         6     9      180.000000       18.955051         2
         1         2         3         6     9        0.000000       -1.605927         3
         1         2         3         6     9      180.000000       -0.390480         4
         1         2         3        29     9        0.000000        0.044630         1
         1         2         3        29     9      180.000000       14.828527         2
         1         2         3        29     9        0.000000       -0.709579         3
         1         2         3        29     9      180.000000        0.144710         4
         1         4         5         6     9        0.000000        0.008584         1
         1         4         5         6     9      180.000000       18.955051         2
         1         4         5         6     9        0.000000       -1.605927         3
         1         4         5         6     9      180.000000       -0.390480         4
         1         4         5        21     9        0.000000        0.044629         1
         1         4         5        21     9      180.000000       14.828527         2
         1         4         5        21     9        0.000000       -0.709579         3
         1         4         5        21     9      180.000000        0.144711         4
         2         1         4         5     9        0.000000       -0.058756         1
         2         1         4         5     9      180.000000       18.610895         2
         2         1         4         5     9        0.000000       -1.620294         3
         2         1         4         5     9      180.000000       -0.375316         4
         2         1         4        20     9        0.000000        0.000960         1
         2         1         4        20     9      180.000000       14.397477         2
         2         1         4        20     9        0.000000       -0.805059         3
         2         1         4        20     9      180.000000        0.171917         4
         2         3         6         5     9        0.000000       -0.126283         1
         2         3         6         5     9      180.000000       18.962345         2
         2         3         6         5     9        0.000000       -1.473472         3
         2         3         6         5     9      180.000000       -0.390334         4
         2         3         6         7     9        0.000000        0.179522         1
         2         3         6         7     9      180.000000       15.303111         2
         2         3         6         7     9        0.000000       -0.078630         3
         2         3         6         7     9      180.000000       -0.198463         4
         3         2         1         4     9        0.000000       -0.058756         1
         3         2         1         4     9      180.000000       18.610895         2
         3         2         1         4     9        0.000000       -1.620294         3
         3         2         1         4     9      180.000000       -0.375316         4
         3         2         1        30     9        0.000000        0.007062         1
         3         2         1        30     9      180.000000       14.225511         2
         3         2         1        30     9        0.000000       -0.764646         3
         3         2         1        30     9      180.000000        0.141326         4
         3         6         5         4     9        0.000000       -0.126283         1
         3         6         5         4     9      180.000000       18.962345         2
         3         6         5         4     9        0.000000       -1.473472         3
         3         6         5         4     9      180.000000       -0.390334         4
         3         6         5        21     9        0.000000       -0.004071         1
         3         6         5        21     9      180.000000       14.303542         2
         3         6         5        21     9        0.000000       -0.608990         3
         3         6         5        21     9      180.000000        0.051278         4
         3         6         7         8     9        0.000000        0.125824         1
         3         6         7         8     9      180.000000        0.560173         2
         3         6         7         8     9        0.000000        0.173033         3
         3         6         7         8     9      180.000000        0.093504         4
         3         6         7        12     9        0.000000        0.031969         1
         3         6         7        12     9      180.000000        0.564122         2
         3         6         7        12     9        0.000000        0.160778         3
         3         6         7        12     9      180.000000        0.087445         4
         3         6         7        22     9        0.000000        0.156313         1
         3         6         7        22     9      180.000000       -0.069022         2
         3         6         7        22     9        0.000000        0.058738         3
         3         6         7        22     9      180.000000       -0.028415         4
         4         1         2        19     9        0.000000        0.000960         1
         4         1         2        19     9      180.000000       14.397477         2
         4         1         2        19     9        0.000000       -0.805059         3
         4         1         2        19     9      180.000000        0.171917         4
         4         5         6         7     9        0.000000        0.179522         1
         4         5         6         7     9      180.000000       15.303111         2
         4         5         6         7     9        0.000000       -0.078630         3
         4         5         6         7     9      180.000000       -0.198463         4
         5         4         1        30     9        0.000000        0.007062         1
         5         4         1        30     9      180.000000       14.225511         2
         5         4         1        30     9        0.000000       -0.764646         3
         5         4         1        30     9      180.000000        0.141326         4
         5         6         3        29     9        0.000000       -0.004071         1
         5         6         3        29     9      180.000000       14.303542         2
         5         6         3        29     9        0.000000       -0.608989         3
         5         6         3        29     9      180.000000        0.051278         4
         5         6         7         8     9        0.000000        0.125824         1
         5         6         7         8     9      180.000000        0.560173         2
         5         6         7         8     9        0.000000        0.173033         3
         5         6         7         8     9      180.000000        0.093504         4
         5         6         7        12     9        0.000000        0.031969         1
         5         6         7        12     9      180.000000        0.564122         2
         5         6         7        12     9        0.000000        0.160778         3
         5         6         7        12     9      180.000000        0.087445         4
         5         6         7        22     9        0.000000        0.156313         1
         5         6         7        22     9      180.000000       -0.069022         2
         5         6         7        22     9        0.000000        0.058738         3
         5         6         7        22     9      180.000000       -0.028415         4
         6         3         2        19     9        0.000000        0.021523         1
         6         3         2        19     9      180.000000       14.690013         2
         6         3         2        19     9        0.000000       -0.704081         3
         6         3         2        19     9      180.000000        0.124877         4
         6         5         4        20     9        0.000000        0.021523         1
         6         5         4        20     9      180.000000       14.690013         2
         6         5         4        20     9        0.000000       -0.704081         3
         6         5         4        20     9      180.000000        0.124877         4
         6         7         8         9     9        0.000000        0.777923         1
         6         7         8         9     9      180.000000       -0.543780         2
         6         7         8         9     9        0.000000        0.107875         3
         6         7         8         9     9      180.000000        0.068849         4
         6         7         8        23     9        0.000000        0.039151         1
         6         7         8        23     9      180.000000        0.003707         2
         6         7         8        23     9        0.000000        0.460836         3
         6         7         8        23     9      180.000000       -0.030109         4
         6         7         8        24     9        0.000000        0.039151         1
         6         7         8        24     9      180.000000        0.003707         2
         6         7         8        24     9        0.000000        0.460836         3
         6         7         8        24     9      180.000000       -0.030109         4
         6         7        12        13     9        0.000000        0.014308         1
         6         7        12        13     9      180.000000       -0.437974         2
         6         7        12        13     9        0.000000        0.591481         3
         6         7        12        13     9      180.000000        0.105262         4
         6         7        12        25     9        0.000000        0.076994         1
         6         7        12        25     9      180.000000       -0.026524         2
         6         7        12        25     9        0.000000        0.536962         3
         6         7        12        25     9      180.000000       -0.034086         4
         6         7        12        26     9        0.000000        0.076994         1
         6         7        12        26     9      180.000000       -0.026524         2
         6         7        12        26     9        0.000000        0.536962         3
         6         7        12        26     9      180.000000       -0.034086         4
         7         6         3        29     9        0.000000       -0.117709         1
         7         6         3        29     9      180.000000       13.030312         2
         7         6         3        29     9        0.000000       -0.326481         3
         7         6         3        29     9      180.000000        0.196215         4
         7         6         5        21     9        0.000000       -0.117709         1
         7         6         5        21     9      180.000000       13.030313         2
         7         6         5        21     9        0.000000       -0.326481         3
         7         6         5        21     9      180.000000        0.196214         4
         7         8         9        10     9        0.000000       -0.281196         1
         7         8         9        10     9      180.000000        0.393564         2
         7         8         9        10     9        0.000000       -0.148143         3
         7         8         9        10     9      180.000000        0.100779         4
         7         8         9        11     9        0.000000        0.714294         1
         7         8         9        11     9      180.000000       -0.760854         2
         7         8         9        11     9        0.000000       -0.161493         3
         7         8         9        11     9      180.000000        0.476893         4
         7        12        13        11     9        0.000000        0.266515         1
         7        12        13        11     9      180.000000       -0.668608         2
         7        12        13        11     9        0.000000       -0.222681         3
         7        12        13        11     9      180.000000        0.411323         4
         7        12        13        14     9        0.000000       -0.444426         1
         7        12        13        14     9      180.000000       -0.184427         2
         7        12        13        14     9        0.000000        0.232119         3
         7        12        13        14     9      180.000000        0.189034         4
         8         7        12        13     9        0.000000        2.875334         1
         8         7        12        13     9      180.000000       -2.392892         2
         8         7        12        13     9        0.000000        0.038945         3
         8         7        12        13     9      180.000000        0.211652         4
         8         7        12        25     9        0.000000        0.000507         1
         8         7        12        25     9      180.000000        0.042019         2
         8         7        12        25     9        0.000000        0.225486         3
         8         7        12        25     9      180.000000        0.028456         4
         8         7        12        26     9        0.000000        0.000507         1
         8         7        12        26     9      180.000000        0.042019         2
         8         7        12        26     9        0.000000        0.225486         3
         8         7        12        26     9      180.000000        0.028456         4
         8         9        11        13     9        0.000000        0.661388         1
         8         9        11        13     9      180.000000        1.641014         2
         8         9        11        13     9        0.000000       -0.335582         3
         8         9        11        13     9      180.000000        0.264417         4
         8         9        11        18     9        0.000000       -0.764254         1
         8         9        11        18     9      180.000000        3.663846         2
         8         9        11        18     9        0.000000       -0.110577         3
         8         9        11        18     9      180.000000        0.052025         4
         9         8         7        12     9        0.000000        5.519505         1
         9         8         7        12     9      180.000000       -2.414152         2
         9         8         7        12     9        0.000000       -0.924387         3
         9         8         7        12     9      180.000000        0.423456         4
         9         8         7        22     9        0.000000       -0.591772         1
         9         8         7        22     9      180.000000       -0.008622         2
         9         8         7        22     9        0.000000       -0.068469         3
         9         8         7        22     9      180.000000        0.145862         4
         9        11        13        12     9        0.000000        0.098202         1
         9        11        13        12     9      180.000000       10.108723         2
         9        11        13        12     9        0.000000        0.342169         3
         9        11        13        12     9      180.000000       -0.363738         4
         9        11        13        14     9        0.000000        0.112116         1
         9        11        13        14     9      180.000000       11.275327         2
         9        11        13        14     9        0.000000        0.500221         3
         9        11        13        14     9      180.000000       -0.366432         4
         9        11        18        17     9        0.000000       -0.022690         1
         9        11        18        17     9      180.000000       11.942048         2
         9        11        18        17     9        0.000000        0.285506         3
         9        11        18        17     9      180.000000       -0.429708         4
         9        11        18        31     9        0.000000        0.162829         1
         9        11        18        31     9      180.000000        9.776362         2
         9        11        18        31     9        0.000000       -0.033968         3
         9        11        18        31     9      180.000000        0.011863         4
        10         9         8        23     9        0.000000       -0.001072         1
        10         9         8        23     9      180.000000       -0.071942         2
        10         9         8        23     9        0.000000       -0.242304         3
        10         9         8        23     9      180.000000        0.040687         4
        10         9         8        24     9        0.000000       -0.001072         1
        10         9         8        24     9      180.000000       -0.071942         2
        10         9         8        24     9        0.000000       -0.242304         3
        10         9         8        24     9      180.000000        0.040687         4
        10         9        11        13     9        0.000000        0.759974         1
        10         9        11        13     9      180.000000        5.570467         2
        10         9        11        13     9        0.000000        0.193415         3
        10         9        11        13     9      180.000000       -0.340684         4
        10         9        11        18     9        0.000000       -0.240752         1
        10         9        11        18     9      180.000000        5.644754         2
        10         9        11        18     9        0.000000        0.057226         3
        10         9        11        18     9      180.000000       -0.231967         4
        11         9         8        23     9        0.000000       -0.072409         1
        11         9         8        23     9      180.000000       -0.048908         2
        11         9         8        23     9        0.000000       -0.020336         3
        11         9         8        23     9      180.000000        0.044053         4
        11         9         8        24     9        0.000000       -0.072409         1
        11         9         8        24     9      180.000000       -0.048908         2
        11         9         8        24     9        0.000000       -0.020336         3
        11         9         8        24     9      180.000000        0.044053         4
        11        13        12        25     9        0.000000       -0.023197         1
        11        13        12        25     9      180.000000       -0.075193         2
        11        13        12        25     9        0.000000       -0.336830         3
        11        13        12        25     9      180.000000        0.036103         4
        11        13        12        26     9        0.000000       -0.023197         1
        11        13        12        26     9      180.000000       -0.075193         2
        11        13        12        26     9        0.000000       -0.336830         3
        11        13        12        26     9      180.000000        0.036103         4
        11        13        14        15     9        0.000000       -0.919812         1
        11        13        14        15     9      180.000000       19.843200         2
        11        13        14        15     9        0.000000       -0.768193         3
        11        13        14        15     9      180.000000       -0.231723         4
        11        18        17        15     9        0.000000       -0.667231         1
        11        18        17        15     9      180.000000       20.484864         2
        11        18        17        15     9        0.000000       -1.253562         3
        11        18        17        15     9      180.000000       -0.327362         4
        12         7         8        23     9        0.000000       -0.019698         1
        12         7         8        23     9      180.000000        0.070173         2
        12         7         8        23     9        0.000000        0.171599         3
        12         7         8        23     9      180.000000        0.053028         4
        12         7         8        24     9        0.000000       -0.019698         1
        12         7         8        24     9      180.000000        0.070173         2
        12         7         8        24     9        0.000000        0.171599         3
        12         7         8        24     9      180.000000        0.053028         4
        12        13        11        18     9        0.000000        0.042724         1
        12        13        11        18     9      180.000000       12.328969         2
        12        13        11        18     9        0.000000        0.050190         3
        12        13        11        18     9      180.000000       -0.409462         4
        12        13        14        15     9        0.000000        0.329510         1
        12        13        14        15     9      180.000000       20.282366         2
        12        13        14        15     9        0.000000        0.538061         3
        12        13        14        15     9      180.000000       -0.806644         4
        13        11        18        17     9        0.000000        0.211246         1
        13        11        18        17     9      180.000000       14.262713         2
        13        11        18        17     9        0.000000       -0.084640         3
        13        11        18        17     9      180.000000       -0.381314         4
        13        11        18        31     9        0.000000        0.202275         1
        13        11        18        31     9      180.000000       12.164717         2
        13        11        18        31     9        0.000000       -0.128556         3
        13        11        18        31     9      180.000000       -0.138125         4
        13        12         7        22     9        0.000000       -0.263694         1
        13        12         7        22     9      180.000000        0.016403         2
        13        12         7        22     9        0.000000        0.285478         3
        13        12         7        22     9      180.000000        0.067033         4
        13        14        15        16     9        0.000000        1.169216         1
        13        14        15        16     9      180.000000       17.230099         2
        13        14        15        16     9        0.000000        0.463425         3
        13        14        15        16     9      180.000000       -1.136158         4
        13        14        15        17     9        0.000000        0.329747         1
        13        14        15        17     9      180.000000        9.754348         2
        13        14        15        17     9        0.000000        0.850828         3
        13        14        15        17     9      180.000000       -0.462925         4
        14        13        11        18     9        0.000000        0.271348         1
        14        13        11        18     9      180.000000       13.934278         2
        14        13        11        18     9        0.000000        0.126303         3
        14        13        11        18     9      180.000000       -0.498512         4
        14        13        12        25     9        0.000000        0.123282         1
        14        13        12        25     9      180.000000       -0.000723         2
        14        13        12        25     9        0.000000        0.001552         3
        14        13        12        25     9      180.000000        0.000465         4
        14        13        12        26     9        0.000000        0.123282         1
        14        13        12        26     9      180.000000       -0.000723         2
        14        13        12        26     9        0.000000        0.001552         3
        14        13        12        26     9      180.000000        0.000465         4
        14        15        16        27     9        0.000000        1.487552         1
        14        15        16        27     9      180.000000        8.823004         2
        14        15        16        27     9        0.000000       -0.227163         3
        14        15        16        27     9      180.000000       -0.813723         4
        14        15        16        28     9        0.000000        1.487552         1
        14        15        16        28     9      180.000000        8.823004         2
        14        15        16        28     9        0.000000       -0.227163         3
        14        15        16        28     9      180.000000       -0.813723         4
        14        15        17        18     9        0.000000        0.689372         1
        14        15        17        18     9      180.000000       10.918443         2
        14        15        17        18     9        0.000000        0.611464         3
        14        15        17        18     9      180.000000       -0.377671         4
        15        17        18        31     9        0.000000        0.214170         1
        15        17        18        31     9      180.000000       17.619432         2
        15        17        18        31     9        0.000000       -0.287700         3
        15        17        18        31     9      180.000000        0.061422         4
        16        15        17        18     9        0.000000        1.114727         1
        16        15        17        18     9      180.000000       19.347445         2
        16        15        17        18     9        0.000000        0.432397         3
        16        15        17        18     9      180.000000       -1.169296         4
        17        15        16        27     9        0.000000        1.557076         1
        17        15        16        27     9      180.000000        8.825163         2
        17        15        16        27     9        0.000000       -0.189032         3
        17        15        16        27     9      180.000000       -0.918994         4
        17        15        16        28     9        0.000000        1.557076         1
        17        15        16        28     9      180.000000        8.825163         2
        17        15        16        28     9        0.000000       -0.189032         3
        17        15        16        28     9      180.000000       -0.918994         4
        19         2         1        30     9        0.000000       -0.084921         1
        19         2         1        30     9      180.000000       11.439949         2
        19         2         1        30     9        0.000000       -0.581937         3
        19         2         1        30     9      180.000000        0.269846         4
        19         2         3        29     9        0.000000       -0.177618         1
        19         2         3        29     9      180.000000       11.664965         2
        19         2         3        29     9        0.000000       -0.723907         3
        19         2         3        29     9      180.000000        0.363783         4
        20         4         1        30     9        0.000000       -0.084921         1
        20         4         1        30     9      180.000000       11.439949         2
        20         4         1        30     9        0.000000       -0.581937         3
        20         4         1        30     9      180.000000        0.269846         4
        20         4         5        21     9        0.000000       -0.177619         1
        20         4         5        21     9      180.000000       11.664967         2
        20         4         5        21     9        0.000000       -0.723908         3
        20         4         5        21     9      180.000000        0.363783         4
        22         7         8        23     9        0.000000        0.037936         1
        22         7         8        23     9      180.000000       -0.006610         2
        22         7         8        23     9        0.000000        0.418053         3
        22         7         8        23     9      180.000000       -0.048669         4
        22         7         8        24     9        0.000000        0.037936         1
        22         7         8        24     9      180.000000       -0.006610         2
        22         7         8        24     9        0.000000        0.418053         3
        22         7         8        24     9      180.000000       -0.048669         4
        22         7        12        25     9        0.000000        0.002298         1
        22         7        12        25     9      180.000000       -0.005611         2
        22         7        12        25     9        0.000000        0.467533         3
        22         7        12        25     9      180.000000       -0.037462         4
        22         7        12        26     9        0.000000        0.002298         1
        22         7        12        26     9      180.000000       -0.005611         2
        22         7        12        26     9        0.000000        0.467533         3
        22         7        12        26     9      180.000000       -0.037462         4

[ dihedrals ] ; impropers
;       ai        aj        ak        al funct           phase               k        pn
         9         8        10        11     4      180.000000       27.893333         2
         9        10        11         8     4      180.000000       27.893333         2
         9        11         8        10     4      180.000000       27.893333         2
        13        11        12        14     4      180.000000       20.161133         2
        13        12        14        11     4      180.000000       20.161133         2
        13        14        11        12     4      180.000000       20.161133         2
        15        14        16        17     4      180.000000       21.833875         2
        15        16        17        14     4      180.000000       21.833875         2
        15        17        14        16     4      180.000000       21.833875         2
        18        11        17        31     4      180.000000       17.681562         2
        18        17        31        11     4      180.000000       17.681562         2
        18        31        11        17     4      180.000000       17.681562         2

[ pairs ]
;       ai        aj funct
         1         6     1
         1        21     1
         1        29     1
         2         5     1
         2         7     1
         2        20     1
         3         4     1
         3         8     1
         3        12     1
         3        21     1
         3        22     1
         3        30     1
         4         7     1
         4        19     1
         5         8     1
         5        12     1
         5        22     1
         5        29     1
         5        30     1
         6         9     1
         6        13     1
         6        19     1
         6        20     1
         6        23     1
         6        24     1
         6        25     1
         6        26     1
         7        10     1
         7        11     1
         7        14     1
         7        21     1
         7        29     1
         8        13     1
         8        18     1
         8        25     1
         8        26     1
         9        12     1
         9        14     1
         9        17     1
         9        22     1
         9        31     1
        10        13     1
        10        18     1
        10        23     1
        10        24     1
        11        15     1
        11        23     1
        11        24     1
        11        25     1
        11        26     1
        12        15     1
        12        18     1
        12        23     1
        12        24     1
        13        16     1
        13        17     1
        13        22     1
        13        31     1
        14        18     1
        14        25     1
        14        26     1
        14        27     1
        14        28     1
        15        31     1
        16        18     1
        17        27     1
        17        28     1
        19        29     1
        19        30     1
        20        21     1
        20        30     1
        22        23     1
        22        24     1
        22        25     1
        22        26     1
