; ITP file created by ByteFF-ML, 2025-12-06 03:40:02.239782

[ atomtypes ]
;name           bonded.type        at.num        mass        charge   ptype           sigma         epsilon
 c0bf                                   6      0.0000       0.00000       A     3.31506e-01     4.12855e-01
 c1bf                                   6      0.0000       0.00000       A     3.31499e-01     4.13093e-01
 c2bf                                   6      0.0000       0.00000       A     3.31533e-01     4.12279e-01
 c3bf                                   6      0.0000       0.00000       A     3.31499e-01     4.13093e-01
 c4bf                                   6      0.0000       0.00000       A     3.31533e-01     4.12279e-01
 c5bf                                   6      0.0000       0.00000       A     3.31389e-01     4.12078e-01
 c6bf                                   6      0.0000       0.00000       A     3.39780e-01     4.52018e-01
 c7bf                                   6      0.0000       0.00000       A     3.39868e-01     4.50821e-01
 c8bf                                   6      0.0000       0.00000       A     3.31332e-01     4.12707e-01
 n9bf                                   7      0.0000       0.00000       A     3.38783e-01     3.92738e-01
 o10bf                                  8      0.0000       0.00000       A     3.24179e-01     3.84587e-01
 c11bf                                  6      0.0000       0.00000       A     3.31376e-01     4.11971e-01
 c12bf                                  6      0.0000       0.00000       A     3.39863e-01     4.51913e-01
 c13bf                                  6      0.0000       0.00000       A     3.31469e-01     4.12873e-01
 n14bf                                  7      0.0000       0.00000       A     3.38241e-01     3.91806e-01
 c15bf                                  6      0.0000       0.00000       A     3.31382e-01     4.14783e-01
 n16bf                                  7      0.0000       0.00000       A     3.36784e-01     4.72733e-01
 n17bf                                  7      0.0000       0.00000       A     3.38303e-01     3.93616e-01
 c18bf                                  6      0.0000       0.00000       A     3.31230e-01     4.14413e-01
 h19bf                                  1      0.0000       0.00000       A     2.62458e-01     6.72647e-02
 h20bf                                  1      0.0000       0.00000       A     2.62458e-01     6.72647e-02
 h21bf                                  1      0.0000       0.00000       A     2.62497e-01     6.75329e-02
 h22bf                                  1      0.0000       0.00000       A     2.59841e-01     8.68565e-02
 h23bf                                  1      0.0000       0.00000       A     2.59890e-01     8.73641e-02
 h24bf                                  1      0.0000       0.00000       A     2.59890e-01     8.73641e-02
 h25bf                                  1      0.0000       0.00000       A     5.35355e-02     2.08814e-02
 h26bf                                  1      0.0000       0.00000       A     2.59803e-01     8.72028e-02
 h27bf                                  1      0.0000       0.00000       A     2.59803e-01     8.72028e-02
 h28bf                                  1      0.0000       0.00000       A     1.10066e-01     4.24315e-02
 h29bf                                  1      0.0000       0.00000       A     1.10066e-01     4.24315e-02
 h30bf                                  1      0.0000       0.00000       A     2.62497e-01     6.75329e-02
 h31bf                                  1      0.0000       0.00000       A     2.53485e-01     6.65513e-02
 h32bf                                  1      0.0000       0.00000       A     2.62457e-01     6.73477e-02

[ moleculetype ]
;name             nrexcl
 8                     3

[ atoms ]
;       nr            type      resi   res      atom      cgnr      charge          mass ; qtot
         1            c0bf         1   UNL        c0         1    -0.11089       12.0110 ; qtot   -0.111
         2            c1bf         1   UNL        c1         2    -0.11113       12.0110 ; qtot   -0.222
         3            c2bf         1   UNL        c2         3    -0.10641       12.0110 ; qtot   -0.328
         4            c3bf         1   UNL        c3         4    -0.11113       12.0110 ; qtot   -0.440
         5            c4bf         1   UNL        c4         5    -0.10641       12.0110 ; qtot   -0.546
         6            c5bf         1   UNL        c5         6    -0.08104       12.0110 ; qtot   -0.627
         7            c6bf         1   UNL        c6         7    -0.00770       12.0110 ; qtot   -0.635
         8            c7bf         1   UNL        c7         8    -0.11918       12.0110 ; qtot   -0.754
         9            c8bf         1   UNL        c8         9     0.44349       12.0110 ; qtot   -0.310
        10            n9bf         1   UNL        n9        10    -0.32189       14.0070 ; qtot   -0.632
        11           o10bf         1   UNL       o10        11    -0.52066       15.9990 ; qtot   -1.153
        12           c11bf         1   UNL       c11        12    -0.30594       12.0110 ; qtot   -1.459
        13           c12bf         1   UNL       c12        13    -0.13373       12.0110 ; qtot   -1.593
        14           c13bf         1   UNL       c13        14     0.17847       12.0110 ; qtot   -1.414
        15           n14bf         1   UNL       n14        15    -0.24095       14.0070 ; qtot   -1.655
        16           c15bf         1   UNL       c15        16     0.36756       12.0110 ; qtot   -1.288
        17           n16bf         1   UNL       n16        17    -1.03015       14.0070 ; qtot   -2.318
        18           n17bf         1   UNL       n17        18    -0.24637       14.0070 ; qtot   -2.564
        19           c18bf         1   UNL       c18        19     0.18835       12.0110 ; qtot   -2.376
        20           h19bf         1   UNL       h19        20     0.11406        1.0080 ; qtot   -2.262
        21           h20bf         1   UNL       h20        21     0.11406        1.0080 ; qtot   -2.148
        22           h21bf         1   UNL       h21        22     0.11219        1.0080 ; qtot   -2.035
        23           h22bf         1   UNL       h22        23     0.06119        1.0080 ; qtot   -1.974
        24           h23bf         1   UNL       h23        24     0.06837        1.0080 ; qtot   -1.906
        25           h24bf         1   UNL       h24        25     0.06837        1.0080 ; qtot   -1.837
        26           h25bf         1   UNL       h25        26     0.46640        1.0080 ; qtot   -1.371
        27           h26bf         1   UNL       h26        27     0.07268        1.0080 ; qtot   -1.298
        28           h27bf         1   UNL       h27        28     0.07268        1.0080 ; qtot   -1.226
        29           h28bf         1   UNL       h28        29     0.47748        1.0080 ; qtot   -0.748
        30           h29bf         1   UNL       h29        30     0.47748        1.0080 ; qtot   -0.271
        31           h30bf         1   UNL       h30        31     0.11219        1.0080 ; qtot   -0.159
        32           h31bf         1   UNL       h31        32     0.04486        1.0080 ; qtot   -0.114
        33           h32bf         1   UNL       h32        33     0.11370        1.0080 ; qtot   -0.000

[ bonds ]
;       ai        aj funct               r               k
         1         2     1        0.139901   307433.751855
         1         4     1        0.139901   307433.751855
         1        33     1        0.108625   319984.475000
         2         3     1        0.139828   313743.741748
         2        20     1        0.108651   318708.794238
         3         6     1        0.140376   286178.883740
         3        31     1        0.108684   315351.890137
         4         5     1        0.139828   313743.741748
         4        21     1        0.108651   318708.794238
         5         6     1        0.140376   286178.883740
         5        22     1        0.108684   315351.890137
         6         7     1        0.151641   187999.742993
         7         8     1        0.154267   170291.226025
         7        13     1        0.153840   177270.377563
         7        23     1        0.109591   297224.449658
         8         9     1        0.151127   188989.765649
         8        24     1        0.109422   298913.142090
         8        25     1        0.109422   298913.142090
         9        10     1        0.129024   505805.864258
         9        12     1        0.147226   207710.816235
        10        11     1        0.140889   209139.081226
        11        26     1        0.097167   471574.697070
        12        14     1        0.140933   265953.799561
        12        19     1        0.140548   276607.804980
        13        14     1        0.150759   198415.001978
        13        27     1        0.109510   297123.935596
        13        28     1        0.109510   297123.935596
        14        15     1        0.133615   329331.516699
        15        16     1        0.134833   264285.562354
        16        17     1        0.136602   334912.115674
        16        18     1        0.135162   257250.982520
        17        29     1        0.101078   429790.878711
        17        30     1        0.101078   429790.827637
        18        19     1        0.133129   358360.289502
        19        32     1        0.108718   318089.008594

[ angles ]
;       ai        aj        ak funct           theta             cth
         1         2         3     1      120.169235      698.271269
         1         2        20     1      120.083542      438.078386
         1         4         5     1      120.169235      698.271269
         1         4        21     1      120.083542      438.078386
         2         1         4     1      119.357559      675.610276
         2         1        33     1      120.333389      432.683065
         2         3         6     1      121.036438      704.378469
         2         3        31     1      119.288551      439.705547
         3         2        20     1      119.795448      435.613448
         3         6         5     1      118.050636      644.329233
         3         6         7     1      120.920753      500.404191
         4         1        33     1      120.333389      432.683065
         4         5         6     1      121.036438      704.378469
         4         5        22     1      119.288551      439.705547
         5         4        21     1      119.795448      435.613448
         5         6         7     1      120.920753      500.404191
         6         3        31     1      119.746094      414.624913
         6         5        22     1      119.746094      414.624913
         6         7         8     1      112.204758      601.466088
         6         7        13     1      112.483688      597.779168
         6         7        23     1      107.660141      507.244274
         7         8         9     1      111.248146      660.057028
         7         8        24     1      109.981178      471.076672
         7         8        25     1      109.981178      471.076672
         7        13        14     1      112.310318      603.282734
         7        13        27     1      110.408531      467.288306
         7        13        28     1      110.408531      467.288306
         8         7        13     1      109.191566      565.994597
         8         7        23     1      107.275330      480.275586
         8         9        10     1      120.008690      432.688460
         8         9        12     1      117.153885      491.594910
         9         8        24     1      109.013084      496.407857
         9         8        25     1      109.013084      496.407857
         9        10        11     1      113.112999      801.250620
         9        12        14     1      120.230179      594.837421
         9        12        19     1      123.885643      513.558516
        10         9        12     1      124.515732      399.499155
        10        11        26     1      102.120949      637.494545
        12        14        13     1      120.560204      495.019947
        12        14        15     1      122.318359      740.579364
        12        19        18     1      123.672630      754.235397
        12        19        32     1      119.552567      405.439119
        13         7        23     1      107.443764      480.181354
        13        14        15     1      116.970764      441.773765
        14        12        19     1      115.494774      773.622596
        14        13        27     1      108.370018      513.192218
        14        13        28     1      108.370018      513.192218
        14        15        16     1      116.580101      849.389476
        15        16        17     1      116.771118      577.833728
        15        16        18     1      126.387306      667.883513
        16        17        29     1      117.066307      464.047775
        16        17        30     1      117.066307      464.047775
        16        18        19     1      115.779945      941.439838
        17        16        18     1      116.752159      621.263030
        18        19        32     1      116.720825      391.075580
        24         8        25     1      107.134850      355.028227
        27        13        28     1      106.622803      364.625743
        29        17        30     1      117.697060      318.890408

[ dihedrals ] ; propers for gromacs 4.5 or higher, use funct 9
;       ai        aj        ak        al funct           phase               k        pn
         1         2         3         6     9        0.000000        0.008932         1
         1         2         3         6     9      180.000000       18.950616         2
         1         2         3         6     9        0.000000       -1.604120         3
         1         2         3         6     9      180.000000       -0.392569         4
         1         2         3        31     9        0.000000        0.044630         1
         1         2         3        31     9      180.000000       14.828527         2
         1         2         3        31     9        0.000000       -0.709579         3
         1         2         3        31     9      180.000000        0.144710         4
         1         4         5         6     9        0.000000        0.008932         1
         1         4         5         6     9      180.000000       18.950616         2
         1         4         5         6     9        0.000000       -1.604120         3
         1         4         5         6     9      180.000000       -0.392569         4
         1         4         5        22     9        0.000000        0.044629         1
         1         4         5        22     9      180.000000       14.828527         2
         1         4         5        22     9        0.000000       -0.709579         3
         1         4         5        22     9      180.000000        0.144711         4
         2         1         4         5     9        0.000000       -0.058756         1
         2         1         4         5     9      180.000000       18.610895         2
         2         1         4         5     9        0.000000       -1.620294         3
         2         1         4         5     9      180.000000       -0.375316         4
         2         1         4        21     9        0.000000        0.000960         1
         2         1         4        21     9      180.000000       14.397477         2
         2         1         4        21     9        0.000000       -0.805059         3
         2         1         4        21     9      180.000000        0.171917         4
         2         3         6         5     9        0.000000       -0.124908         1
         2         3         6         5     9      180.000000       18.966088         2
         2         3         6         5     9        0.000000       -1.471131         3
         2         3         6         5     9      180.000000       -0.388983         4
         2         3         6         7     9        0.000000        0.187599         1
         2         3         6         7     9      180.000000       15.459210         2
         2         3         6         7     9        0.000000       -0.097914         3
         2         3         6         7     9      180.000000       -0.219347         4
         3         2         1         4     9        0.000000       -0.058756         1
         3         2         1         4     9      180.000000       18.610895         2
         3         2         1         4     9        0.000000       -1.620294         3
         3         2         1         4     9      180.000000       -0.375316         4
         3         2         1        33     9        0.000000        0.007062         1
         3         2         1        33     9      180.000000       14.225511         2
         3         2         1        33     9        0.000000       -0.764646         3
         3         2         1        33     9      180.000000        0.141326         4
         3         6         5         4     9        0.000000       -0.124908         1
         3         6         5         4     9      180.000000       18.966088         2
         3         6         5         4     9        0.000000       -1.471131         3
         3         6         5         4     9      180.000000       -0.388983         4
         3         6         5        22     9        0.000000       -0.002232         1
         3         6         5        22     9      180.000000       14.309111         2
         3         6         5        22     9        0.000000       -0.614342         3
         3         6         5        22     9      180.000000        0.051463         4
         3         6         7         8     9        0.000000        0.063968         1
         3         6         7         8     9      180.000000        0.519024         2
         3         6         7         8     9        0.000000        0.152607         3
         3         6         7         8     9      180.000000        0.108763         4
         3         6         7        13     9        0.000000        0.083565         1
         3         6         7        13     9      180.000000        0.583841         2
         3         6         7        13     9        0.000000        0.184812         3
         3         6         7        13     9      180.000000        0.088042         4
         3         6         7        23     9        0.000000        0.159047         1
         3         6         7        23     9      180.000000       -0.086357         2
         3         6         7        23     9        0.000000        0.069652         3
         3         6         7        23     9      180.000000       -0.024558         4
         4         1         2        20     9        0.000000        0.000960         1
         4         1         2        20     9      180.000000       14.397477         2
         4         1         2        20     9        0.000000       -0.805059         3
         4         1         2        20     9      180.000000        0.171917         4
         4         5         6         7     9        0.000000        0.187599         1
         4         5         6         7     9      180.000000       15.459210         2
         4         5         6         7     9        0.000000       -0.097914         3
         4         5         6         7     9      180.000000       -0.219347         4
         5         4         1        33     9        0.000000        0.007062         1
         5         4         1        33     9      180.000000       14.225511         2
         5         4         1        33     9        0.000000       -0.764646         3
         5         4         1        33     9      180.000000        0.141326         4
         5         6         3        31     9        0.000000       -0.002231         1
         5         6         3        31     9      180.000000       14.309111         2
         5         6         3        31     9        0.000000       -0.614342         3
         5         6         3        31     9      180.000000        0.051464         4
         5         6         7         8     9        0.000000        0.063968         1
         5         6         7         8     9      180.000000        0.519024         2
         5         6         7         8     9        0.000000        0.152607         3
         5         6         7         8     9      180.000000        0.108763         4
         5         6         7        13     9        0.000000        0.083565         1
         5         6         7        13     9      180.000000        0.583841         2
         5         6         7        13     9        0.000000        0.184812         3
         5         6         7        13     9      180.000000        0.088042         4
         5         6         7        23     9        0.000000        0.159047         1
         5         6         7        23     9      180.000000       -0.086357         2
         5         6         7        23     9        0.000000        0.069652         3
         5         6         7        23     9      180.000000       -0.024558         4
         6         3         2        20     9        0.000000        0.017912         1
         6         3         2        20     9      180.000000       14.656216         2
         6         3         2        20     9        0.000000       -0.710232         3
         6         3         2        20     9      180.000000        0.126581         4
         6         5         4        21     9        0.000000        0.017912         1
         6         5         4        21     9      180.000000       14.656216         2
         6         5         4        21     9        0.000000       -0.710232         3
         6         5         4        21     9      180.000000        0.126581         4
         6         7         8         9     9        0.000000       -0.745655         1
         6         7         8         9     9      180.000000       -0.253833         2
         6         7         8         9     9        0.000000        0.345195         3
         6         7         8         9     9      180.000000        0.059718         4
         6         7         8        24     9        0.000000        0.045440         1
         6         7         8        24     9      180.000000        0.033465         2
         6         7         8        24     9        0.000000        0.488195         3
         6         7         8        24     9      180.000000       -0.046582         4
         6         7         8        25     9        0.000000        0.045440         1
         6         7         8        25     9      180.000000        0.033465         2
         6         7         8        25     9        0.000000        0.488195         3
         6         7         8        25     9      180.000000       -0.046582         4
         6         7        13        14     9        0.000000       -0.405210         1
         6         7        13        14     9      180.000000       -0.301013         2
         6         7        13        14     9        0.000000        0.558228         3
         6         7        13        14     9      180.000000        0.070699         4
         6         7        13        27     9        0.000000        0.065491         1
         6         7        13        27     9      180.000000       -0.010934         2
         6         7        13        27     9        0.000000        0.543066         3
         6         7        13        27     9      180.000000       -0.040904         4
         6         7        13        28     9        0.000000        0.065491         1
         6         7        13        28     9      180.000000       -0.010934         2
         6         7        13        28     9        0.000000        0.543066         3
         6         7        13        28     9      180.000000       -0.040904         4
         7         6         3        31     9        0.000000       -0.102196         1
         7         6         3        31     9      180.000000       13.082394         2
         7         6         3        31     9        0.000000       -0.329811         3
         7         6         3        31     9      180.000000        0.190864         4
         7         6         5        22     9        0.000000       -0.102197         1
         7         6         5        22     9      180.000000       13.082393         2
         7         6         5        22     9        0.000000       -0.329810         3
         7         6         5        22     9      180.000000        0.190864         4
         7         8         9        10     9        0.000000       -1.083153         1
         7         8         9        10     9      180.000000       -0.847875         2
         7         8         9        10     9        0.000000       -0.444257         3
         7         8         9        10     9      180.000000        0.183517         4
         7         8         9        12     9        0.000000        0.033951         1
         7         8         9        12     9      180.000000       -0.646406         2
         7         8         9        12     9        0.000000        0.032059         3
         7         8         9        12     9      180.000000        0.160639         4
         7        13        14        12     9        0.000000        1.657769         1
         7        13        14        12     9      180.000000       -1.063944         2
         7        13        14        12     9        0.000000       -0.180098         3
         7        13        14        12     9      180.000000        0.443498         4
         7        13        14        15     9        0.000000       -0.348014         1
         7        13        14        15     9      180.000000       -0.404174         2
         7        13        14        15     9        0.000000        0.245127         3
         7        13        14        15     9      180.000000        0.236491         4
         8         7        13        14     9        0.000000        3.217517         1
         8         7        13        14     9      180.000000       -2.281468         2
         8         7        13        14     9        0.000000       -0.058116         3
         8         7        13        14     9      180.000000        0.174313         4
         8         7        13        27     9        0.000000       -0.012887         1
         8         7        13        27     9      180.000000        0.037674         2
         8         7        13        27     9        0.000000        0.239313         3
         8         7        13        27     9      180.000000        0.037410         4
         8         7        13        28     9        0.000000       -0.012887         1
         8         7        13        28     9      180.000000        0.037674         2
         8         7        13        28     9        0.000000        0.239313         3
         8         7        13        28     9      180.000000        0.037410         4
         8         9        10        11     9        0.000000        3.252203         1
         8         9        10        11     9      180.000000       51.887719         2
         8         9        10        11     9        0.000000        3.034897         3
         8         9        10        11     9      180.000000       -3.471283         4
         8         9        12        14     9        0.000000        0.001821         1
         8         9        12        14     9      180.000000        3.181297         2
         8         9        12        14     9        0.000000       -0.273439         3
         8         9        12        14     9      180.000000        0.195817         4
         8         9        12        19     9        0.000000       -1.078681         1
         8         9        12        19     9      180.000000        3.515841         2
         8         9        12        19     9        0.000000       -0.144746         3
         8         9        12        19     9      180.000000        0.150722         4
         9         8         7        13     9        0.000000        0.193499         1
         9         8         7        13     9      180.000000       -0.500197         2
         9         8         7        13     9        0.000000       -0.011025         3
         9         8         7        13     9      180.000000       -0.212942         4
         9         8         7        23     9        0.000000       -0.296659         1
         9         8         7        23     9      180.000000       -0.046722         2
         9         8         7        23     9        0.000000        0.169163         3
         9         8         7        23     9      180.000000        0.116090         4
         9        10        11        26     9        0.000000        2.024121         1
         9        10        11        26     9      180.000000       12.678770         2
         9        10        11        26     9        0.000000       -0.330975         3
         9        10        11        26     9      180.000000        0.221989         4
         9        12        14        13     9        0.000000       -0.081095         1
         9        12        14        13     9      180.000000       12.701550         2
         9        12        14        13     9        0.000000        0.058892         3
         9        12        14        13     9      180.000000       -0.446282         4
         9        12        14        15     9        0.000000       -0.138668         1
         9        12        14        15     9      180.000000       13.265177         2
         9        12        14        15     9        0.000000       -0.033823         3
         9        12        14        15     9      180.000000       -0.447267         4
         9        12        19        18     9        0.000000       -0.068819         1
         9        12        19        18     9      180.000000       13.845205         2
         9        12        19        18     9        0.000000        0.048471         3
         9        12        19        18     9      180.000000       -0.494599         4
         9        12        19        32     9        0.000000       -0.028253         1
         9        12        19        32     9      180.000000       11.684197         2
         9        12        19        32     9        0.000000       -0.010865         3
         9        12        19        32     9      180.000000       -0.085467         4
        10         9         8        24     9        0.000000       -0.062281         1
        10         9         8        24     9      180.000000       -0.089707         2
        10         9         8        24     9        0.000000       -0.519571         3
        10         9         8        24     9      180.000000        0.016824         4
        10         9         8        25     9        0.000000       -0.062281         1
        10         9         8        25     9      180.000000       -0.089707         2
        10         9         8        25     9        0.000000       -0.519571         3
        10         9         8        25     9      180.000000        0.016824         4
        10         9        12        14     9        0.000000        1.888015         1
        10         9        12        14     9      180.000000        3.601241         2
        10         9        12        14     9        0.000000        0.315727         3
        10         9        12        14     9      180.000000       -0.060737         4
        10         9        12        19     9        0.000000        0.770710         1
        10         9        12        19     9      180.000000        3.814427         2
        10         9        12        19     9        0.000000        0.320550         3
        10         9        12        19     9      180.000000       -0.045678         4
        11        10         9        12     9        0.000000        1.194487         1
        11        10         9        12     9      180.000000       38.770240         2
        11        10         9        12     9        0.000000        3.824235         3
        11        10         9        12     9      180.000000       -1.756185         4
        12         9         8        24     9        0.000000        0.051098         1
        12         9         8        24     9      180.000000       -0.096648         2
        12         9         8        24     9        0.000000       -0.079830         3
        12         9         8        24     9      180.000000        0.154182         4
        12         9         8        25     9        0.000000        0.051098         1
        12         9         8        25     9      180.000000       -0.096648         2
        12         9         8        25     9        0.000000       -0.079830         3
        12         9         8        25     9      180.000000        0.154182         4
        12        14        13        27     9        0.000000       -0.018522         1
        12        14        13        27     9      180.000000       -0.028330         2
        12        14        13        27     9        0.000000       -0.231855         3
        12        14        13        27     9      180.000000        0.035401         4
        12        14        13        28     9        0.000000       -0.018522         1
        12        14        13        28     9      180.000000       -0.028330         2
        12        14        13        28     9        0.000000       -0.231855         3
        12        14        13        28     9      180.000000        0.035401         4
        12        14        15        16     9        0.000000       -0.829526         1
        12        14        15        16     9      180.000000       19.604488         2
        12        14        15        16     9        0.000000       -0.673400         3
        12        14        15        16     9      180.000000       -0.273950         4
        12        19        18        16     9        0.000000       -0.704938         1
        12        19        18        16     9      180.000000       20.948294         2
        12        19        18        16     9        0.000000       -1.276740         3
        12        19        18        16     9      180.000000       -0.206957         4
        13         7         8        24     9        0.000000       -0.035060         1
        13         7         8        24     9      180.000000        0.066395         2
        13         7         8        24     9        0.000000        0.194452         3
        13         7         8        24     9      180.000000        0.051826         4
        13         7         8        25     9        0.000000       -0.035060         1
        13         7         8        25     9      180.000000        0.066395         2
        13         7         8        25     9        0.000000        0.194452         3
        13         7         8        25     9      180.000000        0.051826         4
        13        14        12        19     9        0.000000        0.012482         1
        13        14        12        19     9      180.000000       12.430198         2
        13        14        12        19     9        0.000000       -0.024727         3
        13        14        12        19     9      180.000000       -0.371572         4
        13        14        15        16     9        0.000000        0.293064         1
        13        14        15        16     9      180.000000       20.610724         2
        13        14        15        16     9        0.000000        0.593723         3
        13        14        15        16     9      180.000000       -0.826397         4
        14        12        19        18     9        0.000000        0.252392         1
        14        12        19        18     9      180.000000       13.936697         2
        14        12        19        18     9        0.000000       -0.224869         3
        14        12        19        18     9      180.000000       -0.277823         4
        14        12        19        32     9        0.000000        0.288294         1
        14        12        19        32     9      180.000000       12.628423         2
        14        12        19        32     9        0.000000       -0.283320         3
        14        12        19        32     9      180.000000       -0.168012         4
        14        13         7        23     9        0.000000       -0.278051         1
        14        13         7        23     9      180.000000       -0.059909         2
        14        13         7        23     9        0.000000        0.273833         3
        14        13         7        23     9      180.000000        0.089371         4
        14        15        16        17     9        0.000000        1.247319         1
        14        15        16        17     9      180.000000       18.809178         2
        14        15        16        17     9        0.000000        0.454804         3
        14        15        16        17     9      180.000000       -1.303540         4
        14        15        16        18     9        0.000000        0.327321         1
        14        15        16        18     9      180.000000       10.303849         2
        14        15        16        18     9        0.000000        0.838719         3
        14        15        16        18     9      180.000000       -0.477356         4
        15        14        12        19     9        0.000000        0.166568         1
        15        14        12        19     9      180.000000       14.025081         2
        15        14        12        19     9        0.000000       -0.044732         3
        15        14        12        19     9      180.000000       -0.508297         4
        15        14        13        27     9        0.000000        0.111133         1
        15        14        13        27     9      180.000000        0.072780         2
        15        14        13        27     9        0.000000        0.018690         3
        15        14        13        27     9      180.000000        0.008674         4
        15        14        13        28     9        0.000000        0.111133         1
        15        14        13        28     9      180.000000        0.072780         2
        15        14        13        28     9        0.000000        0.018690         3
        15        14        13        28     9      180.000000        0.008674         4
        15        16        17        29     9        0.000000        2.068125         1
        15        16        17        29     9      180.000000        8.500599         2
        15        16        17        29     9        0.000000       -0.260619         3
        15        16        17        29     9      180.000000       -0.742210         4
        15        16        17        30     9        0.000000        2.068125         1
        15        16        17        30     9      180.000000        8.500599         2
        15        16        17        30     9        0.000000       -0.260619         3
        15        16        17        30     9      180.000000       -0.742210         4
        15        16        18        19     9        0.000000        0.615405         1
        15        16        18        19     9      180.000000       11.294575         2
        15        16        18        19     9        0.000000        0.564882         3
        15        16        18        19     9      180.000000       -0.433730         4
        16        18        19        32     9        0.000000        0.356049         1
        16        18        19        32     9      180.000000       18.492385         2
        16        18        19        32     9        0.000000       -0.275172         3
        16        18        19        32     9      180.000000        0.046746         4
        17        16        18        19     9        0.000000        1.138540         1
        17        16        18        19     9      180.000000       20.172826         2
        17        16        18        19     9        0.000000        0.398445         3
        17        16        18        19     9      180.000000       -1.305231         4
        18        16        17        29     9        0.000000        1.980462         1
        18        16        17        29     9      180.000000        8.437557         2
        18        16        17        29     9        0.000000       -0.214409         3
        18        16        17        29     9      180.000000       -0.855760         4
        18        16        17        30     9        0.000000        1.980462         1
        18        16        17        30     9      180.000000        8.437557         2
        18        16        17        30     9        0.000000       -0.214409         3
        18        16        17        30     9      180.000000       -0.855760         4
        20         2         1        33     9        0.000000       -0.084921         1
        20         2         1        33     9      180.000000       11.439949         2
        20         2         1        33     9        0.000000       -0.581937         3
        20         2         1        33     9      180.000000        0.269846         4
        20         2         3        31     9        0.000000       -0.177618         1
        20         2         3        31     9      180.000000       11.664965         2
        20         2         3        31     9        0.000000       -0.723907         3
        20         2         3        31     9      180.000000        0.363783         4
        21         4         1        33     9        0.000000       -0.084921         1
        21         4         1        33     9      180.000000       11.439949         2
        21         4         1        33     9        0.000000       -0.581937         3
        21         4         1        33     9      180.000000        0.269846         4
        21         4         5        22     9        0.000000       -0.177619         1
        21         4         5        22     9      180.000000       11.664967         2
        21         4         5        22     9        0.000000       -0.723908         3
        21         4         5        22     9      180.000000        0.363783         4
        23         7         8        24     9        0.000000        0.008271         1
        23         7         8        24     9      180.000000        0.035558         2
        23         7         8        24     9        0.000000        0.399288         3
        23         7         8        24     9      180.000000       -0.041525         4
        23         7         8        25     9        0.000000        0.008271         1
        23         7         8        25     9      180.000000        0.035558         2
        23         7         8        25     9        0.000000        0.399288         3
        23         7         8        25     9      180.000000       -0.041525         4
        23         7        13        27     9        0.000000        0.008530         1
        23         7        13        27     9      180.000000       -0.001695         2
        23         7        13        27     9        0.000000        0.450569         3
        23         7        13        27     9      180.000000       -0.035413         4
        23         7        13        28     9        0.000000        0.008530         1
        23         7        13        28     9      180.000000       -0.001695         2
        23         7        13        28     9        0.000000        0.450569         3
        23         7        13        28     9      180.000000       -0.035413         4

[ dihedrals ] ; impropers
;       ai        aj        ak        al funct           phase               k        pn
         9         8        10        12     4      180.000000       11.392111         2
         9        10        12         8     4      180.000000       11.392111         2
         9        12         8        10     4      180.000000       11.392111         2
        14        12        13        15     4      180.000000       14.475536         2
        14        13        15        12     4      180.000000       14.475536         2
        14        15        12        13     4      180.000000       14.475536         2
        16        15        17        18     4      180.000000        4.071695         2
        16        17        18        15     4      180.000000        4.071695         2
        16        18        15        17     4      180.000000        4.071695         2
        19        12        18        32     4      180.000000       13.343716         2
        19        18        32        12     4      180.000000       13.343716         2
        19        32        12        18     4      180.000000       13.343716         2

[ pairs ]
;       ai        aj funct
         1         6     1
         1        22     1
         1        31     1
         2         5     1
         2         7     1
         2        21     1
         3         4     1
         3         8     1
         3        13     1
         3        22     1
         3        23     1
         3        33     1
         4         7     1
         4        20     1
         5         8     1
         5        13     1
         5        23     1
         5        31     1
         5        33     1
         6         9     1
         6        14     1
         6        20     1
         6        21     1
         6        24     1
         6        25     1
         6        27     1
         6        28     1
         7        10     1
         7        12     1
         7        15     1
         7        22     1
         7        31     1
         8        11     1
         8        14     1
         8        19     1
         8        27     1
         8        28     1
         9        13     1
         9        15     1
         9        18     1
         9        23     1
         9        26     1
         9        32     1
        10        14     1
        10        19     1
        10        24     1
        10        25     1
        11        12     1
        12        16     1
        12        24     1
        12        25     1
        12        27     1
        12        28     1
        13        16     1
        13        19     1
        13        24     1
        13        25     1
        14        17     1
        14        18     1
        14        23     1
        14        32     1
        15        19     1
        15        27     1
        15        28     1
        15        29     1
        15        30     1
        16        32     1
        17        19     1
        18        29     1
        18        30     1
        20        31     1
        20        33     1
        21        22     1
        21        33     1
        23        24     1
        23        25     1
        23        27     1
        23        28     1
