; ITP file created by ByteFF-ML, 2025-12-06 03:40:14.036552

[ atomtypes ]
;name           bonded.type        at.num        mass        charge   ptype           sigma         epsilon
 f0bf                                   9      0.0000       0.00000       A     3.03427e-01     3.47782e-01
 c1bf                                   6      0.0000       0.00000       A     3.31525e-01     4.13214e-01
 c2bf                                   6      0.0000       0.00000       A     3.31491e-01     4.12522e-01
 c3bf                                   6      0.0000       0.00000       A     3.31544e-01     4.12514e-01
 c4bf                                   6      0.0000       0.00000       A     3.31491e-01     4.12522e-01
 c5bf                                   6      0.0000       0.00000       A     3.31544e-01     4.12514e-01
 c6bf                                   6      0.0000       0.00000       A     3.31421e-01     4.12257e-01
 c7bf                                   6      0.0000       0.00000       A     3.39758e-01     4.51796e-01
 c8bf                                   6      0.0000       0.00000       A     3.39967e-01     4.51683e-01
 c9bf                                   6      0.0000       0.00000       A     3.31435e-01     4.13497e-01
 o10bf                                  8      0.0000       0.00000       A     3.04823e-01     6.13029e-01
 c11bf                                  6      0.0000       0.00000       A     3.31482e-01     4.12440e-01
 c12bf                                  6      0.0000       0.00000       A     3.39861e-01     4.52026e-01
 c13bf                                  6      0.0000       0.00000       A     3.31346e-01     4.11353e-01
 n14bf                                  7      0.0000       0.00000       A     3.38223e-01     3.89720e-01
 c15bf                                  6      0.0000       0.00000       A     3.31382e-01     4.14783e-01
 n16bf                                  7      0.0000       0.00000       A     3.36784e-01     4.72733e-01
 n17bf                                  7      0.0000       0.00000       A     3.38292e-01     3.93659e-01
 c18bf                                  6      0.0000       0.00000       A     3.31254e-01     4.13369e-01
 h19bf                                  1      0.0000       0.00000       A     2.62526e-01     6.71227e-02
 h20bf                                  1      0.0000       0.00000       A     2.62526e-01     6.71227e-02
 h21bf                                  1      0.0000       0.00000       A     2.62479e-01     6.73525e-02
 h22bf                                  1      0.0000       0.00000       A     2.59863e-01     8.70432e-02
 h23bf                                  1      0.0000       0.00000       A     2.59833e-01     8.75252e-02
 h24bf                                  1      0.0000       0.00000       A     2.59833e-01     8.75252e-02
 h25bf                                  1      0.0000       0.00000       A     2.59803e-01     8.72028e-02
 h26bf                                  1      0.0000       0.00000       A     2.59803e-01     8.72028e-02
 h27bf                                  1      0.0000       0.00000       A     1.10066e-01     4.24315e-02
 h28bf                                  1      0.0000       0.00000       A     1.10066e-01     4.24315e-02
 h29bf                                  1      0.0000       0.00000       A     2.62479e-01     6.73525e-02
 h30bf                                  1      0.0000       0.00000       A     2.53453e-01     6.68306e-02

[ moleculetype ]
;name             nrexcl
 9                     3

[ atoms ]
;       nr            type      resi   res      atom      cgnr      charge          mass ; qtot
         1            f0bf         1   UNL        f0         1    -0.18099       18.9980 ; qtot   -0.181
         2            c1bf         1   UNL        c1         2     0.15907       12.0110 ; qtot   -0.022
         3            c2bf         1   UNL        c2         3    -0.14679       12.0110 ; qtot   -0.169
         4            c3bf         1   UNL        c3         4    -0.07962       12.0110 ; qtot   -0.248
         5            c4bf         1   UNL        c4         5    -0.14679       12.0110 ; qtot   -0.395
         6            c5bf         1   UNL        c5         6    -0.07962       12.0110 ; qtot   -0.475
         7            c6bf         1   UNL        c6         7    -0.09372       12.0110 ; qtot   -0.568
         8            c7bf         1   UNL        c7         8     0.00065       12.0110 ; qtot   -0.568
         9            c8bf         1   UNL        c8         9    -0.16865       12.0110 ; qtot   -0.736
        10            c9bf         1   UNL        c9        10     0.60235       12.0110 ; qtot   -0.134
        11           o10bf         1   UNL       o10        11    -0.51835       15.9990 ; qtot   -0.652
        12           c11bf         1   UNL       c11        12    -0.34818       12.0110 ; qtot   -1.001
        13           c12bf         1   UNL       c12        13    -0.13356       12.0110 ; qtot   -1.134
        14           c13bf         1   UNL       c13        14     0.20105       12.0110 ; qtot   -0.933
        15           n14bf         1   UNL       n14        15    -0.25019       14.0070 ; qtot   -1.183
        16           c15bf         1   UNL       c15        16     0.37941       12.0110 ; qtot   -0.804
        17           n16bf         1   UNL       n16        17    -1.03015       14.0070 ; qtot   -1.834
        18           n17bf         1   UNL       n17        18    -0.24145       14.0070 ; qtot   -2.076
        19           c18bf         1   UNL       c18        19     0.19902       12.0110 ; qtot   -1.877
        20           h19bf         1   UNL       h19        20     0.13470        1.0080 ; qtot   -1.742
        21           h20bf         1   UNL       h20        21     0.13470        1.0080 ; qtot   -1.607
        22           h21bf         1   UNL       h21        22     0.11843        1.0080 ; qtot   -1.489
        23           h22bf         1   UNL       h22        23     0.06190        1.0080 ; qtot   -1.427
        24           h23bf         1   UNL       h23        24     0.07538        1.0080 ; qtot   -1.351
        25           h24bf         1   UNL       h24        25     0.07538        1.0080 ; qtot   -1.276
        26           h25bf         1   UNL       h25        26     0.07631        1.0080 ; qtot   -1.200
        27           h26bf         1   UNL       h26        27     0.07631        1.0080 ; qtot   -1.123
        28           h27bf         1   UNL       h27        28     0.47748        1.0080 ; qtot   -0.646
        29           h28bf         1   UNL       h28        29     0.47748        1.0080 ; qtot   -0.168
        30           h29bf         1   UNL       h29        30     0.11843        1.0080 ; qtot   -0.050
        31           h30bf         1   UNL       h30        31     0.05001        1.0080 ; qtot    0.000

[ bonds ]
;       ai        aj funct               r               k
         1         2     1        0.135808   286795.783691
         2         3     1        0.139113   307731.029346
         2         5     1        0.139113   307731.029346
         3         4     1        0.139776   318191.361328
         3        20     1        0.108513   324000.491895
         4         7     1        0.140360   285767.072314
         4        30     1        0.108643   317148.987598
         5         6     1        0.139776   318191.361328
         5        21     1        0.108513   324000.491895
         6         7     1        0.140360   285767.072314
         6        22     1        0.108643   317148.987598
         7         8     1        0.151621   188702.894531
         8         9     1        0.153984   174099.038867
         8        13     1        0.153895   176798.349634
         8        23     1        0.109590   296994.871045
         9        10     1        0.151971   174572.931006
         9        24     1        0.109491   298546.352588
         9        25     1        0.109491   298546.352588
        10        11     1        0.122507   648094.500684
        10        12     1        0.147972   185099.097656
        12        14     1        0.140866   274172.049951
        12        19     1        0.140652   276491.381299
        13        14     1        0.150610   199655.377686
        13        26     1        0.109492   298015.665918
        13        27     1        0.109492   298015.665918
        14        15     1        0.133608   331595.228223
        15        16     1        0.135094   260863.615234
        16        17     1        0.136602   334912.115674
        16        18     1        0.135495   251514.121973
        17        28     1        0.101078   429790.878711
        17        29     1        0.101078   429790.878711
        18        19     1        0.132919   363741.928857
        19        31     1        0.108780   318104.764990

[ angles ]
;       ai        aj        ak funct           theta             cth
         1         2         3     1      119.015671      576.816457
         1         2         5     1      119.015671      576.816457
         2         3         4     1      118.466797      689.389654
         2         3        20     1      119.845154      438.392939
         2         5         6     1      118.466797      689.389654
         2         5        21     1      119.845154      438.392939
         3         2         5     1      121.938232      573.794204
         3         4         7     1      121.496765      697.695982
         3         4        30     1      118.778732      431.565082
         4         3        20     1      121.715736      425.041628
         4         7         6     1      117.987656      637.890242
         4         7         8     1      120.939369      508.143850
         5         6         7     1      121.496765      697.695982
         5         6        22     1      118.778732      431.565082
         6         5        21     1      121.715736      425.041628
         6         7         8     1      120.939369      508.143850
         7         4        30     1      119.870117      410.495339
         7         6        22     1      119.870117      410.495371
         7         8         9     1      112.327469      635.529081
         7         8        13     1      112.331772      595.221754
         7         8        23     1      107.662781      507.567829
         8         9        10     1      112.938049      743.138821
         8         9        24     1      110.620529      467.373887
         8         9        25     1      110.620529      467.373887
         8        13        14     1      112.302719      612.071011
         8        13        26     1      110.459488      466.160875
         8        13        27     1      110.459488      466.160875
         9         8        13     1      109.169022      573.623808
         9         8        23     1      107.463318      482.467245
         9        10        11     1      121.857605      609.436667
         9        10        12     1      116.152306      497.996872
        10         9        24     1      107.458786      544.032555
        10         9        25     1      107.458786      544.032555
        10        12        14     1      122.351486      626.184414
        10        12        19     1      121.279762      587.810885
        11        10        12     1      122.149879      589.698078
        12        14        13     1      120.685074      530.624104
        12        14        15     1      122.022545      748.917103
        12        19        18     1      123.364151      750.626429
        12        19        31     1      119.047707      401.802794
        13         8        23     1      107.411804      481.691683
        13        14        15     1      117.100708      440.742928
        14        12        19     1      116.211670      782.686801
        14        13        26     1      108.292862      517.246808
        14        13        27     1      108.292862      517.246808
        14        15        16     1      116.503372      841.144948
        15        16        17     1      116.499023      579.528435
        15        16        18     1      126.599586      672.480767
        16        17        28     1      117.066307      464.047743
        16        17        29     1      117.066307      464.047743
        16        18        19     1      115.572342      955.447836
        17        16        18     1      116.492355      624.230315
        18        19        31     1      117.178871      414.129365
        24         9        25     1      106.952286      357.290878
        26        13        27     1      106.627457      364.420424
        28        17        29     1      117.697060      318.890408

[ dihedrals ] ; propers for gromacs 4.5 or higher, use funct 9
;       ai        aj        ak        al funct           phase               k        pn
         1         2         3         4     9        0.000000        0.595726         1
         1         2         3         4     9      180.000000       23.163802         2
         1         2         3         4     9        0.000000        0.535926         3
         1         2         3         4     9      180.000000       -0.656523         4
         1         2         3        20     9        0.000000        0.247396         1
         1         2         3        20     9      180.000000       15.711528         2
         1         2         3        20     9        0.000000        0.305856         3
         1         2         3        20     9      180.000000        0.172634         4
         1         2         5         6     9        0.000000        0.595726         1
         1         2         5         6     9      180.000000       23.163802         2
         1         2         5         6     9        0.000000        0.535926         3
         1         2         5         6     9      180.000000       -0.656523         4
         1         2         5        21     9        0.000000        0.247396         1
         1         2         5        21     9      180.000000       15.711528         2
         1         2         5        21     9        0.000000        0.305856         3
         1         2         5        21     9      180.000000        0.172634         4
         2         3         4         7     9        0.000000       -0.020597         1
         2         3         4         7     9      180.000000       19.102694         2
         2         3         4         7     9        0.000000       -1.487673         3
         2         3         4         7     9      180.000000       -0.445546         4
         2         3         4        30     9        0.000000        0.214396         1
         2         3         4        30     9      180.000000       14.908485         2
         2         3         4        30     9        0.000000       -0.513548         3
         2         3         4        30     9      180.000000        0.100368         4
         2         5         6         7     9        0.000000       -0.020597         1
         2         5         6         7     9      180.000000       19.102694         2
         2         5         6         7     9        0.000000       -1.487673         3
         2         5         6         7     9      180.000000       -0.445546         4
         2         5         6        22     9        0.000000        0.214397         1
         2         5         6        22     9      180.000000       14.908488         2
         2         5         6        22     9        0.000000       -0.513549         3
         2         5         6        22     9      180.000000        0.100368         4
         3         2         5         6     9        0.000000       -0.115152         1
         3         2         5         6     9      180.000000       16.950368         2
         3         2         5         6     9        0.000000       -1.159834         3
         3         2         5         6     9      180.000000       -0.292430         4
         3         2         5        21     9        0.000000        0.134860         1
         3         2         5        21     9      180.000000       12.681977         2
         3         2         5        21     9        0.000000       -0.511494         3
         3         2         5        21     9      180.000000        0.160510         4
         3         4         7         6     9        0.000000       -0.111607         1
         3         4         7         6     9      180.000000       19.058079         2
         3         4         7         6     9        0.000000       -1.515678         3
         3         4         7         6     9      180.000000       -0.408869         4
         3         4         7         8     9        0.000000        0.141368         1
         3         4         7         8     9      180.000000       15.428526         2
         3         4         7         8     9        0.000000       -0.092543         3
         3         4         7         8     9      180.000000       -0.220937         4
         4         3         2         5     9        0.000000       -0.115152         1
         4         3         2         5     9      180.000000       16.950368         2
         4         3         2         5     9        0.000000       -1.159834         3
         4         3         2         5     9      180.000000       -0.292430         4
         4         7         6         5     9        0.000000       -0.111607         1
         4         7         6         5     9      180.000000       19.058079         2
         4         7         6         5     9        0.000000       -1.515678         3
         4         7         6         5     9      180.000000       -0.408869         4
         4         7         6        22     9        0.000000       -0.023263         1
         4         7         6        22     9      180.000000       14.335943         2
         4         7         6        22     9        0.000000       -0.661204         3
         4         7         6        22     9      180.000000        0.044745         4
         4         7         8         9     9        0.000000        0.123065         1
         4         7         8         9     9      180.000000        0.538727         2
         4         7         8         9     9        0.000000        0.173498         3
         4         7         8         9     9      180.000000        0.089089         4
         4         7         8        13     9        0.000000        0.024869         1
         4         7         8        13     9      180.000000        0.555316         2
         4         7         8        13     9        0.000000        0.156711         3
         4         7         8        13     9      180.000000        0.081688         4
         4         7         8        23     9        0.000000        0.153425         1
         4         7         8        23     9      180.000000       -0.094287         2
         4         7         8        23     9        0.000000        0.059171         3
         4         7         8        23     9      180.000000       -0.028662         4
         5         2         3        20     9        0.000000        0.134860         1
         5         2         3        20     9      180.000000       12.681977         2
         5         2         3        20     9        0.000000       -0.511494         3
         5         2         3        20     9      180.000000        0.160510         4
         5         6         7         8     9        0.000000        0.141368         1
         5         6         7         8     9      180.000000       15.428526         2
         5         6         7         8     9        0.000000       -0.092543         3
         5         6         7         8     9      180.000000       -0.220937         4
         6         7         4        30     9        0.000000       -0.023263         1
         6         7         4        30     9      180.000000       14.335943         2
         6         7         4        30     9        0.000000       -0.661205         3
         6         7         4        30     9      180.000000        0.044745         4
         6         7         8         9     9        0.000000        0.123065         1
         6         7         8         9     9      180.000000        0.538727         2
         6         7         8         9     9        0.000000        0.173498         3
         6         7         8         9     9      180.000000        0.089089         4
         6         7         8        13     9        0.000000        0.024869         1
         6         7         8        13     9      180.000000        0.555316         2
         6         7         8        13     9        0.000000        0.156711         3
         6         7         8        13     9      180.000000        0.081688         4
         6         7         8        23     9        0.000000        0.153425         1
         6         7         8        23     9      180.000000       -0.094287         2
         6         7         8        23     9        0.000000        0.059171         3
         6         7         8        23     9      180.000000       -0.028662         4
         7         4         3        20     9        0.000000        0.066513         1
         7         4         3        20     9      180.000000       14.195734         2
         7         4         3        20     9        0.000000       -0.633052         3
         7         4         3        20     9      180.000000        0.143901         4
         7         6         5        21     9        0.000000        0.066513         1
         7         6         5        21     9      180.000000       14.195734         2
         7         6         5        21     9        0.000000       -0.633052         3
         7         6         5        21     9      180.000000        0.143901         4
         7         8         9        10     9        0.000000        0.818533         1
         7         8         9        10     9      180.000000       -0.539342         2
         7         8         9        10     9        0.000000        0.114420         3
         7         8         9        10     9      180.000000        0.072759         4
         7         8         9        24     9        0.000000        0.035151         1
         7         8         9        24     9      180.000000        0.000443         2
         7         8         9        24     9        0.000000        0.463167         3
         7         8         9        24     9      180.000000       -0.031442         4
         7         8         9        25     9        0.000000        0.035151         1
         7         8         9        25     9      180.000000        0.000442         2
         7         8         9        25     9        0.000000        0.463166         3
         7         8         9        25     9      180.000000       -0.031442         4
         7         8        13        14     9        0.000000        0.059948         1
         7         8        13        14     9      180.000000       -0.437114         2
         7         8        13        14     9        0.000000        0.591617         3
         7         8        13        14     9      180.000000        0.107613         4
         7         8        13        26     9        0.000000        0.060847         1
         7         8        13        26     9      180.000000       -0.026150         2
         7         8        13        26     9        0.000000        0.539343         3
         7         8        13        26     9      180.000000       -0.035068         4
         7         8        13        27     9        0.000000        0.060847         1
         7         8        13        27     9      180.000000       -0.026150         2
         7         8        13        27     9        0.000000        0.539343         3
         7         8        13        27     9      180.000000       -0.035068         4
         8         7         4        30     9        0.000000       -0.092023         1
         8         7         4        30     9      180.000000       12.965172         2
         8         7         4        30     9        0.000000       -0.351861         3
         8         7         4        30     9      180.000000        0.200759         4
         8         7         6        22     9        0.000000       -0.092023         1
         8         7         6        22     9      180.000000       12.965172         2
         8         7         6        22     9        0.000000       -0.351861         3
         8         7         6        22     9      180.000000        0.200759         4
         8         9        10        11     9        0.000000       -0.281196         1
         8         9        10        11     9      180.000000        0.393564         2
         8         9        10        11     9        0.000000       -0.148143         3
         8         9        10        11     9      180.000000        0.100779         4
         8         9        10        12     9        0.000000        0.714294         1
         8         9        10        12     9      180.000000       -0.760854         2
         8         9        10        12     9        0.000000       -0.161493         3
         8         9        10        12     9      180.000000        0.476893         4
         8        13        14        12     9        0.000000        0.266515         1
         8        13        14        12     9      180.000000       -0.668608         2
         8        13        14        12     9        0.000000       -0.222681         3
         8        13        14        12     9      180.000000        0.411323         4
         8        13        14        15     9        0.000000       -0.444426         1
         8        13        14        15     9      180.000000       -0.184427         2
         8        13        14        15     9        0.000000        0.232119         3
         8        13        14        15     9      180.000000        0.189034         4
         9         8        13        14     9        0.000000        2.875334         1
         9         8        13        14     9      180.000000       -2.392892         2
         9         8        13        14     9        0.000000        0.038945         3
         9         8        13        14     9      180.000000        0.211652         4
         9         8        13        26     9        0.000000        0.000507         1
         9         8        13        26     9      180.000000        0.042019         2
         9         8        13        26     9        0.000000        0.225486         3
         9         8        13        26     9      180.000000        0.028456         4
         9         8        13        27     9        0.000000        0.000507         1
         9         8        13        27     9      180.000000        0.042019         2
         9         8        13        27     9        0.000000        0.225486         3
         9         8        13        27     9      180.000000        0.028456         4
         9        10        12        14     9        0.000000        0.661388         1
         9        10        12        14     9      180.000000        1.641014         2
         9        10        12        14     9        0.000000       -0.335582         3
         9        10        12        14     9      180.000000        0.264417         4
         9        10        12        19     9        0.000000       -0.764254         1
         9        10        12        19     9      180.000000        3.663846         2
         9        10        12        19     9        0.000000       -0.110577         3
         9        10        12        19     9      180.000000        0.052025         4
        10         9         8        13     9        0.000000        5.519505         1
        10         9         8        13     9      180.000000       -2.414152         2
        10         9         8        13     9        0.000000       -0.924387         3
        10         9         8        13     9      180.000000        0.423456         4
        10         9         8        23     9        0.000000       -0.591772         1
        10         9         8        23     9      180.000000       -0.008622         2
        10         9         8        23     9        0.000000       -0.068469         3
        10         9         8        23     9      180.000000        0.145862         4
        10        12        14        13     9        0.000000        0.098202         1
        10        12        14        13     9      180.000000       10.108723         2
        10        12        14        13     9        0.000000        0.342169         3
        10        12        14        13     9      180.000000       -0.363738         4
        10        12        14        15     9        0.000000        0.112116         1
        10        12        14        15     9      180.000000       11.275327         2
        10        12        14        15     9        0.000000        0.500221         3
        10        12        14        15     9      180.000000       -0.366432         4
        10        12        19        18     9        0.000000       -0.022690         1
        10        12        19        18     9      180.000000       11.942048         2
        10        12        19        18     9        0.000000        0.285506         3
        10        12        19        18     9      180.000000       -0.429708         4
        10        12        19        31     9        0.000000        0.162829         1
        10        12        19        31     9      180.000000        9.776362         2
        10        12        19        31     9        0.000000       -0.033968         3
        10        12        19        31     9      180.000000        0.011863         4
        11        10         9        24     9        0.000000       -0.001072         1
        11        10         9        24     9      180.000000       -0.071942         2
        11        10         9        24     9        0.000000       -0.242304         3
        11        10         9        24     9      180.000000        0.040687         4
        11        10         9        25     9        0.000000       -0.001073         1
        11        10         9        25     9      180.000000       -0.071942         2
        11        10         9        25     9        0.000000       -0.242304         3
        11        10         9        25     9      180.000000        0.040687         4
        11        10        12        14     9        0.000000        0.759974         1
        11        10        12        14     9      180.000000        5.570467         2
        11        10        12        14     9        0.000000        0.193415         3
        11        10        12        14     9      180.000000       -0.340684         4
        11        10        12        19     9        0.000000       -0.240752         1
        11        10        12        19     9      180.000000        5.644754         2
        11        10        12        19     9        0.000000        0.057226         3
        11        10        12        19     9      180.000000       -0.231967         4
        12        10         9        24     9        0.000000       -0.072409         1
        12        10         9        24     9      180.000000       -0.048908         2
        12        10         9        24     9        0.000000       -0.020336         3
        12        10         9        24     9      180.000000        0.044053         4
        12        10         9        25     9        0.000000       -0.072409         1
        12        10         9        25     9      180.000000       -0.048909         2
        12        10         9        25     9        0.000000       -0.020337         3
        12        10         9        25     9      180.000000        0.044053         4
        12        14        13        26     9        0.000000       -0.023197         1
        12        14        13        26     9      180.000000       -0.075193         2
        12        14        13        26     9        0.000000       -0.336830         3
        12        14        13        26     9      180.000000        0.036103         4
        12        14        13        27     9        0.000000       -0.023197         1
        12        14        13        27     9      180.000000       -0.075193         2
        12        14        13        27     9        0.000000       -0.336830         3
        12        14        13        27     9      180.000000        0.036103         4
        12        14        15        16     9        0.000000       -0.919812         1
        12        14        15        16     9      180.000000       19.843200         2
        12        14        15        16     9        0.000000       -0.768193         3
        12        14        15        16     9      180.000000       -0.231723         4
        12        19        18        16     9        0.000000       -0.667231         1
        12        19        18        16     9      180.000000       20.484864         2
        12        19        18        16     9        0.000000       -1.253562         3
        12        19        18        16     9      180.000000       -0.327362         4
        13         8         9        24     9        0.000000       -0.019698         1
        13         8         9        24     9      180.000000        0.070173         2
        13         8         9        24     9        0.000000        0.171599         3
        13         8         9        24     9      180.000000        0.053028         4
        13         8         9        25     9        0.000000       -0.019698         1
        13         8         9        25     9      180.000000        0.070172         2
        13         8         9        25     9        0.000000        0.171599         3
        13         8         9        25     9      180.000000        0.053029         4
        13        14        12        19     9        0.000000        0.042724         1
        13        14        12        19     9      180.000000       12.328969         2
        13        14        12        19     9        0.000000        0.050190         3
        13        14        12        19     9      180.000000       -0.409462         4
        13        14        15        16     9        0.000000        0.329510         1
        13        14        15        16     9      180.000000       20.282366         2
        13        14        15        16     9        0.000000        0.538061         3
        13        14        15        16     9      180.000000       -0.806644         4
        14        12        19        18     9        0.000000        0.211246         1
        14        12        19        18     9      180.000000       14.262713         2
        14        12        19        18     9        0.000000       -0.084640         3
        14        12        19        18     9      180.000000       -0.381314         4
        14        12        19        31     9        0.000000        0.202275         1
        14        12        19        31     9      180.000000       12.164717         2
        14        12        19        31     9        0.000000       -0.128556         3
        14        12        19        31     9      180.000000       -0.138125         4
        14        13         8        23     9        0.000000       -0.263694         1
        14        13         8        23     9      180.000000        0.016403         2
        14        13         8        23     9        0.000000        0.285478         3
        14        13         8        23     9      180.000000        0.067033         4
        14        15        16        17     9        0.000000        1.169217         1
        14        15        16        17     9      180.000000       17.230099         2
        14        15        16        17     9        0.000000        0.463425         3
        14        15        16        17     9      180.000000       -1.136158         4
        14        15        16        18     9        0.000000        0.329747         1
        14        15        16        18     9      180.000000        9.754348         2
        14        15        16        18     9        0.000000        0.850828         3
        14        15        16        18     9      180.000000       -0.462925         4
        15        14        12        19     9        0.000000        0.271348         1
        15        14        12        19     9      180.000000       13.934278         2
        15        14        12        19     9        0.000000        0.126303         3
        15        14        12        19     9      180.000000       -0.498512         4
        15        14        13        26     9        0.000000        0.123282         1
        15        14        13        26     9      180.000000       -0.000723         2
        15        14        13        26     9        0.000000        0.001552         3
        15        14        13        26     9      180.000000        0.000465         4
        15        14        13        27     9        0.000000        0.123282         1
        15        14        13        27     9      180.000000       -0.000723         2
        15        14        13        27     9        0.000000        0.001552         3
        15        14        13        27     9      180.000000        0.000465         4
        15        16        17        28     9        0.000000        1.487551         1
        15        16        17        28     9      180.000000        8.823002         2
        15        16        17        28     9        0.000000       -0.227163         3
        15        16        17        28     9      180.000000       -0.813723         4
        15        16        17        29     9        0.000000        1.487551         1
        15        16        17        29     9      180.000000        8.823002         2
        15        16        17        29     9        0.000000       -0.227163         3
        15        16        17        29     9      180.000000       -0.813723         4
        15        16        18        19     9        0.000000        0.689372         1
        15        16        18        19     9      180.000000       10.918443         2
        15        16        18        19     9        0.000000        0.611464         3
        15        16        18        19     9      180.000000       -0.377671         4
        16        18        19        31     9        0.000000        0.214170         1
        16        18        19        31     9      180.000000       17.619432         2
        16        18        19        31     9        0.000000       -0.287700         3
        16        18        19        31     9      180.000000        0.061422         4
        17        16        18        19     9        0.000000        1.114727         1
        17        16        18        19     9      180.000000       19.347445         2
        17        16        18        19     9        0.000000        0.432398         3
        17        16        18        19     9      180.000000       -1.169297         4
        18        16        17        28     9        0.000000        1.557076         1
        18        16        17        28     9      180.000000        8.825160         2
        18        16        17        28     9        0.000000       -0.189032         3
        18        16        17        28     9      180.000000       -0.918993         4
        18        16        17        29     9        0.000000        1.557076         1
        18        16        17        29     9      180.000000        8.825160         2
        18        16        17        29     9        0.000000       -0.189032         3
        18        16        17        29     9      180.000000       -0.918993         4
        20         3         4        30     9        0.000000       -0.227669         1
        20         3         4        30     9      180.000000       11.625787         2
        20         3         4        30     9        0.000000       -0.739828         3
        20         3         4        30     9      180.000000        0.301893         4
        21         5         6        22     9        0.000000       -0.227670         1
        21         5         6        22     9      180.000000       11.625787         2
        21         5         6        22     9        0.000000       -0.739827         3
        21         5         6        22     9      180.000000        0.301893         4
        23         8         9        24     9        0.000000        0.037936         1
        23         8         9        24     9      180.000000       -0.006610         2
        23         8         9        24     9        0.000000        0.418053         3
        23         8         9        24     9      180.000000       -0.048669         4
        23         8         9        25     9        0.000000        0.037936         1
        23         8         9        25     9      180.000000       -0.006610         2
        23         8         9        25     9        0.000000        0.418054         3
        23         8         9        25     9      180.000000       -0.048669         4
        23         8        13        26     9        0.000000        0.002298         1
        23         8        13        26     9      180.000000       -0.005611         2
        23         8        13        26     9        0.000000        0.467533         3
        23         8        13        26     9      180.000000       -0.037462         4
        23         8        13        27     9        0.000000        0.002298         1
        23         8        13        27     9      180.000000       -0.005611         2
        23         8        13        27     9        0.000000        0.467533         3
        23         8        13        27     9      180.000000       -0.037462         4

[ dihedrals ] ; impropers
;       ai        aj        ak        al funct           phase               k        pn
         2         1         3         5     4      180.000000        0.578985         2
         2         3         5         1     4      180.000000        0.578985         2
         2         5         1         3     4      180.000000        0.578985         2
        10         9        11        12     4      180.000000       27.893333         2
        10        11        12         9     4      180.000000       27.893333         2
        10        12         9        11     4      180.000000       27.893333         2
        14        12        13        15     4      180.000000       20.161133         2
        14        13        15        12     4      180.000000       20.161133         2
        14        15        12        13     4      180.000000       20.161133         2
        16        15        17        18     4      180.000000       21.833693         2
        16        17        18        15     4      180.000000       21.833693         2
        16        18        15        17     4      180.000000       21.833693         2
        19        12        18        31     4      180.000000       17.681562         2
        19        18        31        12     4      180.000000       17.681562         2
        19        31        12        18     4      180.000000       17.681562         2

[ pairs ]
;       ai        aj funct
         1         4     1
         1         6     1
         1        20     1
         1        21     1
         2         7     1
         2        22     1
         2        30     1
         3         6     1
         3         8     1
         3        21     1
         4         5     1
         4         9     1
         4        13     1
         4        22     1
         4        23     1
         5         8     1
         5        20     1
         6         9     1
         6        13     1
         6        23     1
         6        30     1
         7        10     1
         7        14     1
         7        20     1
         7        21     1
         7        24     1
         7        25     1
         7        26     1
         7        27     1
         8        11     1
         8        12     1
         8        15     1
         8        22     1
         8        30     1
         9        14     1
         9        19     1
         9        26     1
         9        27     1
        10        13     1
        10        15     1
        10        18     1
        10        23     1
        10        31     1
        11        14     1
        11        19     1
        11        24     1
        11        25     1
        12        16     1
        12        24     1
        12        25     1
        12        26     1
        12        27     1
        13        16     1
        13        19     1
        13        24     1
        13        25     1
        14        17     1
        14        18     1
        14        23     1
        14        31     1
        15        19     1
        15        26     1
        15        27     1
        15        28     1
        15        29     1
        16        31     1
        17        19     1
        18        28     1
        18        29     1
        20        30     1
        21        22     1
        23        24     1
        23        25     1
        23        26     1
        23        27     1
