; ITP file created by ByteFF-joint-25, 2025-07-14 11:32:32.277615

[ atomtypes ]
;name           bonded.type        at.num        mass        charge   ptype           sigma         epsilon
 c0bf                                   6      0.0000       0.00000       A     3.39771e-01     4.50975e-01    ;  uncertainty sigma = 0.000006, epsilon = 0.000758
 c1bf                                   6      0.0000       0.00000       A     3.31511e-01     4.12736e-01    ;  uncertainty sigma = 0.000007, epsilon = 0.000929
 c2bf                                   6      0.0000       0.00000       A     3.31519e-01     4.13686e-01    ;  uncertainty sigma = 0.000011, epsilon = 0.000540
 c3bf                                   6      0.0000       0.00000       A     3.39733e-01     4.50440e-01    ;  uncertainty sigma = 0.000008, epsilon = 0.001118
 c4bf                                   6      0.0000       0.00000       A     3.39778e-01     4.51539e-01    ;  uncertainty sigma = 0.000026, epsilon = 0.000905
 c5bf                                   6      0.0000       0.00000       A     3.39739e-01     4.51603e-01    ;  uncertainty sigma = 0.000007, epsilon = 0.001104
 n6bf                                   7      0.0000       0.00000       A     2.68130e-01     7.08303e+00    ;  uncertainty sigma = 0.000106, epsilon = 0.008958
 c7bf                                   6      0.0000       0.00000       A     3.39771e-01     4.50684e-01    ;  uncertainty sigma = 0.000034, epsilon = 0.000876
 c8bf                                   6      0.0000       0.00000       A     3.39687e-01     4.52961e-01    ;  uncertainty sigma = 0.000022, epsilon = 0.001186
 c9bf                                   6      0.0000       0.00000       A     3.39773e-01     4.50719e-01    ;  uncertainty sigma = 0.000013, epsilon = 0.000953
 c10bf                                  6      0.0000       0.00000       A     3.39773e-01     4.50719e-01    ;  uncertainty sigma = 0.000013, epsilon = 0.000953
 c11bf                                  6      0.0000       0.00000       A     3.39792e-01     4.50893e-01    ;  uncertainty sigma = 0.000030, epsilon = 0.000663
 n12bf                                  7      0.0000       0.00000       A     3.27952e-01     6.43520e-01    ;  uncertainty sigma = 0.000019, epsilon = 0.002482
 c13bf                                  6      0.0000       0.00000       A     3.31528e-01     4.13663e-01    ;  uncertainty sigma = 0.000015, epsilon = 0.001203
 c14bf                                  6      0.0000       0.00000       A     3.31530e-01     4.13416e-01    ;  uncertainty sigma = 0.000012, epsilon = 0.001150
 c15bf                                  6      0.0000       0.00000       A     3.31548e-01     4.13199e-01    ;  uncertainty sigma = 0.000012, epsilon = 0.001174
 c16bf                                  6      0.0000       0.00000       A     3.31527e-01     4.13250e-01    ;  uncertainty sigma = 0.000006, epsilon = 0.000602
 c17bf                                  6      0.0000       0.00000       A     3.31513e-01     4.13571e-01    ;  uncertainty sigma = 0.000004, epsilon = 0.001064
 c18bf                                  6      0.0000       0.00000       A     3.31514e-01     4.12958e-01    ;  uncertainty sigma = 0.000020, epsilon = 0.001944
 c19bf                                  6      0.0000       0.00000       A     3.31599e-01     4.13237e-01    ;  uncertainty sigma = 0.000040, epsilon = 0.000629
 n20bf                                  7      0.0000       0.00000       A     3.36058e-01     3.53914e-01    ;  uncertainty sigma = 0.000035, epsilon = 0.002199
 o21bf                                  8      0.0000       0.00000       A     3.04824e-01     6.12666e-01    ;  uncertainty sigma = 0.000020, epsilon = 0.001529
 n22bf                                  7      0.0000       0.00000       A     3.20640e-01     8.55543e-01    ;  uncertainty sigma = 0.000043, epsilon = 0.001517
 c23bf                                  6      0.0000       0.00000       A     3.31491e-01     4.12753e-01    ;  uncertainty sigma = 0.000011, epsilon = 0.001565
 c24bf                                  6      0.0000       0.00000       A     3.31525e-01     4.12979e-01    ;  uncertainty sigma = 0.000017, epsilon = 0.000933
 c25bf                                  6      0.0000       0.00000       A     3.31520e-01     4.13800e-01    ;  uncertainty sigma = 0.000012, epsilon = 0.000860
 o26bf                                  8      0.0000       0.00000       A     3.04813e-01     6.11403e-01    ;  uncertainty sigma = 0.000026, epsilon = 0.002112
 c27bf                                  6      0.0000       0.00000       A     3.39794e-01     4.50514e-01    ;  uncertainty sigma = 0.000014, epsilon = 0.001647
 c28bf                                  6      0.0000       0.00000       A     3.39757e-01     4.49586e-01    ;  uncertainty sigma = 0.000020, epsilon = 0.001126
 c29bf                                  6      0.0000       0.00000       A     3.39753e-01     4.50877e-01    ;  uncertainty sigma = 0.000007, epsilon = 0.000776
 c30bf                                  6      0.0000       0.00000       A     3.39753e-01     4.50877e-01    ;  uncertainty sigma = 0.000007, epsilon = 0.000776
 c31bf                                  6      0.0000       0.00000       A     3.39763e-01     4.50525e-01    ;  uncertainty sigma = 0.000013, epsilon = 0.000867
 h32bf                                  1      0.0000       0.00000       A     2.60040e-01     8.67373e-02    ;  uncertainty sigma = 0.000006, epsilon = 0.000499
 h33bf                                  1      0.0000       0.00000       A     2.60040e-01     8.67373e-02    ;  uncertainty sigma = 0.000006, epsilon = 0.000499
 h34bf                                  1      0.0000       0.00000       A     2.60040e-01     8.67373e-02    ;  uncertainty sigma = 0.000006, epsilon = 0.000499
 h35bf                                  1      0.0000       0.00000       A     2.59968e-01     8.70554e-02    ;  uncertainty sigma = 0.000036, epsilon = 0.001257
 h36bf                                  1      0.0000       0.00000       A     2.59968e-01     8.70554e-02    ;  uncertainty sigma = 0.000036, epsilon = 0.001257
 h37bf                                  1      0.0000       0.00000       A     2.60055e-01     8.66900e-02    ;  uncertainty sigma = 0.000040, epsilon = 0.000816
 h38bf                                  1      0.0000       0.00000       A     2.60055e-01     8.66900e-02    ;  uncertainty sigma = 0.000040, epsilon = 0.000816
 h39bf                                  1      0.0000       0.00000       A     1.88756e-01     8.62629e-02    ;  uncertainty sigma = 0.000049, epsilon = 0.000878
 h40bf                                  1      0.0000       0.00000       A     1.88756e-01     8.62629e-02    ;  uncertainty sigma = 0.000049, epsilon = 0.000878
 h41bf                                  1      0.0000       0.00000       A     1.10668e-01     4.16280e-02    ;  uncertainty sigma = 0.000081, epsilon = 0.001122
 h42bf                                  1      0.0000       0.00000       A     1.88853e-01     8.65997e-02    ;  uncertainty sigma = 0.000063, epsilon = 0.000779
 h43bf                                  1      0.0000       0.00000       A     1.88853e-01     8.65997e-02    ;  uncertainty sigma = 0.000063, epsilon = 0.000779
 h44bf                                  1      0.0000       0.00000       A     2.60019e-01     8.67677e-02    ;  uncertainty sigma = 0.000016, epsilon = 0.000368
 h45bf                                  1      0.0000       0.00000       A     2.60019e-01     8.67677e-02    ;  uncertainty sigma = 0.000016, epsilon = 0.000368
 h46bf                                  1      0.0000       0.00000       A     2.60019e-01     8.67677e-02    ;  uncertainty sigma = 0.000016, epsilon = 0.000368
 h47bf                                  1      0.0000       0.00000       A     2.60019e-01     8.67677e-02    ;  uncertainty sigma = 0.000016, epsilon = 0.000368
 h48bf                                  1      0.0000       0.00000       A     2.60019e-01     8.67677e-02    ;  uncertainty sigma = 0.000016, epsilon = 0.000368
 h49bf                                  1      0.0000       0.00000       A     2.60019e-01     8.67677e-02    ;  uncertainty sigma = 0.000016, epsilon = 0.000368
 h50bf                                  1      0.0000       0.00000       A     2.42328e-01     8.64294e-02    ;  uncertainty sigma = 0.000053, epsilon = 0.000238
 h51bf                                  1      0.0000       0.00000       A     2.42328e-01     8.64294e-02    ;  uncertainty sigma = 0.000053, epsilon = 0.000238
 h52bf                                  1      0.0000       0.00000       A     1.10611e-01     4.16650e-02    ;  uncertainty sigma = 0.000101, epsilon = 0.001155
 h53bf                                  1      0.0000       0.00000       A     2.62548e-01     6.72475e-02    ;  uncertainty sigma = 0.000011, epsilon = 0.000588
 h54bf                                  1      0.0000       0.00000       A     2.62564e-01     6.71433e-02    ;  uncertainty sigma = 0.000012, epsilon = 0.000557
 h55bf                                  1      0.0000       0.00000       A     2.62564e-01     6.72868e-02    ;  uncertainty sigma = 0.000007, epsilon = 0.000873
 h56bf                                  1      0.0000       0.00000       A     1.10644e-01     4.14126e-02    ;  uncertainty sigma = 0.000051, epsilon = 0.000340
 h57bf                                  1      0.0000       0.00000       A     1.10644e-01     4.14126e-02    ;  uncertainty sigma = 0.000051, epsilon = 0.000340
 h58bf                                  1      0.0000       0.00000       A     2.60008e-01     8.64859e-02    ;  uncertainty sigma = 0.000016, epsilon = 0.000908
 h59bf                                  1      0.0000       0.00000       A     2.60008e-01     8.64859e-02    ;  uncertainty sigma = 0.000016, epsilon = 0.000908
 h60bf                                  1      0.0000       0.00000       A     2.60029e-01     8.67429e-02    ;  uncertainty sigma = 0.000008, epsilon = 0.000383
 h61bf                                  1      0.0000       0.00000       A     2.60029e-01     8.67429e-02    ;  uncertainty sigma = 0.000008, epsilon = 0.000383
 h62bf                                  1      0.0000       0.00000       A     2.60029e-01     8.67429e-02    ;  uncertainty sigma = 0.000008, epsilon = 0.000383
 h63bf                                  1      0.0000       0.00000       A     2.60029e-01     8.67429e-02    ;  uncertainty sigma = 0.000008, epsilon = 0.000383
 h64bf                                  1      0.0000       0.00000       A     2.60029e-01     8.67429e-02    ;  uncertainty sigma = 0.000008, epsilon = 0.000383
 h65bf                                  1      0.0000       0.00000       A     2.60029e-01     8.67429e-02    ;  uncertainty sigma = 0.000008, epsilon = 0.000383
 h66bf                                  1      0.0000       0.00000       A     2.60047e-01     8.64225e-02    ;  uncertainty sigma = 0.000017, epsilon = 0.000968
 h67bf                                  1      0.0000       0.00000       A     2.60047e-01     8.64225e-02    ;  uncertainty sigma = 0.000017, epsilon = 0.000968
 h68bf                                  1      0.0000       0.00000       A     1.10668e-01     4.16280e-02    ;  uncertainty sigma = 0.000081, epsilon = 0.001122

[ moleculetype ]
;name             nrexcl
 MOL                   3

[ atoms ]
;       nr            type      resi   res      atom      cgnr      charge          mass ; qtot
         1            c0bf         1   UNL        c0         1    -0.02470       12.0110 ; qtot   -0.025
         2            c1bf         1   UNL        c1         2    -0.04711       12.0110 ; qtot   -0.072
         3            c2bf         1   UNL        c2         3    -0.14000       12.0110 ; qtot   -0.212
         4            c3bf         1   UNL        c3         4     0.00435       12.0110 ; qtot   -0.207
         5            c4bf         1   UNL        c4         5    -0.09371       12.0110 ; qtot   -0.301
         6            c5bf         1   UNL        c5         6     0.13883       12.0110 ; qtot   -0.162
         7            n6bf         1   UNL        n6         7    -0.78727       14.0070 ; qtot   -0.950
         8            c7bf         1   UNL        c7         8     0.14295       12.0110 ; qtot   -0.807
         9            c8bf         1   UNL        c8         9    -0.07596       12.0110 ; qtot   -0.883
        10            c9bf         1   UNL        c9        10    -0.10846       12.0110 ; qtot   -0.991
        11           c10bf         1   UNL       c10        11    -0.10846       12.0110 ; qtot   -1.100
        12           c11bf         1   UNL       c11        12     0.21580       12.0110 ; qtot   -0.884
        13           n12bf         1   UNL       n12        13    -0.77968       14.0070 ; qtot   -1.663
        14           c13bf         1   UNL       c13        14     0.25886       12.0110 ; qtot   -1.405
        15           c14bf         1   UNL       c14        15    -0.23024       12.0110 ; qtot   -1.635
        16           c15bf         1   UNL       c15        16     0.05151       12.0110 ; qtot   -1.583
        17           c16bf         1   UNL       c16        17    -0.17072       12.0110 ; qtot   -1.754
        18           c17bf         1   UNL       c17        18    -0.03284       12.0110 ; qtot   -1.787
        19           c18bf         1   UNL       c18        19    -0.25528       12.0110 ; qtot   -2.042
        20           c19bf         1   UNL       c19        20     0.67214       12.0110 ; qtot   -1.370
        21           n20bf         1   UNL       n20        21    -0.64971       14.0070 ; qtot   -2.020
        22           o21bf         1   UNL       o21        22    -0.62602       15.9990 ; qtot   -2.646
        23           n22bf         1   UNL       n22        23     0.01551       14.0070 ; qtot   -2.630
        24           c23bf         1   UNL       c23        24    -0.03153       12.0110 ; qtot   -2.662
        25           c24bf         1   UNL       c24        25    -0.25543       12.0110 ; qtot   -2.917
        26           c25bf         1   UNL       c25        26     0.61468       12.0110 ; qtot   -2.302
        27           o26bf         1   UNL       o26        27    -0.54925       15.9990 ; qtot   -2.852
        28           c27bf         1   UNL       c27        28    -0.16833       12.0110 ; qtot   -3.020
        29           c28bf         1   UNL       c28        29    -0.03637       12.0110 ; qtot   -3.056
        30           c29bf         1   UNL       c29        30    -0.09136       12.0110 ; qtot   -3.148
        31           c30bf         1   UNL       c30        31    -0.09136       12.0110 ; qtot   -3.239
        32           c31bf         1   UNL       c31        32    -0.01611       12.0110 ; qtot   -3.255
        33           h32bf         1   UNL       h32        33     0.04765        1.0080 ; qtot   -3.208
        34           h33bf         1   UNL       h33        34     0.04765        1.0080 ; qtot   -3.160
        35           h34bf         1   UNL       h34        35     0.04765        1.0080 ; qtot   -3.112
        36           h35bf         1   UNL       h35        36     0.06832        1.0080 ; qtot   -3.044
        37           h36bf         1   UNL       h36        37     0.06832        1.0080 ; qtot   -2.976
        38           h37bf         1   UNL       h37        38     0.08188        1.0080 ; qtot   -2.894
        39           h38bf         1   UNL       h38        39     0.08188        1.0080 ; qtot   -2.812
        40           h39bf         1   UNL       h39        40     0.10684        1.0080 ; qtot   -2.705
        41           h40bf         1   UNL       h40        41     0.10684        1.0080 ; qtot   -2.598
        42           h41bf         1   UNL       h41        42     0.45731        1.0080 ; qtot   -2.141
        43           h42bf         1   UNL       h42        43     0.10441        1.0080 ; qtot   -2.037
        44           h43bf         1   UNL       h43        44     0.10441        1.0080 ; qtot   -1.932
        45           h44bf         1   UNL       h44        45     0.05688        1.0080 ; qtot   -1.875
        46           h45bf         1   UNL       h45        46     0.05688        1.0080 ; qtot   -1.818
        47           h46bf         1   UNL       h46        47     0.05688        1.0080 ; qtot   -1.761
        48           h47bf         1   UNL       h47        48     0.05688        1.0080 ; qtot   -1.705
        49           h48bf         1   UNL       h48        49     0.05688        1.0080 ; qtot   -1.648
        50           h49bf         1   UNL       h49        50     0.05688        1.0080 ; qtot   -1.591
        51           h50bf         1   UNL       h50        51     0.05837        1.0080 ; qtot   -1.532
        52           h51bf         1   UNL       h51        52     0.05837        1.0080 ; qtot   -1.474
        53           h52bf         1   UNL       h52        53     0.45266        1.0080 ; qtot   -1.021
        54           h53bf         1   UNL       h53        54     0.15085        1.0080 ; qtot   -0.871
        55           h54bf         1   UNL       h54        55     0.15359        1.0080 ; qtot   -0.717
        56           h55bf         1   UNL       h55        56     0.14524        1.0080 ; qtot   -0.572
        57           h56bf         1   UNL       h56        57     0.31237        1.0080 ; qtot   -0.259
        58           h57bf         1   UNL       h57        58     0.31237        1.0080 ; qtot    0.053
        59           h58bf         1   UNL       h58        59     0.06783        1.0080 ; qtot    0.121
        60           h59bf         1   UNL       h59        60     0.06783        1.0080 ; qtot    0.189
        61           h60bf         1   UNL       h60        61     0.03873        1.0080 ; qtot    0.227
        62           h61bf         1   UNL       h61        62     0.03873        1.0080 ; qtot    0.266
        63           h62bf         1   UNL       h62        63     0.03873        1.0080 ; qtot    0.305
        64           h63bf         1   UNL       h63        64     0.03873        1.0080 ; qtot    0.344
        65           h64bf         1   UNL       h64        65     0.03873        1.0080 ; qtot    0.382
        66           h65bf         1   UNL       h65        66     0.03873        1.0080 ; qtot    0.421
        67           h66bf         1   UNL       h66        67     0.06082        1.0080 ; qtot    0.482
        68           h67bf         1   UNL       h67        68     0.06082        1.0080 ; qtot    0.543
        69           h68bf         1   UNL       h68        69     0.45733        1.0080 ; qtot    1.000

[ bonds ]
;       ai        aj funct               r               k
         1         2     1        0.150105   244661.877100    ;  uncertainty r = 0.000052, k = 7.942595
         1        33     1        0.109466   309551.110205    ;  uncertainty r = 0.000011, k = 1.937725
         1        34     1        0.109466   309551.110205    ;  uncertainty r = 0.000011, k = 1.937725
         1        35     1        0.109466   309551.110205    ;  uncertainty r = 0.000011, k = 1.937725
         2         3     1        0.138033   390103.171826    ;  uncertainty r = 0.000094, k = 10.107610
         2        25     1        0.144028   267588.097949    ;  uncertainty r = 0.000055, k = 11.208518
         3         4     1        0.149550   230202.612549    ;  uncertainty r = 0.000125, k = 5.920291
         3        23     1        0.141079   287719.920605    ;  uncertainty r = 0.000173, k = 18.668760
         4         5     1        0.154045   203666.989429    ;  uncertainty r = 0.000140, k = 14.041685
         4        36     1        0.109620   310575.761182    ;  uncertainty r = 0.000049, k = 3.281604
         4        37     1        0.109620   310575.761182    ;  uncertainty r = 0.000049, k = 3.281604
         5         6     1        0.153002   203225.337891    ;  uncertainty r = 0.000053, k = 10.681477
         5        38     1        0.109520   311090.104102    ;  uncertainty r = 0.000030, k = 2.031887
         5        39     1        0.109520   311090.104102    ;  uncertainty r = 0.000030, k = 2.031887
         6         7     1        0.150909   201735.502930    ;  uncertainty r = 0.000102, k = 17.909658
         6        40     1        0.109024   313691.594971    ;  uncertainty r = 0.000025, k = 2.128281
         6        41     1        0.109024   313691.594971    ;  uncertainty r = 0.000025, k = 2.128281
         7         8     1        0.151096   203356.266650    ;  uncertainty r = 0.000162, k = 20.288046
         7        42     1        0.102879   383376.620605    ;  uncertainty r = 0.000120, k = 6.871907
         7        69     1        0.102879   383376.620605    ;  uncertainty r = 0.000120, k = 6.871907
         8         9     1        0.152974   182709.577563    ;  uncertainty r = 0.000248, k = 16.681202
         8        43     1        0.109078   312093.584814    ;  uncertainty r = 0.000025, k = 2.304151
         8        44     1        0.109078   312093.584814    ;  uncertainty r = 0.000025, k = 2.304151
         9        10     1        0.153027   203197.527979    ;  uncertainty r = 0.000195, k = 4.000197
         9        11     1        0.153027   203197.527979    ;  uncertainty r = 0.000195, k = 4.000197
         9        12     1        0.153171   188600.260889    ;  uncertainty r = 0.000337, k = 9.460535
        10        45     1        0.109547   311639.305176    ;  uncertainty r = 0.000017, k = 1.152131
        10        46     1        0.109547   311639.305176    ;  uncertainty r = 0.000017, k = 1.152131
        10        47     1        0.109547   311639.305176    ;  uncertainty r = 0.000017, k = 1.152131
        11        48     1        0.109547   311639.305176    ;  uncertainty r = 0.000017, k = 1.152131
        11        49     1        0.109547   311639.305176    ;  uncertainty r = 0.000017, k = 1.152131
        11        50     1        0.109547   311639.305176    ;  uncertainty r = 0.000017, k = 1.152131
        12        13     1        0.144662   229110.901123    ;  uncertainty r = 0.000195, k = 15.946871
        12        51     1        0.109736   303345.030811    ;  uncertainty r = 0.000036, k = 4.797190
        12        52     1        0.109736   303345.030811    ;  uncertainty r = 0.000036, k = 4.797190
        13        14     1        0.138862   323482.573779    ;  uncertainty r = 0.000361, k = 14.547896
        13        53     1        0.101221   421152.338574    ;  uncertainty r = 0.000109, k = 7.055643
        14        15     1        0.141207   356298.499902    ;  uncertainty r = 0.000052, k = 15.677792
        14        19     1        0.142746   329496.997168    ;  uncertainty r = 0.000178, k = 10.090055
        15        16     1        0.138804   353356.446143    ;  uncertainty r = 0.000119, k = 7.706072
        15        54     1        0.108870   338223.129590    ;  uncertainty r = 0.000032, k = 2.737230
        16        17     1        0.139640   354214.467480    ;  uncertainty r = 0.000116, k = 4.634588
        16        23     1        0.142348   337500.403857    ;  uncertainty r = 0.000101, k = 7.296129
        17        18     1        0.138792   364930.145020    ;  uncertainty r = 0.000067, k = 5.150934
        17        55     1        0.108792   333924.825488    ;  uncertainty r = 0.000009, k = 1.293387
        18        19     1        0.140195   354433.678027    ;  uncertainty r = 0.000101, k = 11.188668
        18        56     1        0.108604   330520.703271    ;  uncertainty r = 0.000050, k = 2.529878
        19        20     1        0.148239   259915.626660    ;  uncertainty r = 0.000119, k = 23.120551
        20        21     1        0.139029   503817.340625    ;  uncertainty r = 0.000155, k = 20.650933
        20        22     1        0.124820   823639.501758    ;  uncertainty r = 0.000051, k = 16.500721
        21        57     1        0.101653   427755.290186    ;  uncertainty r = 0.000052, k = 3.050537
        21        58     1        0.101653   427755.290186    ;  uncertainty r = 0.000052, k = 3.050537
        23        24     1        0.137342   279523.223535    ;  uncertainty r = 0.000165, k = 14.437678
        24        25     1        0.139070   410963.440527    ;  uncertainty r = 0.000129, k = 17.219581
        24        32     1        0.149169   235354.392383    ;  uncertainty r = 0.000099, k = 6.242030
        25        26     1        0.145392   263265.176074    ;  uncertainty r = 0.000115, k = 15.598358
        26        27     1        0.123654   721934.337402    ;  uncertainty r = 0.000050, k = 5.105366
        26        28     1        0.152729   192523.182251    ;  uncertainty r = 0.000075, k = 8.399189
        28        29     1        0.153646   191935.049854    ;  uncertainty r = 0.000135, k = 7.651961
        28        59     1        0.109748   308934.720996    ;  uncertainty r = 0.000015, k = 1.839172
        28        60     1        0.109748   308934.720996    ;  uncertainty r = 0.000015, k = 1.839172
        29        30     1        0.153195   201193.401172    ;  uncertainty r = 0.000053, k = 1.853520
        29        31     1        0.153195   201193.401172    ;  uncertainty r = 0.000053, k = 1.853520
        29        32     1        0.153828   192201.542358    ;  uncertainty r = 0.000093, k = 11.625831
        30        61     1        0.109670   309289.354834    ;  uncertainty r = 0.000025, k = 1.119538
        30        62     1        0.109670   309289.354834    ;  uncertainty r = 0.000025, k = 1.119538
        30        63     1        0.109670   309289.354834    ;  uncertainty r = 0.000025, k = 1.119538
        31        64     1        0.109670   309289.354834    ;  uncertainty r = 0.000025, k = 1.119538
        31        65     1        0.109670   309289.354834    ;  uncertainty r = 0.000025, k = 1.119538
        31        66     1        0.109670   309289.354834    ;  uncertainty r = 0.000025, k = 1.119538
        32        67     1        0.109905   308723.707861    ;  uncertainty r = 0.000021, k = 4.306944
        32        68     1        0.109905   308723.707861    ;  uncertainty r = 0.000021, k = 4.306944

[ angles ]
;       ai        aj        ak funct           theta             cth
         1         2         3     1      124.971558      355.394556    ;  uncertainty theta = 0.005432, k = 0.247331
         1         2        25     1      124.362526      352.814095    ;  uncertainty theta = 0.004980, k = 0.223858
         2         1        33     1      109.685570      411.713970    ;  uncertainty theta = 0.000600, k = 0.078463
         2         1        34     1      109.685570      411.713970    ;  uncertainty theta = 0.000600, k = 0.078463
         2         1        35     1      109.685570      411.713970    ;  uncertainty theta = 0.000600, k = 0.078463
         2         3         4     1      128.485611      346.602449    ;  uncertainty theta = 0.004239, k = 0.217194
         2         3        23     1      110.532837      707.211683    ;  uncertainty theta = 0.002972, k = 0.149789
         2        25        24     1      109.071350      678.525401    ;  uncertainty theta = 0.004759, k = 0.127634
         2        25        26     1      126.172157      344.436296    ;  uncertainty theta = 0.003526, k = 0.270680
         3         2        25     1      107.599632      701.470941    ;  uncertainty theta = 0.005082, k = 0.187514
         3         4         5     1      111.543259      538.014097    ;  uncertainty theta = 0.003432, k = 0.111637
         3         4        36     1      107.155663      410.719204    ;  uncertainty theta = 0.003057, k = 0.054603
         3         4        37     1      107.155663      410.719204    ;  uncertainty theta = 0.003057, k = 0.054603
         3        23        16     1      120.464859      382.500155    ;  uncertainty theta = 0.003205, k = 0.103967
         3        23        24     1      109.546799      829.740905    ;  uncertainty theta = 0.003352, k = 0.161793
         4         3        23     1      116.960770      383.525502    ;  uncertainty theta = 0.007616, k = 0.134190
         4         5         6     1      110.291870      522.886807    ;  uncertainty theta = 0.003586, k = 0.059079
         4         5        38     1      107.825317      398.276534    ;  uncertainty theta = 0.002174, k = 0.056006
         4         5        39     1      107.825317      398.276534    ;  uncertainty theta = 0.002174, k = 0.056006
         5         4        36     1      107.106689      399.834713    ;  uncertainty theta = 0.002024, k = 0.037934
         5         4        37     1      107.106689      399.834713    ;  uncertainty theta = 0.002024, k = 0.037934
         5         6         7     1      111.169113      699.892301    ;  uncertainty theta = 0.003697, k = 0.104128
         5         6        40     1      110.281410      398.137006    ;  uncertainty theta = 0.001843, k = 0.074505
         5         6        41     1      110.281410      398.137006    ;  uncertainty theta = 0.001843, k = 0.074505
         6         5        38     1      106.874557      402.984109    ;  uncertainty theta = 0.002207, k = 0.040673
         6         5        39     1      106.874557      402.984109    ;  uncertainty theta = 0.002207, k = 0.040673
         6         7         8     1      114.040016      612.354154    ;  uncertainty theta = 0.004174, k = 0.040099
         6         7        42     1      108.220993      441.555423    ;  uncertainty theta = 0.002359, k = 0.035551
         6         7        69     1      108.220993      441.555423    ;  uncertainty theta = 0.002359, k = 0.035551
         7         6        40     1      105.284653      458.720734    ;  uncertainty theta = 0.002523, k = 0.066623
         7         6        41     1      105.284653      458.720734    ;  uncertainty theta = 0.002523, k = 0.066623
         7         8         9     1      110.478233      677.558630    ;  uncertainty theta = 0.003466, k = 0.056369
         7         8        43     1      105.056015      460.180052    ;  uncertainty theta = 0.004967, k = 0.089636
         7         8        44     1      105.056015      460.180052    ;  uncertainty theta = 0.004967, k = 0.089636
         8         7        42     1      108.623337      436.393256    ;  uncertainty theta = 0.002765, k = 0.059846
         8         7        69     1      108.623337      436.393256    ;  uncertainty theta = 0.002765, k = 0.059846
         8         9        10     1      107.229568      526.050918    ;  uncertainty theta = 0.005152, k = 0.104526
         8         9        11     1      107.229568      526.050918    ;  uncertainty theta = 0.005152, k = 0.104526
         8         9        12     1      106.265823      516.247797    ;  uncertainty theta = 0.008376, k = 0.144393
         9         8        43     1      110.017563      385.446244    ;  uncertainty theta = 0.004345, k = 0.110207
         9         8        44     1      110.017563      385.446244    ;  uncertainty theta = 0.004345, k = 0.110207
         9        10        45     1      107.596519      380.983283    ;  uncertainty theta = 0.001927, k = 0.065081
         9        10        46     1      107.596519      380.983283    ;  uncertainty theta = 0.001927, k = 0.065081
         9        10        47     1      107.596519      380.983283    ;  uncertainty theta = 0.001927, k = 0.065081
         9        11        48     1      107.596519      380.983283    ;  uncertainty theta = 0.001927, k = 0.065081
         9        11        49     1      107.596519      380.983283    ;  uncertainty theta = 0.001927, k = 0.065081
         9        11        50     1      107.596519      380.983283    ;  uncertainty theta = 0.001927, k = 0.065081
         9        12        13     1      110.042404      594.181436    ;  uncertainty theta = 0.002484, k = 0.146821
         9        12        51     1      107.601540      387.892795    ;  uncertainty theta = 0.002098, k = 0.185857
         9        12        52     1      107.601540      387.892795    ;  uncertainty theta = 0.002098, k = 0.185857
        10         9        11     1      109.829796      575.161461    ;  uncertainty theta = 0.004136, k = 0.139803
        10         9        12     1      108.156578      544.460621    ;  uncertainty theta = 0.001602, k = 0.157483
        11         9        12     1      108.156578      544.460621    ;  uncertainty theta = 0.001602, k = 0.157483
        12        13        14     1      113.894302      435.068518    ;  uncertainty theta = 0.007554, k = 0.120602
        12        13        53     1      110.884438      337.662035    ;  uncertainty theta = 0.007815, k = 0.279768
        13        12        51     1      107.290184      457.245774    ;  uncertainty theta = 0.001755, k = 0.066736
        13        12        52     1      107.290184      457.245774    ;  uncertainty theta = 0.001755, k = 0.066736
        13        14        15     1      120.402145      562.185801    ;  uncertainty theta = 0.007106, k = 0.364132
        13        14        19     1      122.518478      551.792963    ;  uncertainty theta = 0.005473, k = 0.338123
        14        13        53     1      114.392761      380.519433    ;  uncertainty theta = 0.003361, k = 0.128586
        14        15        16     1      120.694321      511.778675    ;  uncertainty theta = 0.001721, k = 0.126845
        14        15        54     1      119.318527      263.657088    ;  uncertainty theta = 0.002455, k = 0.089561
        14        19        18     1      122.667709      417.125060    ;  uncertainty theta = 0.003841, k = 0.608549
        14        19        20     1      117.649734      394.455193    ;  uncertainty theta = 0.006544, k = 0.306522
        15        14        19     1      121.665756      405.949829    ;  uncertainty theta = 0.004100, k = 0.209656
        15        16        17     1      120.138916      378.235841    ;  uncertainty theta = 0.005112, k = 0.196724
        15        16        23     1      120.250671      454.751469    ;  uncertainty theta = 0.004250, k = 0.119749
        16        15        54     1      119.996315      284.359639    ;  uncertainty theta = 0.002358, k = 0.106692
        16        17        18     1      118.153793      518.808786    ;  uncertainty theta = 0.004297, k = 0.176784
        16        17        55     1      120.426636      280.185311    ;  uncertainty theta = 0.001430, k = 0.071763
        16        23        24     1      120.525497      387.471943    ;  uncertainty theta = 0.004636, k = 0.156380
        17        16        23     1      121.262253      463.255996    ;  uncertainty theta = 0.004444, k = 0.211913
        17        18        19     1      124.898521      521.830145    ;  uncertainty theta = 0.004839, k = 0.231146
        17        18        56     1      119.540184      280.403909    ;  uncertainty theta = 0.002726, k = 0.067893
        18        17        55     1      121.318527      289.287439    ;  uncertainty theta = 0.001766, k = 0.086166
        18        19        20     1      117.657982      395.568132    ;  uncertainty theta = 0.003860, k = 0.230971
        19        18        56     1      117.235924      260.783477    ;  uncertainty theta = 0.005081, k = 0.129433
        19        20        21     1      116.059891      479.242674    ;  uncertainty theta = 0.003906, k = 0.247146
        19        20        22     1      125.322021      540.317735    ;  uncertainty theta = 0.004970, k = 0.190569
        20        21        57     1      116.963905      310.801018    ;  uncertainty theta = 0.002022, k = 0.091105
        20        21        58     1      116.963905      310.801018    ;  uncertainty theta = 0.002022, k = 0.091105
        21        20        22     1      126.517166      889.988691    ;  uncertainty theta = 0.004387, k = 0.046999
        23        24        25     1      109.738441      694.434446    ;  uncertainty theta = 0.004885, k = 0.206526
        23        24        32     1      122.450340      370.896635    ;  uncertainty theta = 0.003573, k = 0.180504
        24        25        26     1      119.070312      390.807568    ;  uncertainty theta = 0.007694, k = 0.349987
        24        32        29     1      107.805740      556.659123    ;  uncertainty theta = 0.002237, k = 0.143666
        24        32        67     1      108.916275      396.622655    ;  uncertainty theta = 0.001410, k = 0.056158
        24        32        68     1      108.916275      396.622655    ;  uncertainty theta = 0.001410, k = 0.056158
        25        24        32     1      125.882568      344.070285    ;  uncertainty theta = 0.005185, k = 0.237699
        25        26        27     1      124.446182      604.140079    ;  uncertainty theta = 0.001677, k = 0.050463
        25        26        28     1      113.848488      368.483538    ;  uncertainty theta = 0.006481, k = 0.230108
        26        28        29     1      112.816551      505.116713    ;  uncertainty theta = 0.003504, k = 0.066766
        26        28        59     1      106.614479      370.407344    ;  uncertainty theta = 0.001342, k = 0.076110
        26        28        60     1      106.614479      370.407344    ;  uncertainty theta = 0.001342, k = 0.076110
        27        26        28     1      123.307533      565.969123    ;  uncertainty theta = 0.003559, k = 0.147201
        28        29        30     1      108.306870      576.022126    ;  uncertainty theta = 0.001816, k = 0.099147
        28        29        31     1      108.306870      576.022126    ;  uncertainty theta = 0.001816, k = 0.099147
        28        29        32     1      109.706276      569.691668    ;  uncertainty theta = 0.001851, k = 0.067169
        29        28        59     1      107.687546      371.394800    ;  uncertainty theta = 0.002109, k = 0.101948
        29        28        60     1      107.687546      371.394800    ;  uncertainty theta = 0.002109, k = 0.101948
        29        30        61     1      107.996109      384.058813    ;  uncertainty theta = 0.001498, k = 0.017817
        29        30        62     1      107.996109      384.058813    ;  uncertainty theta = 0.001498, k = 0.017817
        29        30        63     1      107.996109      384.058813    ;  uncertainty theta = 0.001498, k = 0.017817
        29        31        64     1      107.996109      384.058813    ;  uncertainty theta = 0.001498, k = 0.017817
        29        31        65     1      107.996109      384.058813    ;  uncertainty theta = 0.001498, k = 0.017817
        29        31        66     1      107.996109      384.058813    ;  uncertainty theta = 0.001498, k = 0.017817
        29        32        67     1      107.544724      382.761017    ;  uncertainty theta = 0.002760, k = 0.048647
        29        32        68     1      107.544724      382.761017    ;  uncertainty theta = 0.002760, k = 0.048647
        30        29        31     1      108.956375      585.520334    ;  uncertainty theta = 0.001841, k = 0.057908
        30        29        32     1      108.014572      557.325067    ;  uncertainty theta = 0.003069, k = 0.098919
        31        29        32     1      108.014572      557.325067    ;  uncertainty theta = 0.003069, k = 0.098919
        33         1        34     1      106.599655      315.928263    ;  uncertainty theta = 0.001025, k = 0.007338
        33         1        35     1      106.599655      315.928263    ;  uncertainty theta = 0.001025, k = 0.007338
        34         1        35     1      106.599655      315.928263    ;  uncertainty theta = 0.001025, k = 0.007338
        36         4        37     1      104.778244      318.936917    ;  uncertainty theta = 0.004275, k = 0.032115
        38         5        39     1      105.532516      324.784149    ;  uncertainty theta = 0.002647, k = 0.046013
        40         6        41     1      108.056007      319.567684    ;  uncertainty theta = 0.003270, k = 0.071376
        42         7        69     1      107.470665      385.689676    ;  uncertainty theta = 0.002664, k = 0.147889
        43         8        44     1      108.081261      323.219778    ;  uncertainty theta = 0.003699, k = 0.075490
        45        10        46     1      105.282066      321.188460    ;  uncertainty theta = 0.001264, k = 0.023288
        45        10        47     1      105.282066      321.188460    ;  uncertainty theta = 0.001264, k = 0.023288
        46        10        47     1      105.282066      321.188460    ;  uncertainty theta = 0.001264, k = 0.023288
        48        11        49     1      105.282066      321.188460    ;  uncertainty theta = 0.001264, k = 0.023288
        48        11        50     1      105.282066      321.188460    ;  uncertainty theta = 0.001264, k = 0.023288
        49        11        50     1      105.282066      321.188460    ;  uncertainty theta = 0.001264, k = 0.023288
        51        12        52     1      106.110962      323.002074    ;  uncertainty theta = 0.003359, k = 0.091391
        57        21        58     1      109.834633      265.993542    ;  uncertainty theta = 0.001915, k = 0.057416
        59        28        60     1      106.125877      305.443843    ;  uncertainty theta = 0.001540, k = 0.048439
        61        30        62     1      105.574768      318.349181    ;  uncertainty theta = 0.001227, k = 0.028952
        61        30        63     1      105.574768      318.349181    ;  uncertainty theta = 0.001227, k = 0.028952
        62        30        63     1      105.574768      318.349181    ;  uncertainty theta = 0.001227, k = 0.028952
        64        31        65     1      105.574768      318.349181    ;  uncertainty theta = 0.001227, k = 0.028952
        64        31        66     1      105.574768      318.349181    ;  uncertainty theta = 0.001227, k = 0.028951
        65        31        66     1      105.574768      318.349181    ;  uncertainty theta = 0.001227, k = 0.028951
        67        32        68     1      105.093704      313.682082    ;  uncertainty theta = 0.001625, k = 0.026384

[ dihedrals ] ; propers for gromacs 4.5 or higher, use funct 9
;       ai        aj        ak        al funct           phase               k        pn
         1         2         3         4     9        0.000000       -0.534165         1    ;  uncertainty k = 0.797451
         1         2         3         4     9      180.000000        8.370450         2    ;  uncertainty k = 0.534900
         1         2         3         4     9        0.000000        1.123212         3    ;  uncertainty k = 0.321131
         1         2         3         4     9      180.000000        0.802484         4    ;  uncertainty k = 0.235309
         1         2         3        23     9        0.000000        0.221408         1    ;  uncertainty k = 0.794144
         1         2         3        23     9      180.000000       14.539322         2    ;  uncertainty k = 0.459806
         1         2         3        23     9        0.000000        2.144730         3    ;  uncertainty k = 0.688228
         1         2         3        23     9      180.000000        0.978428         4    ;  uncertainty k = 0.229134
         1         2        25        24     9        0.000000        0.735890         1    ;  uncertainty k = 1.085329
         1         2        25        24     9      180.000000        9.416021         2    ;  uncertainty k = 0.548251
         1         2        25        24     9        0.000000        1.767600         3    ;  uncertainty k = 0.396803
         1         2        25        24     9      180.000000        0.414836         4    ;  uncertainty k = 0.218725
         1         2        25        26     9        0.000000       -0.477193         1    ;  uncertainty k = 1.442375
         1         2        25        26     9      180.000000        5.256570         2    ;  uncertainty k = 0.727055
         1         2        25        26     9        0.000000        1.712487         3    ;  uncertainty k = 0.189360
         1         2        25        26     9      180.000000        0.214289         4    ;  uncertainty k = 0.158595
         2         3         4         5     9        0.000000        0.027127         1    ;  uncertainty k = 0.585915
         2         3         4         5     9      180.000000        1.094891         2    ;  uncertainty k = 0.470876
         2         3         4         5     9        0.000000        0.069890         3    ;  uncertainty k = 0.210341
         2         3         4         5     9      180.000000        0.161492         4    ;  uncertainty k = 0.136315
         2         3         4        36     9        0.000000        0.738799         1    ;  uncertainty k = 0.408162
         2         3         4        36     9      180.000000        1.224915         2    ;  uncertainty k = 0.314458
         2         3         4        36     9        0.000000        0.207758         3    ;  uncertainty k = 0.082342
         2         3         4        36     9      180.000000        0.118246         4    ;  uncertainty k = 0.104663
         2         3         4        37     9        0.000000        0.738799         1    ;  uncertainty k = 0.408162
         2         3         4        37     9      180.000000        1.224915         2    ;  uncertainty k = 0.314458
         2         3         4        37     9        0.000000        0.207758         3    ;  uncertainty k = 0.082342
         2         3         4        37     9      180.000000        0.118246         4    ;  uncertainty k = 0.104663
         2         3        23        16     9        0.000000        1.904932         1    ;  uncertainty k = 0.672469
         2         3        23        16     9      180.000000        6.851178         2    ;  uncertainty k = 0.668727
         2         3        23        16     9        0.000000        1.923123         3    ;  uncertainty k = 0.303303
         2         3        23        16     9      180.000000        0.114115         4    ;  uncertainty k = 0.280151
         2         3        23        24     9        0.000000       -0.519310         1    ;  uncertainty k = 0.764475
         2         3        23        24     9      180.000000       12.421849         2    ;  uncertainty k = 0.827441
         2         3        23        24     9        0.000000       -6.387672         3    ;  uncertainty k = 0.680899
         2         3        23        24     9      180.000000        1.105472         4    ;  uncertainty k = 0.512079
         2        25        24        23     9        0.000000       -0.246290         1    ;  uncertainty k = 0.289961
         2        25        24        23     9      180.000000       15.423100         2    ;  uncertainty k = 1.096923
         2        25        24        23     9        0.000000       -4.447669         3    ;  uncertainty k = 0.651380
         2        25        24        23     9      180.000000        1.748857         4    ;  uncertainty k = 0.611037
         2        25        24        32     9        0.000000        0.109308         1    ;  uncertainty k = 0.124598
         2        25        24        32     9      180.000000       11.372252         2    ;  uncertainty k = 0.471513
         2        25        24        32     9        0.000000        1.088360         3    ;  uncertainty k = 0.305831
         2        25        24        32     9      180.000000        1.161826         4    ;  uncertainty k = 0.302667
         2        25        26        27     9        0.000000       -1.847182         1    ;  uncertainty k = 1.157550
         2        25        26        27     9      180.000000        6.643139         2    ;  uncertainty k = 0.455011
         2        25        26        27     9        0.000000        0.783818         3    ;  uncertainty k = 0.142480
         2        25        26        27     9      180.000000       -0.185187         4    ;  uncertainty k = 0.114437
         2        25        26        28     9        0.000000       -0.926558         1    ;  uncertainty k = 0.295838
         2        25        26        28     9      180.000000        3.213854         2    ;  uncertainty k = 0.305906
         2        25        26        28     9        0.000000        0.621584         3    ;  uncertainty k = 0.127606
         2        25        26        28     9      180.000000        0.389048         4    ;  uncertainty k = 0.061584
         3         2         1        33     9        0.000000        1.057543         1    ;  uncertainty k = 0.401308
         3         2         1        33     9      180.000000        1.620052         2    ;  uncertainty k = 0.331300
         3         2         1        33     9        0.000000        0.032090         3    ;  uncertainty k = 0.111700
         3         2         1        33     9      180.000000        0.095394         4    ;  uncertainty k = 0.043435
         3         2         1        34     9        0.000000        1.057543         1    ;  uncertainty k = 0.401308
         3         2         1        34     9      180.000000        1.620052         2    ;  uncertainty k = 0.331300
         3         2         1        34     9        0.000000        0.032090         3    ;  uncertainty k = 0.111700
         3         2         1        34     9      180.000000        0.095394         4    ;  uncertainty k = 0.043435
         3         2         1        35     9        0.000000        1.057543         1    ;  uncertainty k = 0.401308
         3         2         1        35     9      180.000000        1.620052         2    ;  uncertainty k = 0.331300
         3         2         1        35     9        0.000000        0.032090         3    ;  uncertainty k = 0.111700
         3         2         1        35     9      180.000000        0.095394         4    ;  uncertainty k = 0.043435
         3         2        25        24     9        0.000000       -0.114122         1    ;  uncertainty k = 0.625241
         3         2        25        24     9      180.000000       12.417307         2    ;  uncertainty k = 0.851697
         3         2        25        24     9        0.000000       -9.664476         3    ;  uncertainty k = 1.513114
         3         2        25        24     9      180.000000        1.889687         4    ;  uncertainty k = 0.389182
         3         2        25        26     9        0.000000        0.992140         1    ;  uncertainty k = 0.841646
         3         2        25        26     9      180.000000        5.265594         2    ;  uncertainty k = 0.823329
         3         2        25        26     9        0.000000        1.469218         3    ;  uncertainty k = 0.176719
         3         2        25        26     9      180.000000        0.642631         4    ;  uncertainty k = 0.255292
         3         4         5         6     9        0.000000       -1.884078         1    ;  uncertainty k = 0.955469
         3         4         5         6     9      180.000000       -0.515267         2    ;  uncertainty k = 0.447062
         3         4         5         6     9        0.000000        1.633914         3    ;  uncertainty k = 0.234616
         3         4         5         6     9      180.000000       -0.168667         4    ;  uncertainty k = 0.193336
         3         4         5        38     9        0.000000        0.219460         1    ;  uncertainty k = 0.547090
         3         4         5        38     9      180.000000       -0.129766         2    ;  uncertainty k = 0.349868
         3         4         5        38     9        0.000000        1.086504         3    ;  uncertainty k = 0.118689
         3         4         5        38     9      180.000000        0.044445         4    ;  uncertainty k = 0.057640
         3         4         5        39     9        0.000000        0.219460         1    ;  uncertainty k = 0.547090
         3         4         5        39     9      180.000000       -0.129766         2    ;  uncertainty k = 0.349868
         3         4         5        39     9        0.000000        1.086504         3    ;  uncertainty k = 0.118689
         3         4         5        39     9      180.000000        0.044445         4    ;  uncertainty k = 0.057640
         3        23        16        15     9        0.000000        0.712522         1    ;  uncertainty k = 0.436455
         3        23        16        15     9      180.000000        5.774712         2    ;  uncertainty k = 0.444034
         3        23        16        15     9        0.000000        0.445413         3    ;  uncertainty k = 0.163363
         3        23        16        15     9      180.000000        0.346693         4    ;  uncertainty k = 0.209582
         3        23        16        17     9        0.000000        0.929198         1    ;  uncertainty k = 0.580803
         3        23        16        17     9      180.000000        6.012729         2    ;  uncertainty k = 0.413700
         3        23        16        17     9        0.000000        0.538305         3    ;  uncertainty k = 0.201412
         3        23        16        17     9      180.000000        0.352428         4    ;  uncertainty k = 0.163473
         3        23        24        25     9        0.000000       -0.006747         1    ;  uncertainty k = 0.756310
         3        23        24        25     9      180.000000       15.802425         2    ;  uncertainty k = 0.761344
         3        23        24        25     9        0.000000       -8.394575         3    ;  uncertainty k = 1.713229
         3        23        24        25     9      180.000000        0.880743         4    ;  uncertainty k = 0.667956
         3        23        24        32     9        0.000000        0.905658         1    ;  uncertainty k = 0.614550
         3        23        24        32     9      180.000000        7.492399         2    ;  uncertainty k = 0.341262
         3        23        24        32     9        0.000000        1.475936         3    ;  uncertainty k = 0.195359
         3        23        24        32     9      180.000000        0.093777         4    ;  uncertainty k = 0.147247
         4         3         2        25     9        0.000000       -0.015111         1    ;  uncertainty k = 0.744138
         4         3         2        25     9      180.000000       13.553736         2    ;  uncertainty k = 0.453040
         4         3         2        25     9        0.000000        2.194905         3    ;  uncertainty k = 0.277369
         4         3         2        25     9      180.000000        0.915803         4    ;  uncertainty k = 0.326102
         4         3        23        16     9        0.000000        0.443092         1    ;  uncertainty k = 0.781231
         4         3        23        16     9      180.000000        3.990535         2    ;  uncertainty k = 0.720783
         4         3        23        16     9        0.000000        1.233671         3    ;  uncertainty k = 0.200544
         4         3        23        16     9      180.000000        0.185350         4    ;  uncertainty k = 0.169537
         4         3        23        24     9        0.000000        1.079158         1    ;  uncertainty k = 0.818916
         4         3        23        24     9      180.000000        7.930089         2    ;  uncertainty k = 0.752508
         4         3        23        24     9        0.000000        1.679709         3    ;  uncertainty k = 0.145818
         4         3        23        24     9      180.000000        0.018974         4    ;  uncertainty k = 0.078374
         4         5         6         7     9        0.000000       -2.233329         1    ;  uncertainty k = 1.876673
         4         5         6         7     9      180.000000       -3.039696         2    ;  uncertainty k = 1.004282
         4         5         6         7     9        0.000000        2.025784         3    ;  uncertainty k = 0.204519
         4         5         6         7     9      180.000000       -0.528231         4    ;  uncertainty k = 0.253236
         4         5         6        40     9        0.000000       -1.613053         1    ;  uncertainty k = 0.869556
         4         5         6        40     9      180.000000       -0.275340         2    ;  uncertainty k = 0.344202
         4         5         6        40     9        0.000000        0.902141         3    ;  uncertainty k = 0.067556
         4         5         6        40     9      180.000000       -0.233683         4    ;  uncertainty k = 0.149984
         4         5         6        41     9        0.000000       -1.613053         1    ;  uncertainty k = 0.869556
         4         5         6        41     9      180.000000       -0.275340         2    ;  uncertainty k = 0.344202
         4         5         6        41     9        0.000000        0.902141         3    ;  uncertainty k = 0.067556
         4         5         6        41     9      180.000000       -0.233683         4    ;  uncertainty k = 0.149984
         5         4         3        23     9        0.000000        0.058272         1    ;  uncertainty k = 1.064232
         5         4         3        23     9      180.000000        0.077970         2    ;  uncertainty k = 0.379012
         5         4         3        23     9        0.000000        0.702458         3    ;  uncertainty k = 0.275056
         5         4         3        23     9      180.000000        0.097940         4    ;  uncertainty k = 0.047355
         5         6         7         8     9        0.000000       -1.286103         1    ;  uncertainty k = 0.759467
         5         6         7         8     9      180.000000        0.281913         2    ;  uncertainty k = 0.362207
         5         6         7         8     9        0.000000        1.166667         3    ;  uncertainty k = 0.227308
         5         6         7         8     9      180.000000       -0.114765         4    ;  uncertainty k = 0.083284
         5         6         7        42     9        0.000000       -0.825209         1    ;  uncertainty k = 0.599171
         5         6         7        42     9      180.000000       -0.296011         2    ;  uncertainty k = 0.573210
         5         6         7        42     9        0.000000        0.797691         3    ;  uncertainty k = 0.112516
         5         6         7        42     9      180.000000       -0.079488         4    ;  uncertainty k = 0.105826
         5         6         7        69     9        0.000000       -0.825209         1    ;  uncertainty k = 0.599171
         5         6         7        69     9      180.000000       -0.296011         2    ;  uncertainty k = 0.573210
         5         6         7        69     9        0.000000        0.797691         3    ;  uncertainty k = 0.112516
         5         6         7        69     9      180.000000       -0.079488         4    ;  uncertainty k = 0.105826
         6         5         4        36     9        0.000000       -2.110532         1    ;  uncertainty k = 0.382677
         6         5         4        36     9      180.000000       -0.806592         2    ;  uncertainty k = 0.162942
         6         5         4        36     9        0.000000        1.137154         3    ;  uncertainty k = 0.220104
         6         5         4        36     9      180.000000       -0.316573         4    ;  uncertainty k = 0.104209
         6         5         4        37     9        0.000000       -2.110532         1    ;  uncertainty k = 0.382677
         6         5         4        37     9      180.000000       -0.806592         2    ;  uncertainty k = 0.162942
         6         5         4        37     9        0.000000        1.137154         3    ;  uncertainty k = 0.220104
         6         5         4        37     9      180.000000       -0.316573         4    ;  uncertainty k = 0.104209
         6         7         8         9     9        0.000000       -0.718293         1    ;  uncertainty k = 1.238404
         6         7         8         9     9      180.000000        0.378949         2    ;  uncertainty k = 0.565961
         6         7         8         9     9        0.000000        1.218748         3    ;  uncertainty k = 0.340633
         6         7         8         9     9      180.000000       -0.095132         4    ;  uncertainty k = 0.144122
         6         7         8        43     9        0.000000       -0.171435         1    ;  uncertainty k = 0.703386
         6         7         8        43     9      180.000000       -0.474853         2    ;  uncertainty k = 0.392485
         6         7         8        43     9        0.000000        1.053442         3    ;  uncertainty k = 0.060801
         6         7         8        43     9      180.000000       -0.030771         4    ;  uncertainty k = 0.171162
         6         7         8        44     9        0.000000       -0.171435         1    ;  uncertainty k = 0.703386
         6         7         8        44     9      180.000000       -0.474853         2    ;  uncertainty k = 0.392485
         6         7         8        44     9        0.000000        1.053442         3    ;  uncertainty k = 0.060801
         6         7         8        44     9      180.000000       -0.030771         4    ;  uncertainty k = 0.171162
         7         6         5        38     9        0.000000       -0.358371         1    ;  uncertainty k = 0.502553
         7         6         5        38     9      180.000000       -2.244551         2    ;  uncertainty k = 0.516175
         7         6         5        38     9        0.000000        1.099732         3    ;  uncertainty k = 0.224916
         7         6         5        38     9      180.000000       -0.130150         4    ;  uncertainty k = 0.101262
         7         6         5        39     9        0.000000       -0.358371         1    ;  uncertainty k = 0.502553
         7         6         5        39     9      180.000000       -2.244551         2    ;  uncertainty k = 0.516175
         7         6         5        39     9        0.000000        1.099732         3    ;  uncertainty k = 0.224916
         7         6         5        39     9      180.000000       -0.130150         4    ;  uncertainty k = 0.101262
         7         8         9        10     9        0.000000       -1.731984         1    ;  uncertainty k = 0.862064
         7         8         9        10     9      180.000000       -1.063429         2    ;  uncertainty k = 0.571770
         7         8         9        10     9        0.000000        1.412610         3    ;  uncertainty k = 0.120427
         7         8         9        10     9      180.000000       -0.380042         4    ;  uncertainty k = 0.057424
         7         8         9        11     9        0.000000       -1.731984         1    ;  uncertainty k = 0.862064
         7         8         9        11     9      180.000000       -1.063429         2    ;  uncertainty k = 0.571770
         7         8         9        11     9        0.000000        1.412610         3    ;  uncertainty k = 0.120427
         7         8         9        11     9      180.000000       -0.380042         4    ;  uncertainty k = 0.057424
         7         8         9        12     9        0.000000       -4.849845         1    ;  uncertainty k = 2.038506
         7         8         9        12     9      180.000000       -2.694847         2    ;  uncertainty k = 0.955807
         7         8         9        12     9        0.000000        1.414549         3    ;  uncertainty k = 0.282090
         7         8         9        12     9      180.000000       -0.304292         4    ;  uncertainty k = 0.170812
         8         7         6        40     9        0.000000       -0.280952         1    ;  uncertainty k = 0.566235
         8         7         6        40     9      180.000000       -0.674058         2    ;  uncertainty k = 0.341375
         8         7         6        40     9        0.000000        1.071374         3    ;  uncertainty k = 0.077954
         8         7         6        40     9      180.000000       -0.028846         4    ;  uncertainty k = 0.135113
         8         7         6        41     9        0.000000       -0.280952         1    ;  uncertainty k = 0.566235
         8         7         6        41     9      180.000000       -0.674058         2    ;  uncertainty k = 0.341375
         8         7         6        41     9        0.000000        1.071374         3    ;  uncertainty k = 0.077954
         8         7         6        41     9      180.000000       -0.028846         4    ;  uncertainty k = 0.135113
         8         9        10        45     9        0.000000       -1.241863         1    ;  uncertainty k = 0.311306
         8         9        10        45     9      180.000000       -1.481395         2    ;  uncertainty k = 0.291644
         8         9        10        45     9        0.000000        0.639231         3    ;  uncertainty k = 0.186973
         8         9        10        45     9      180.000000       -0.379341         4    ;  uncertainty k = 0.078287
         8         9        10        46     9        0.000000       -1.241863         1    ;  uncertainty k = 0.311306
         8         9        10        46     9      180.000000       -1.481395         2    ;  uncertainty k = 0.291644
         8         9        10        46     9        0.000000        0.639231         3    ;  uncertainty k = 0.186973
         8         9        10        46     9      180.000000       -0.379341         4    ;  uncertainty k = 0.078287
         8         9        10        47     9        0.000000       -1.241863         1    ;  uncertainty k = 0.311306
         8         9        10        47     9      180.000000       -1.481395         2    ;  uncertainty k = 0.291644
         8         9        10        47     9        0.000000        0.639231         3    ;  uncertainty k = 0.186973
         8         9        10        47     9      180.000000       -0.379341         4    ;  uncertainty k = 0.078287
         8         9        11        48     9        0.000000       -1.241863         1    ;  uncertainty k = 0.311306
         8         9        11        48     9      180.000000       -1.481395         2    ;  uncertainty k = 0.291644
         8         9        11        48     9        0.000000        0.639231         3    ;  uncertainty k = 0.186973
         8         9        11        48     9      180.000000       -0.379341         4    ;  uncertainty k = 0.078287
         8         9        11        49     9        0.000000       -1.241863         1    ;  uncertainty k = 0.311306
         8         9        11        49     9      180.000000       -1.481395         2    ;  uncertainty k = 0.291644
         8         9        11        49     9        0.000000        0.639231         3    ;  uncertainty k = 0.186973
         8         9        11        49     9      180.000000       -0.379341         4    ;  uncertainty k = 0.078287
         8         9        11        50     9        0.000000       -1.241863         1    ;  uncertainty k = 0.311306
         8         9        11        50     9      180.000000       -1.481395         2    ;  uncertainty k = 0.291644
         8         9        11        50     9        0.000000        0.639231         3    ;  uncertainty k = 0.186973
         8         9        11        50     9      180.000000       -0.379341         4    ;  uncertainty k = 0.078287
         8         9        12        13     9        0.000000       -2.500260         1    ;  uncertainty k = 1.003683
         8         9        12        13     9      180.000000       -0.431854         2    ;  uncertainty k = 0.349245
         8         9        12        13     9        0.000000        1.465904         3    ;  uncertainty k = 0.286608
         8         9        12        13     9      180.000000       -0.481763         4    ;  uncertainty k = 0.200128
         8         9        12        51     9        0.000000       -1.198059         1    ;  uncertainty k = 0.524495
         8         9        12        51     9      180.000000       -0.688590         2    ;  uncertainty k = 0.490452
         8         9        12        51     9        0.000000        0.185265         3    ;  uncertainty k = 0.212209
         8         9        12        51     9      180.000000       -0.383760         4    ;  uncertainty k = 0.161352
         8         9        12        52     9        0.000000       -1.198059         1    ;  uncertainty k = 0.524495
         8         9        12        52     9      180.000000       -0.688590         2    ;  uncertainty k = 0.490452
         8         9        12        52     9        0.000000        0.185265         3    ;  uncertainty k = 0.212209
         8         9        12        52     9      180.000000       -0.383760         4    ;  uncertainty k = 0.161352
         9         8         7        42     9        0.000000       -0.341505         1    ;  uncertainty k = 0.682900
         9         8         7        42     9      180.000000       -0.357499         2    ;  uncertainty k = 0.719222
         9         8         7        42     9        0.000000        0.713278         3    ;  uncertainty k = 0.224219
         9         8         7        42     9      180.000000       -0.108922         4    ;  uncertainty k = 0.099004
         9         8         7        69     9        0.000000       -0.341505         1    ;  uncertainty k = 0.682900
         9         8         7        69     9      180.000000       -0.357499         2    ;  uncertainty k = 0.719222
         9         8         7        69     9        0.000000        0.713278         3    ;  uncertainty k = 0.224219
         9         8         7        69     9      180.000000       -0.108922         4    ;  uncertainty k = 0.099004
         9        12        13        14     9        0.000000        0.234934         1    ;  uncertainty k = 0.837813
         9        12        13        14     9      180.000000       -1.300921         2    ;  uncertainty k = 0.216852
         9        12        13        14     9        0.000000        0.500051         3    ;  uncertainty k = 0.365804
         9        12        13        14     9      180.000000        0.236716         4    ;  uncertainty k = 0.105073
         9        12        13        53     9        0.000000        3.728071         1    ;  uncertainty k = 1.015258
         9        12        13        53     9      180.000000       -3.935564         2    ;  uncertainty k = 0.280209
         9        12        13        53     9        0.000000        0.394437         3    ;  uncertainty k = 0.263700
         9        12        13        53     9      180.000000       -0.028857         4    ;  uncertainty k = 0.122058
        10         9         8        43     9        0.000000       -1.404971         1    ;  uncertainty k = 0.790743
        10         9         8        43     9      180.000000        0.208257         2    ;  uncertainty k = 0.188834
        10         9         8        43     9        0.000000        0.565063         3    ;  uncertainty k = 0.155023
        10         9         8        43     9      180.000000       -0.094965         4    ;  uncertainty k = 0.133544
        10         9         8        44     9        0.000000       -1.404971         1    ;  uncertainty k = 0.790743
        10         9         8        44     9      180.000000        0.208257         2    ;  uncertainty k = 0.188834
        10         9         8        44     9        0.000000        0.565063         3    ;  uncertainty k = 0.155023
        10         9         8        44     9      180.000000       -0.094965         4    ;  uncertainty k = 0.133544
        10         9        11        48     9        0.000000       -1.012275         1    ;  uncertainty k = 0.347452
        10         9        11        48     9      180.000000       -0.346785         2    ;  uncertainty k = 0.319757
        10         9        11        48     9        0.000000        0.677797         3    ;  uncertainty k = 0.085441
        10         9        11        48     9      180.000000       -0.088089         4    ;  uncertainty k = 0.057442
        10         9        11        49     9        0.000000       -1.012275         1    ;  uncertainty k = 0.347452
        10         9        11        49     9      180.000000       -0.346785         2    ;  uncertainty k = 0.319757
        10         9        11        49     9        0.000000        0.677797         3    ;  uncertainty k = 0.085441
        10         9        11        49     9      180.000000       -0.088089         4    ;  uncertainty k = 0.057442
        10         9        11        50     9        0.000000       -1.012275         1    ;  uncertainty k = 0.347452
        10         9        11        50     9      180.000000       -0.346785         2    ;  uncertainty k = 0.319757
        10         9        11        50     9        0.000000        0.677797         3    ;  uncertainty k = 0.085441
        10         9        11        50     9      180.000000       -0.088089         4    ;  uncertainty k = 0.057442
        10         9        12        13     9        0.000000       -2.865894         1    ;  uncertainty k = 0.503568
        10         9        12        13     9      180.000000        0.768950         2    ;  uncertainty k = 0.052402
        10         9        12        13     9        0.000000        1.566852         3    ;  uncertainty k = 0.216791
        10         9        12        13     9      180.000000       -0.361595         4    ;  uncertainty k = 0.063726
        10         9        12        51     9        0.000000       -1.288057         1    ;  uncertainty k = 0.539112
        10         9        12        51     9      180.000000       -0.073824         2    ;  uncertainty k = 0.314368
        10         9        12        51     9        0.000000        0.285284         3    ;  uncertainty k = 0.128043
        10         9        12        51     9      180.000000       -0.195141         4    ;  uncertainty k = 0.130942
        10         9        12        52     9        0.000000       -1.288057         1    ;  uncertainty k = 0.539112
        10         9        12        52     9      180.000000       -0.073824         2    ;  uncertainty k = 0.314368
        10         9        12        52     9        0.000000        0.285284         3    ;  uncertainty k = 0.128043
        10         9        12        52     9      180.000000       -0.195141         4    ;  uncertainty k = 0.130942
        11         9         8        43     9        0.000000       -1.404971         1    ;  uncertainty k = 0.790743
        11         9         8        43     9      180.000000        0.208257         2    ;  uncertainty k = 0.188834
        11         9         8        43     9        0.000000        0.565063         3    ;  uncertainty k = 0.155023
        11         9         8        43     9      180.000000       -0.094965         4    ;  uncertainty k = 0.133544
        11         9         8        44     9        0.000000       -1.404971         1    ;  uncertainty k = 0.790743
        11         9         8        44     9      180.000000        0.208257         2    ;  uncertainty k = 0.188834
        11         9         8        44     9        0.000000        0.565063         3    ;  uncertainty k = 0.155023
        11         9         8        44     9      180.000000       -0.094965         4    ;  uncertainty k = 0.133544
        11         9        10        45     9        0.000000       -1.012275         1    ;  uncertainty k = 0.347452
        11         9        10        45     9      180.000000       -0.346785         2    ;  uncertainty k = 0.319757
        11         9        10        45     9        0.000000        0.677797         3    ;  uncertainty k = 0.085441
        11         9        10        45     9      180.000000       -0.088089         4    ;  uncertainty k = 0.057442
        11         9        10        46     9        0.000000       -1.012275         1    ;  uncertainty k = 0.347452
        11         9        10        46     9      180.000000       -0.346785         2    ;  uncertainty k = 0.319757
        11         9        10        46     9        0.000000        0.677797         3    ;  uncertainty k = 0.085441
        11         9        10        46     9      180.000000       -0.088089         4    ;  uncertainty k = 0.057442
        11         9        10        47     9        0.000000       -1.012275         1    ;  uncertainty k = 0.347452
        11         9        10        47     9      180.000000       -0.346785         2    ;  uncertainty k = 0.319757
        11         9        10        47     9        0.000000        0.677797         3    ;  uncertainty k = 0.085441
        11         9        10        47     9      180.000000       -0.088089         4    ;  uncertainty k = 0.057442
        11         9        12        13     9        0.000000       -2.865894         1    ;  uncertainty k = 0.503568
        11         9        12        13     9      180.000000        0.768950         2    ;  uncertainty k = 0.052402
        11         9        12        13     9        0.000000        1.566852         3    ;  uncertainty k = 0.216791
        11         9        12        13     9      180.000000       -0.361595         4    ;  uncertainty k = 0.063726
        11         9        12        51     9        0.000000       -1.288057         1    ;  uncertainty k = 0.539112
        11         9        12        51     9      180.000000       -0.073824         2    ;  uncertainty k = 0.314368
        11         9        12        51     9        0.000000        0.285284         3    ;  uncertainty k = 0.128043
        11         9        12        51     9      180.000000       -0.195141         4    ;  uncertainty k = 0.130942
        11         9        12        52     9        0.000000       -1.288057         1    ;  uncertainty k = 0.539112
        11         9        12        52     9      180.000000       -0.073824         2    ;  uncertainty k = 0.314368
        11         9        12        52     9        0.000000        0.285284         3    ;  uncertainty k = 0.128043
        11         9        12        52     9      180.000000       -0.195141         4    ;  uncertainty k = 0.130942
        12         9         8        43     9        0.000000       -0.842716         1    ;  uncertainty k = 0.942416
        12         9         8        43     9      180.000000       -0.048557         2    ;  uncertainty k = 0.514952
        12         9         8        43     9        0.000000        0.439599         3    ;  uncertainty k = 0.093260
        12         9         8        43     9      180.000000       -0.233585         4    ;  uncertainty k = 0.166833
        12         9         8        44     9        0.000000       -0.842716         1    ;  uncertainty k = 0.942416
        12         9         8        44     9      180.000000       -0.048557         2    ;  uncertainty k = 0.514952
        12         9         8        44     9        0.000000        0.439599         3    ;  uncertainty k = 0.093260
        12         9         8        44     9      180.000000       -0.233585         4    ;  uncertainty k = 0.166833
        12         9        10        45     9        0.000000       -0.790761         1    ;  uncertainty k = 0.290052
        12         9        10        45     9      180.000000       -1.043402         2    ;  uncertainty k = 0.299358
        12         9        10        45     9        0.000000        0.568035         3    ;  uncertainty k = 0.074446
        12         9        10        45     9      180.000000       -0.368526         4    ;  uncertainty k = 0.051061
        12         9        10        46     9        0.000000       -0.790761         1    ;  uncertainty k = 0.290052
        12         9        10        46     9      180.000000       -1.043402         2    ;  uncertainty k = 0.299358
        12         9        10        46     9        0.000000        0.568035         3    ;  uncertainty k = 0.074446
        12         9        10        46     9      180.000000       -0.368526         4    ;  uncertainty k = 0.051061
        12         9        10        47     9        0.000000       -0.790761         1    ;  uncertainty k = 0.290052
        12         9        10        47     9      180.000000       -1.043402         2    ;  uncertainty k = 0.299358
        12         9        10        47     9        0.000000        0.568035         3    ;  uncertainty k = 0.074446
        12         9        10        47     9      180.000000       -0.368526         4    ;  uncertainty k = 0.051061
        12         9        11        48     9        0.000000       -0.790761         1    ;  uncertainty k = 0.290052
        12         9        11        48     9      180.000000       -1.043402         2    ;  uncertainty k = 0.299358
        12         9        11        48     9        0.000000        0.568035         3    ;  uncertainty k = 0.074446
        12         9        11        48     9      180.000000       -0.368526         4    ;  uncertainty k = 0.051061
        12         9        11        49     9        0.000000       -0.790761         1    ;  uncertainty k = 0.290052
        12         9        11        49     9      180.000000       -1.043402         2    ;  uncertainty k = 0.299358
        12         9        11        49     9        0.000000        0.568035         3    ;  uncertainty k = 0.074446
        12         9        11        49     9      180.000000       -0.368526         4    ;  uncertainty k = 0.051061
        12         9        11        50     9        0.000000       -0.790761         1    ;  uncertainty k = 0.290052
        12         9        11        50     9      180.000000       -1.043402         2    ;  uncertainty k = 0.299358
        12         9        11        50     9        0.000000        0.568035         3    ;  uncertainty k = 0.074446
        12         9        11        50     9      180.000000       -0.368526         4    ;  uncertainty k = 0.051061
        12        13        14        15     9        0.000000        1.928641         1    ;  uncertainty k = 0.950368
        12        13        14        15     9      180.000000        7.890868         2    ;  uncertainty k = 0.438094
        12        13        14        15     9        0.000000       -0.146225         3    ;  uncertainty k = 0.205900
        12        13        14        15     9      180.000000       -0.077115         4    ;  uncertainty k = 0.261684
        12        13        14        19     9        0.000000        4.122165         1    ;  uncertainty k = 0.426934
        12        13        14        19     9      180.000000        9.041352         2    ;  uncertainty k = 0.630804
        12        13        14        19     9        0.000000        0.570315         3    ;  uncertainty k = 0.387790
        12        13        14        19     9      180.000000       -0.154144         4    ;  uncertainty k = 0.283316
        13        14        15        16     9        0.000000        0.414364         1    ;  uncertainty k = 0.602073
        13        14        15        16     9      180.000000        9.064275         2    ;  uncertainty k = 0.411653
        13        14        15        16     9        0.000000        0.795206         3    ;  uncertainty k = 0.193141
        13        14        15        16     9      180.000000        1.631816         4    ;  uncertainty k = 0.230205
        13        14        15        54     9        0.000000       -0.156059         1    ;  uncertainty k = 0.250691
        13        14        15        54     9      180.000000        7.740071         2    ;  uncertainty k = 0.796690
        13        14        15        54     9        0.000000        0.801525         3    ;  uncertainty k = 0.171201
        13        14        15        54     9      180.000000        1.136733         4    ;  uncertainty k = 0.346652
        13        14        19        18     9        0.000000       -0.041951         1    ;  uncertainty k = 0.902132
        13        14        19        18     9      180.000000        6.413924         2    ;  uncertainty k = 0.449654
        13        14        19        18     9        0.000000        0.976121         3    ;  uncertainty k = 0.387783
        13        14        19        18     9      180.000000        1.518076         4    ;  uncertainty k = 0.231361
        13        14        19        20     9        0.000000       -0.501475         1    ;  uncertainty k = 1.033671
        13        14        19        20     9      180.000000        7.461795         2    ;  uncertainty k = 0.893495
        13        14        19        20     9        0.000000        1.314026         3    ;  uncertainty k = 0.431280
        13        14        19        20     9      180.000000        1.561822         4    ;  uncertainty k = 0.368378
        14        13        12        51     9        0.000000        0.023185         1    ;  uncertainty k = 0.360259
        14        13        12        51     9      180.000000       -1.100204         2    ;  uncertainty k = 0.182117
        14        13        12        51     9        0.000000        0.450476         3    ;  uncertainty k = 0.215309
        14        13        12        51     9      180.000000        0.315311         4    ;  uncertainty k = 0.069612
        14        13        12        52     9        0.000000        0.023185         1    ;  uncertainty k = 0.360259
        14        13        12        52     9      180.000000       -1.100204         2    ;  uncertainty k = 0.182117
        14        13        12        52     9        0.000000        0.450476         3    ;  uncertainty k = 0.215309
        14        13        12        52     9      180.000000        0.315311         4    ;  uncertainty k = 0.069612
        14        15        16        17     9        0.000000        0.266130         1    ;  uncertainty k = 0.253719
        14        15        16        17     9      180.000000        9.784826         2    ;  uncertainty k = 0.550130
        14        15        16        17     9        0.000000       -0.013437         3    ;  uncertainty k = 0.352700
        14        15        16        17     9      180.000000        1.146085         4    ;  uncertainty k = 0.238318
        14        15        16        23     9        0.000000        0.279145         1    ;  uncertainty k = 0.326017
        14        15        16        23     9      180.000000       10.561265         2    ;  uncertainty k = 0.687059
        14        15        16        23     9        0.000000        1.322752         3    ;  uncertainty k = 0.241918
        14        15        16        23     9      180.000000        1.579949         4    ;  uncertainty k = 0.437544
        14        19        18        17     9        0.000000       -0.017542         1    ;  uncertainty k = 0.338837
        14        19        18        17     9      180.000000       10.145289         2    ;  uncertainty k = 0.146949
        14        19        18        17     9        0.000000       -0.242049         3    ;  uncertainty k = 0.568273
        14        19        18        17     9      180.000000        1.157858         4    ;  uncertainty k = 0.267156
        14        19        18        56     9        0.000000        0.232769         1    ;  uncertainty k = 0.353997
        14        19        18        56     9      180.000000        8.250244         2    ;  uncertainty k = 0.553391
        14        19        18        56     9        0.000000        1.107637         3    ;  uncertainty k = 0.343167
        14        19        18        56     9      180.000000        1.476641         4    ;  uncertainty k = 0.309511
        14        19        20        21     9        0.000000        0.178564         1    ;  uncertainty k = 1.233197
        14        19        20        21     9      180.000000        5.403748         2    ;  uncertainty k = 0.347121
        14        19        20        21     9        0.000000        0.471166         3    ;  uncertainty k = 0.351602
        14        19        20        21     9      180.000000        0.158752         4    ;  uncertainty k = 0.296302
        14        19        20        22     9        0.000000       -1.661380         1    ;  uncertainty k = 1.654268
        14        19        20        22     9      180.000000        3.489771         2    ;  uncertainty k = 0.967717
        14        19        20        22     9        0.000000        0.875062         3    ;  uncertainty k = 0.403852
        14        19        20        22     9      180.000000        0.335472         4    ;  uncertainty k = 0.170294
        15        14        13        53     9        0.000000        3.026731         1    ;  uncertainty k = 1.996941
        15        14        13        53     9      180.000000        6.368030         2    ;  uncertainty k = 0.476731
        15        14        13        53     9        0.000000        0.727017         3    ;  uncertainty k = 0.143846
        15        14        13        53     9      180.000000       -0.323179         4    ;  uncertainty k = 0.125139
        15        14        19        18     9        0.000000        0.039612         1    ;  uncertainty k = 0.975614
        15        14        19        18     9      180.000000        4.754860         2    ;  uncertainty k = 0.803738
        15        14        19        18     9        0.000000        0.473877         3    ;  uncertainty k = 0.378914
        15        14        19        18     9      180.000000        1.479947         4    ;  uncertainty k = 0.369739
        15        14        19        20     9        0.000000        0.561019         1    ;  uncertainty k = 1.470959
        15        14        19        20     9      180.000000        4.942876         2    ;  uncertainty k = 0.413733
        15        14        19        20     9        0.000000        1.121955         3    ;  uncertainty k = 0.384706
        15        14        19        20     9      180.000000        1.677980         4    ;  uncertainty k = 0.141266
        15        16        17        18     9        0.000000       -0.032706         1    ;  uncertainty k = 0.302370
        15        16        17        18     9      180.000000        9.900001         2    ;  uncertainty k = 0.501782
        15        16        17        18     9        0.000000       -0.157633         3    ;  uncertainty k = 0.314968
        15        16        17        18     9      180.000000        1.132581         4    ;  uncertainty k = 0.253187
        15        16        17        55     9        0.000000        0.109609         1    ;  uncertainty k = 0.237290
        15        16        17        55     9      180.000000        6.642136         2    ;  uncertainty k = 0.978720
        15        16        17        55     9        0.000000        1.281617         3    ;  uncertainty k = 0.371824
        15        16        17        55     9      180.000000        1.571041         4    ;  uncertainty k = 0.295430
        15        16        23        24     9        0.000000        0.843034         1    ;  uncertainty k = 0.831585
        15        16        23        24     9      180.000000        5.102823         2    ;  uncertainty k = 0.134396
        15        16        23        24     9        0.000000        0.341002         3    ;  uncertainty k = 0.171041
        15        16        23        24     9      180.000000        0.324261         4    ;  uncertainty k = 0.072607
        16        15        14        19     9        0.000000        0.502230         1    ;  uncertainty k = 0.658587
        16        15        14        19     9      180.000000        5.588053         2    ;  uncertainty k = 1.050369
        16        15        14        19     9        0.000000        0.697566         3    ;  uncertainty k = 0.411867
        16        15        14        19     9      180.000000        1.368218         4    ;  uncertainty k = 0.230656
        16        17        18        19     9        0.000000       -0.113093         1    ;  uncertainty k = 0.280302
        16        17        18        19     9      180.000000       12.300677         2    ;  uncertainty k = 0.371330
        16        17        18        19     9        0.000000       -0.794070         3    ;  uncertainty k = 0.512862
        16        17        18        19     9      180.000000        0.871852         4    ;  uncertainty k = 0.323708
        16        17        18        56     9        0.000000       -0.111326         1    ;  uncertainty k = 0.371912
        16        17        18        56     9      180.000000        8.088319         2    ;  uncertainty k = 0.358999
        16        17        18        56     9        0.000000        1.005365         3    ;  uncertainty k = 0.229771
        16        17        18        56     9      180.000000        1.767343         4    ;  uncertainty k = 0.141766
        16        23        24        25     9        0.000000        1.593212         1    ;  uncertainty k = 0.870094
        16        23        24        25     9      180.000000        9.887006         2    ;  uncertainty k = 0.481149
        16        23        24        25     9        0.000000        1.467863         3    ;  uncertainty k = 0.565699
        16        23        24        25     9      180.000000        0.043056         4    ;  uncertainty k = 0.188250
        16        23        24        32     9        0.000000        0.904209         1    ;  uncertainty k = 0.990308
        16        23        24        32     9      180.000000        4.002821         2    ;  uncertainty k = 0.515565
        16        23        24        32     9        0.000000        1.137097         3    ;  uncertainty k = 0.269017
        16        23        24        32     9      180.000000        0.253587         4    ;  uncertainty k = 0.094421
        17        16        15        54     9        0.000000        0.279137         1    ;  uncertainty k = 0.281661
        17        16        15        54     9      180.000000        7.531442         2    ;  uncertainty k = 0.603914
        17        16        15        54     9        0.000000        1.361033         3    ;  uncertainty k = 0.413152
        17        16        15        54     9      180.000000        1.559274         4    ;  uncertainty k = 0.242159
        17        16        23        24     9        0.000000        1.059307         1    ;  uncertainty k = 1.166731
        17        16        23        24     9      180.000000        5.351594         2    ;  uncertainty k = 0.181102
        17        16        23        24     9        0.000000        0.470054         3    ;  uncertainty k = 0.232892
        17        16        23        24     9      180.000000        0.326812         4    ;  uncertainty k = 0.073684
        17        18        19        20     9        0.000000        0.081264         1    ;  uncertainty k = 0.560523
        17        18        19        20     9      180.000000        8.776959         2    ;  uncertainty k = 0.879429
        17        18        19        20     9        0.000000        1.450148         3    ;  uncertainty k = 0.469905
        17        18        19        20     9      180.000000        1.770321         4    ;  uncertainty k = 0.406481
        18        17        16        23     9        0.000000        0.108564         1    ;  uncertainty k = 0.272135
        18        17        16        23     9      180.000000        9.802684         2    ;  uncertainty k = 0.541646
        18        17        16        23     9        0.000000        1.306516         3    ;  uncertainty k = 0.462976
        18        17        16        23     9      180.000000        1.759888         4    ;  uncertainty k = 0.292485
        18        19        20        21     9        0.000000        0.309159         1    ;  uncertainty k = 0.417123
        18        19        20        21     9      180.000000        4.399036         2    ;  uncertainty k = 0.263870
        18        19        20        21     9        0.000000        0.333826         3    ;  uncertainty k = 0.263524
        18        19        20        21     9      180.000000        0.048345         4    ;  uncertainty k = 0.202801
        18        19        20        22     9        0.000000       -2.548556         1    ;  uncertainty k = 1.262023
        18        19        20        22     9      180.000000        4.140655         2    ;  uncertainty k = 0.813339
        18        19        20        22     9        0.000000        0.702641         3    ;  uncertainty k = 0.265070
        18        19        20        22     9      180.000000        0.288999         4    ;  uncertainty k = 0.213810
        19        14        13        53     9        0.000000        8.058103         1    ;  uncertainty k = 0.755820
        19        14        13        53     9      180.000000        5.646907         2    ;  uncertainty k = 0.522827
        19        14        13        53     9        0.000000        0.771809         3    ;  uncertainty k = 0.303817
        19        14        13        53     9      180.000000       -0.139054         4    ;  uncertainty k = 0.109676
        19        14        15        54     9        0.000000        0.621251         1    ;  uncertainty k = 0.948315
        19        14        15        54     9      180.000000        5.235468         2    ;  uncertainty k = 0.712289
        19        14        15        54     9        0.000000        1.331415         3    ;  uncertainty k = 0.301758
        19        14        15        54     9      180.000000        1.402217         4    ;  uncertainty k = 0.250386
        19        18        17        55     9        0.000000       -0.152253         1    ;  uncertainty k = 0.261671
        19        18        17        55     9      180.000000        8.001816         2    ;  uncertainty k = 0.530706
        19        18        17        55     9        0.000000        1.217926         3    ;  uncertainty k = 0.360003
        19        18        17        55     9      180.000000        1.706501         4    ;  uncertainty k = 0.171491
        19        20        21        57     9        0.000000        3.550321         1    ;  uncertainty k = 1.153018
        19        20        21        57     9      180.000000        7.158108         2    ;  uncertainty k = 0.637032
        19        20        21        57     9        0.000000        2.732941         3    ;  uncertainty k = 0.512248
        19        20        21        57     9      180.000000       -0.240737         4    ;  uncertainty k = 0.304545
        19        20        21        58     9        0.000000        3.550321         1    ;  uncertainty k = 1.153018
        19        20        21        58     9      180.000000        7.158108         2    ;  uncertainty k = 0.637032
        19        20        21        58     9        0.000000        2.732941         3    ;  uncertainty k = 0.512248
        19        20        21        58     9      180.000000       -0.240737         4    ;  uncertainty k = 0.304545
        20        19        18        56     9        0.000000       -0.133763         1    ;  uncertainty k = 0.406868
        20        19        18        56     9      180.000000        8.463368         2    ;  uncertainty k = 0.522334
        20        19        18        56     9        0.000000        1.055474         3    ;  uncertainty k = 0.215693
        20        19        18        56     9      180.000000        1.227618         4    ;  uncertainty k = 0.292964
        22        20        21        57     9        0.000000        4.288278         1    ;  uncertainty k = 0.786452
        22        20        21        57     9      180.000000       11.499130         2    ;  uncertainty k = 0.403752
        22        20        21        57     9        0.000000        2.102366         3    ;  uncertainty k = 0.130474
        22        20        21        57     9      180.000000        0.313821         4    ;  uncertainty k = 0.325036
        22        20        21        58     9        0.000000        4.288278         1    ;  uncertainty k = 0.786452
        22        20        21        58     9      180.000000       11.499130         2    ;  uncertainty k = 0.403752
        22        20        21        58     9        0.000000        2.102366         3    ;  uncertainty k = 0.130474
        22        20        21        58     9      180.000000        0.313821         4    ;  uncertainty k = 0.325036
        23         3         2        25     9        0.000000       -0.054829         1    ;  uncertainty k = 0.301933
        23         3         2        25     9      180.000000       20.636831         2    ;  uncertainty k = 0.632703
        23         3         2        25     9        0.000000       -4.986448         3    ;  uncertainty k = 0.860330
        23         3         2        25     9      180.000000        1.348086         4    ;  uncertainty k = 0.713696
        23         3         4        36     9        0.000000        0.064486         1    ;  uncertainty k = 0.369627
        23         3         4        36     9      180.000000        1.073020         2    ;  uncertainty k = 0.311832
        23         3         4        36     9        0.000000        0.445650         3    ;  uncertainty k = 0.152370
        23         3         4        36     9      180.000000        0.181709         4    ;  uncertainty k = 0.090417
        23         3         4        37     9        0.000000        0.064486         1    ;  uncertainty k = 0.369627
        23         3         4        37     9      180.000000        1.073020         2    ;  uncertainty k = 0.311832
        23         3         4        37     9        0.000000        0.445650         3    ;  uncertainty k = 0.152370
        23         3         4        37     9      180.000000        0.181709         4    ;  uncertainty k = 0.090417
        23        16        15        54     9        0.000000       -0.143110         1    ;  uncertainty k = 0.349183
        23        16        15        54     9      180.000000        7.907545         2    ;  uncertainty k = 0.304139
        23        16        15        54     9        0.000000        0.694985         3    ;  uncertainty k = 0.231205
        23        16        15        54     9      180.000000        1.232533         4    ;  uncertainty k = 0.280602
        23        16        17        55     9        0.000000       -0.099704         1    ;  uncertainty k = 0.318762
        23        16        17        55     9      180.000000        7.486877         2    ;  uncertainty k = 0.240960
        23        16        17        55     9        0.000000        0.734937         3    ;  uncertainty k = 0.238719
        23        16        17        55     9      180.000000        1.147861         4    ;  uncertainty k = 0.284133
        23        24        25        26     9        0.000000        0.486223         1    ;  uncertainty k = 1.099362
        23        24        25        26     9      180.000000        8.715478         2    ;  uncertainty k = 0.609696
        23        24        25        26     9        0.000000        0.906466         3    ;  uncertainty k = 0.971958
        23        24        25        26     9      180.000000        1.462955         4    ;  uncertainty k = 0.283592
        23        24        32        29     9        0.000000       -3.174112         1    ;  uncertainty k = 0.779563
        23        24        32        29     9      180.000000        0.246367         2    ;  uncertainty k = 0.541235
        23        24        32        29     9        0.000000        0.210351         3    ;  uncertainty k = 0.156256
        23        24        32        29     9      180.000000        0.178761         4    ;  uncertainty k = 0.054406
        23        24        32        67     9        0.000000       -0.146279         1    ;  uncertainty k = 0.476983
        23        24        32        67     9      180.000000        1.426171         2    ;  uncertainty k = 0.559112
        23        24        32        67     9        0.000000        0.507201         3    ;  uncertainty k = 0.195712
        23        24        32        67     9      180.000000        0.159041         4    ;  uncertainty k = 0.035696
        23        24        32        68     9        0.000000       -0.146279         1    ;  uncertainty k = 0.476983
        23        24        32        68     9      180.000000        1.426171         2    ;  uncertainty k = 0.559112
        23        24        32        68     9        0.000000        0.507201         3    ;  uncertainty k = 0.195712
        23        24        32        68     9      180.000000        0.159041         4    ;  uncertainty k = 0.035696
        24        25        26        27     9        0.000000        0.267850         1    ;  uncertainty k = 0.434076
        24        25        26        27     9      180.000000        5.596174         2    ;  uncertainty k = 0.479083
        24        25        26        27     9        0.000000        0.525521         3    ;  uncertainty k = 0.209090
        24        25        26        27     9      180.000000       -0.080038         4    ;  uncertainty k = 0.143103
        24        25        26        28     9        0.000000       -0.807203         1    ;  uncertainty k = 1.678478
        24        25        26        28     9      180.000000        3.101737         2    ;  uncertainty k = 0.502701
        24        25        26        28     9        0.000000       -0.584870         3    ;  uncertainty k = 0.363867
        24        25        26        28     9      180.000000        0.407747         4    ;  uncertainty k = 0.104996
        24        32        29        28     9        0.000000       -0.779351         1    ;  uncertainty k = 1.271616
        24        32        29        28     9      180.000000       -0.810022         2    ;  uncertainty k = 0.439293
        24        32        29        28     9        0.000000        1.125399         3    ;  uncertainty k = 0.236290
        24        32        29        28     9      180.000000       -0.565116         4    ;  uncertainty k = 0.070459
        24        32        29        30     9        0.000000       -2.059378         1    ;  uncertainty k = 0.851927
        24        32        29        30     9      180.000000        0.138693         2    ;  uncertainty k = 0.296506
        24        32        29        30     9        0.000000        0.960865         3    ;  uncertainty k = 0.087683
        24        32        29        30     9      180.000000       -0.140925         4    ;  uncertainty k = 0.099251
        24        32        29        31     9        0.000000       -2.059378         1    ;  uncertainty k = 0.851927
        24        32        29        31     9      180.000000        0.138693         2    ;  uncertainty k = 0.296506
        24        32        29        31     9        0.000000        0.960865         3    ;  uncertainty k = 0.087683
        24        32        29        31     9      180.000000       -0.140925         4    ;  uncertainty k = 0.099251
        25         2         1        33     9        0.000000       -0.318821         1    ;  uncertainty k = 0.317395
        25         2         1        33     9      180.000000        2.303151         2    ;  uncertainty k = 0.317882
        25         2         1        33     9        0.000000        0.542512         3    ;  uncertainty k = 0.089295
        25         2         1        33     9      180.000000        0.203216         4    ;  uncertainty k = 0.096951
        25         2         1        34     9        0.000000       -0.318821         1    ;  uncertainty k = 0.317395
        25         2         1        34     9      180.000000        2.303151         2    ;  uncertainty k = 0.317882
        25         2         1        34     9        0.000000        0.542512         3    ;  uncertainty k = 0.089295
        25         2         1        34     9      180.000000        0.203216         4    ;  uncertainty k = 0.096951
        25         2         1        35     9        0.000000       -0.318821         1    ;  uncertainty k = 0.317395
        25         2         1        35     9      180.000000        2.303151         2    ;  uncertainty k = 0.317882
        25         2         1        35     9        0.000000        0.542512         3    ;  uncertainty k = 0.089295
        25         2         1        35     9      180.000000        0.203216         4    ;  uncertainty k = 0.096951
        25        24        32        29     9        0.000000       -5.743625         1    ;  uncertainty k = 0.992785
        25        24        32        29     9      180.000000        3.423295         2    ;  uncertainty k = 0.718952
        25        24        32        29     9        0.000000       -0.241331         3    ;  uncertainty k = 0.408245
        25        24        32        29     9      180.000000       -0.102577         4    ;  uncertainty k = 0.192591
        25        24        32        67     9        0.000000        0.132939         1    ;  uncertainty k = 0.353732
        25        24        32        67     9      180.000000        1.654253         2    ;  uncertainty k = 0.268580
        25        24        32        67     9        0.000000        0.086087         3    ;  uncertainty k = 0.209388
        25        24        32        67     9      180.000000       -0.010768         4    ;  uncertainty k = 0.059037
        25        24        32        68     9        0.000000        0.132939         1    ;  uncertainty k = 0.353732
        25        24        32        68     9      180.000000        1.654253         2    ;  uncertainty k = 0.268580
        25        24        32        68     9        0.000000        0.086087         3    ;  uncertainty k = 0.209388
        25        24        32        68     9      180.000000       -0.010768         4    ;  uncertainty k = 0.059037
        25        26        28        29     9        0.000000       -1.816999         1    ;  uncertainty k = 1.169015
        25        26        28        29     9      180.000000        1.111719         2    ;  uncertainty k = 0.775326
        25        26        28        29     9        0.000000        0.530189         3    ;  uncertainty k = 0.364970
        25        26        28        29     9      180.000000        0.320395         4    ;  uncertainty k = 0.142559
        25        26        28        59     9        0.000000       -2.829393         1    ;  uncertainty k = 0.709562
        25        26        28        59     9      180.000000        2.442710         2    ;  uncertainty k = 0.465671
        25        26        28        59     9        0.000000        0.611080         3    ;  uncertainty k = 0.177240
        25        26        28        59     9      180.000000        0.073930         4    ;  uncertainty k = 0.113308
        25        26        28        60     9        0.000000       -2.829393         1    ;  uncertainty k = 0.709562
        25        26        28        60     9      180.000000        2.442710         2    ;  uncertainty k = 0.465671
        25        26        28        60     9        0.000000        0.611080         3    ;  uncertainty k = 0.177240
        25        26        28        60     9      180.000000        0.073930         4    ;  uncertainty k = 0.113308
        26        25        24        32     9        0.000000       -0.297424         1    ;  uncertainty k = 0.377298
        26        25        24        32     9      180.000000        7.571016         2    ;  uncertainty k = 0.845428
        26        25        24        32     9        0.000000        1.304070         3    ;  uncertainty k = 0.246622
        26        25        24        32     9      180.000000        0.870019         4    ;  uncertainty k = 0.242607
        26        28        29        30     9        0.000000       -3.108042         1    ;  uncertainty k = 1.074988
        26        28        29        30     9      180.000000        0.837403         2    ;  uncertainty k = 0.454399
        26        28        29        30     9        0.000000        0.620633         3    ;  uncertainty k = 0.203581
        26        28        29        30     9      180.000000       -0.175457         4    ;  uncertainty k = 0.135641
        26        28        29        31     9        0.000000       -3.108042         1    ;  uncertainty k = 1.074988
        26        28        29        31     9      180.000000        0.837403         2    ;  uncertainty k = 0.454399
        26        28        29        31     9        0.000000        0.620633         3    ;  uncertainty k = 0.203581
        26        28        29        31     9      180.000000       -0.175457         4    ;  uncertainty k = 0.135641
        26        28        29        32     9        0.000000        4.426180         1    ;  uncertainty k = 2.123988
        26        28        29        32     9      180.000000       -2.017071         2    ;  uncertainty k = 1.183009
        26        28        29        32     9        0.000000       -0.145895         3    ;  uncertainty k = 0.490515
        26        28        29        32     9      180.000000       -0.170555         4    ;  uncertainty k = 0.458127
        27        26        28        29     9        0.000000       -1.651345         1    ;  uncertainty k = 1.529623
        27        26        28        29     9      180.000000        4.493844         2    ;  uncertainty k = 0.895842
        27        26        28        29     9        0.000000        1.248224         3    ;  uncertainty k = 0.555966
        27        26        28        29     9      180.000000        0.499234         4    ;  uncertainty k = 0.193383
        27        26        28        59     9        0.000000        1.807907         1    ;  uncertainty k = 0.733952
        27        26        28        59     9      180.000000        4.455562         2    ;  uncertainty k = 0.196116
        27        26        28        59     9        0.000000        0.423865         3    ;  uncertainty k = 0.105725
        27        26        28        59     9      180.000000        0.189425         4    ;  uncertainty k = 0.055096
        27        26        28        60     9        0.000000        1.807907         1    ;  uncertainty k = 0.733952
        27        26        28        60     9      180.000000        4.455562         2    ;  uncertainty k = 0.196116
        27        26        28        60     9        0.000000        0.423865         3    ;  uncertainty k = 0.105725
        27        26        28        60     9      180.000000        0.189425         4    ;  uncertainty k = 0.055096
        28        29        30        61     9        0.000000       -0.849960         1    ;  uncertainty k = 0.267419
        28        29        30        61     9      180.000000       -0.697110         2    ;  uncertainty k = 0.151027
        28        29        30        61     9        0.000000        0.772063         3    ;  uncertainty k = 0.038120
        28        29        30        61     9      180.000000       -0.185621         4    ;  uncertainty k = 0.075834
        28        29        30        62     9        0.000000       -0.849960         1    ;  uncertainty k = 0.267419
        28        29        30        62     9      180.000000       -0.697110         2    ;  uncertainty k = 0.151027
        28        29        30        62     9        0.000000        0.772063         3    ;  uncertainty k = 0.038120
        28        29        30        62     9      180.000000       -0.185621         4    ;  uncertainty k = 0.075834
        28        29        30        63     9        0.000000       -0.849960         1    ;  uncertainty k = 0.267419
        28        29        30        63     9      180.000000       -0.697110         2    ;  uncertainty k = 0.151027
        28        29        30        63     9        0.000000        0.772063         3    ;  uncertainty k = 0.038120
        28        29        30        63     9      180.000000       -0.185621         4    ;  uncertainty k = 0.075834
        28        29        31        64     9        0.000000       -0.849960         1    ;  uncertainty k = 0.267419
        28        29        31        64     9      180.000000       -0.697110         2    ;  uncertainty k = 0.151027
        28        29        31        64     9        0.000000        0.772063         3    ;  uncertainty k = 0.038120
        28        29        31        64     9      180.000000       -0.185621         4    ;  uncertainty k = 0.075834
        28        29        31        65     9        0.000000       -0.849960         1    ;  uncertainty k = 0.267419
        28        29        31        65     9      180.000000       -0.697110         2    ;  uncertainty k = 0.151027
        28        29        31        65     9        0.000000        0.772063         3    ;  uncertainty k = 0.038120
        28        29        31        65     9      180.000000       -0.185621         4    ;  uncertainty k = 0.075834
        28        29        31        66     9        0.000000       -0.849960         1    ;  uncertainty k = 0.267419
        28        29        31        66     9      180.000000       -0.697110         2    ;  uncertainty k = 0.151027
        28        29        31        66     9        0.000000        0.772063         3    ;  uncertainty k = 0.038120
        28        29        31        66     9      180.000000       -0.185621         4    ;  uncertainty k = 0.075834
        28        29        32        67     9        0.000000       -0.565077         1    ;  uncertainty k = 0.337933
        28        29        32        67     9      180.000000       -0.552917         2    ;  uncertainty k = 0.313964
        28        29        32        67     9        0.000000        0.111029         3    ;  uncertainty k = 0.061469
        28        29        32        67     9      180.000000        0.013508         4    ;  uncertainty k = 0.088562
        28        29        32        68     9        0.000000       -0.565077         1    ;  uncertainty k = 0.337933
        28        29        32        68     9      180.000000       -0.552917         2    ;  uncertainty k = 0.313964
        28        29        32        68     9        0.000000        0.111029         3    ;  uncertainty k = 0.061469
        28        29        32        68     9      180.000000        0.013508         4    ;  uncertainty k = 0.088562
        30        29        28        59     9        0.000000       -0.380879         1    ;  uncertainty k = 0.148987
        30        29        28        59     9      180.000000        0.029116         2    ;  uncertainty k = 0.242309
        30        29        28        59     9        0.000000        0.376394         3    ;  uncertainty k = 0.083406
        30        29        28        59     9      180.000000       -0.141551         4    ;  uncertainty k = 0.073708
        30        29        28        60     9        0.000000       -0.380879         1    ;  uncertainty k = 0.148987
        30        29        28        60     9      180.000000        0.029116         2    ;  uncertainty k = 0.242309
        30        29        28        60     9        0.000000        0.376394         3    ;  uncertainty k = 0.083406
        30        29        28        60     9      180.000000       -0.141551         4    ;  uncertainty k = 0.073708
        30        29        31        64     9        0.000000       -1.100689         1    ;  uncertainty k = 0.262907
        30        29        31        64     9      180.000000       -0.104141         2    ;  uncertainty k = 0.144225
        30        29        31        64     9        0.000000        0.812856         3    ;  uncertainty k = 0.036112
        30        29        31        64     9      180.000000       -0.129298         4    ;  uncertainty k = 0.042322
        30        29        31        65     9        0.000000       -1.100689         1    ;  uncertainty k = 0.262907
        30        29        31        65     9      180.000000       -0.104141         2    ;  uncertainty k = 0.144225
        30        29        31        65     9        0.000000        0.812856         3    ;  uncertainty k = 0.036112
        30        29        31        65     9      180.000000       -0.129298         4    ;  uncertainty k = 0.042322
        30        29        31        66     9        0.000000       -1.100689         1    ;  uncertainty k = 0.262907
        30        29        31        66     9      180.000000       -0.104141         2    ;  uncertainty k = 0.144225
        30        29        31        66     9        0.000000        0.812856         3    ;  uncertainty k = 0.036112
        30        29        31        66     9      180.000000       -0.129298         4    ;  uncertainty k = 0.042322
        30        29        32        67     9        0.000000       -0.345052         1    ;  uncertainty k = 0.164725
        30        29        32        67     9      180.000000       -0.042992         2    ;  uncertainty k = 0.303596
        30        29        32        67     9        0.000000        0.449839         3    ;  uncertainty k = 0.094580
        30        29        32        67     9      180.000000       -0.101076         4    ;  uncertainty k = 0.068895
        30        29        32        68     9        0.000000       -0.345052         1    ;  uncertainty k = 0.164725
        30        29        32        68     9      180.000000       -0.042992         2    ;  uncertainty k = 0.303596
        30        29        32        68     9        0.000000        0.449839         3    ;  uncertainty k = 0.094580
        30        29        32        68     9      180.000000       -0.101076         4    ;  uncertainty k = 0.068895
        31        29        28        59     9        0.000000       -0.380879         1    ;  uncertainty k = 0.148987
        31        29        28        59     9      180.000000        0.029116         2    ;  uncertainty k = 0.242309
        31        29        28        59     9        0.000000        0.376394         3    ;  uncertainty k = 0.083406
        31        29        28        59     9      180.000000       -0.141551         4    ;  uncertainty k = 0.073708
        31        29        28        60     9        0.000000       -0.380879         1    ;  uncertainty k = 0.148987
        31        29        28        60     9      180.000000        0.029116         2    ;  uncertainty k = 0.242309
        31        29        28        60     9        0.000000        0.376394         3    ;  uncertainty k = 0.083406
        31        29        28        60     9      180.000000       -0.141551         4    ;  uncertainty k = 0.073708
        31        29        30        61     9        0.000000       -1.100689         1    ;  uncertainty k = 0.262907
        31        29        30        61     9      180.000000       -0.104141         2    ;  uncertainty k = 0.144225
        31        29        30        61     9        0.000000        0.812856         3    ;  uncertainty k = 0.036112
        31        29        30        61     9      180.000000       -0.129298         4    ;  uncertainty k = 0.042322
        31        29        30        62     9        0.000000       -1.100689         1    ;  uncertainty k = 0.262907
        31        29        30        62     9      180.000000       -0.104141         2    ;  uncertainty k = 0.144225
        31        29        30        62     9        0.000000        0.812856         3    ;  uncertainty k = 0.036112
        31        29        30        62     9      180.000000       -0.129298         4    ;  uncertainty k = 0.042322
        31        29        30        63     9        0.000000       -1.100689         1    ;  uncertainty k = 0.262907
        31        29        30        63     9      180.000000       -0.104141         2    ;  uncertainty k = 0.144225
        31        29        30        63     9        0.000000        0.812856         3    ;  uncertainty k = 0.036112
        31        29        30        63     9      180.000000       -0.129298         4    ;  uncertainty k = 0.042322
        31        29        32        67     9        0.000000       -0.345052         1    ;  uncertainty k = 0.164725
        31        29        32        67     9      180.000000       -0.042992         2    ;  uncertainty k = 0.303596
        31        29        32        67     9        0.000000        0.449839         3    ;  uncertainty k = 0.094580
        31        29        32        67     9      180.000000       -0.101076         4    ;  uncertainty k = 0.068895
        31        29        32        68     9        0.000000       -0.345052         1    ;  uncertainty k = 0.164725
        31        29        32        68     9      180.000000       -0.042992         2    ;  uncertainty k = 0.303596
        31        29        32        68     9        0.000000        0.449839         3    ;  uncertainty k = 0.094580
        31        29        32        68     9      180.000000       -0.101076         4    ;  uncertainty k = 0.068895
        32        29        28        59     9        0.000000       -0.493419         1    ;  uncertainty k = 0.248638
        32        29        28        59     9      180.000000       -0.717372         2    ;  uncertainty k = 0.190838
        32        29        28        59     9        0.000000       -0.027739         3    ;  uncertainty k = 0.072348
        32        29        28        59     9      180.000000       -0.010183         4    ;  uncertainty k = 0.107964
        32        29        28        60     9        0.000000       -0.493419         1    ;  uncertainty k = 0.248638
        32        29        28        60     9      180.000000       -0.717372         2    ;  uncertainty k = 0.190838
        32        29        28        60     9        0.000000       -0.027739         3    ;  uncertainty k = 0.072348
        32        29        28        60     9      180.000000       -0.010183         4    ;  uncertainty k = 0.107964
        32        29        30        61     9        0.000000       -0.498537         1    ;  uncertainty k = 0.143112
        32        29        30        61     9      180.000000       -0.848272         2    ;  uncertainty k = 0.184452
        32        29        30        61     9        0.000000        0.727631         3    ;  uncertainty k = 0.102119
        32        29        30        61     9      180.000000       -0.161619         4    ;  uncertainty k = 0.028801
        32        29        30        62     9        0.000000       -0.498537         1    ;  uncertainty k = 0.143112
        32        29        30        62     9      180.000000       -0.848272         2    ;  uncertainty k = 0.184452
        32        29        30        62     9        0.000000        0.727631         3    ;  uncertainty k = 0.102119
        32        29        30        62     9      180.000000       -0.161619         4    ;  uncertainty k = 0.028801
        32        29        30        63     9        0.000000       -0.498537         1    ;  uncertainty k = 0.143112
        32        29        30        63     9      180.000000       -0.848272         2    ;  uncertainty k = 0.184452
        32        29        30        63     9        0.000000        0.727631         3    ;  uncertainty k = 0.102119
        32        29        30        63     9      180.000000       -0.161619         4    ;  uncertainty k = 0.028801
        32        29        31        64     9        0.000000       -0.498537         1    ;  uncertainty k = 0.143112
        32        29        31        64     9      180.000000       -0.848272         2    ;  uncertainty k = 0.184452
        32        29        31        64     9        0.000000        0.727631         3    ;  uncertainty k = 0.102119
        32        29        31        64     9      180.000000       -0.161619         4    ;  uncertainty k = 0.028801
        32        29        31        65     9        0.000000       -0.498537         1    ;  uncertainty k = 0.143112
        32        29        31        65     9      180.000000       -0.848272         2    ;  uncertainty k = 0.184452
        32        29        31        65     9        0.000000        0.727631         3    ;  uncertainty k = 0.102119
        32        29        31        65     9      180.000000       -0.161619         4    ;  uncertainty k = 0.028801
        32        29        31        66     9        0.000000       -0.498537         1    ;  uncertainty k = 0.143112
        32        29        31        66     9      180.000000       -0.848272         2    ;  uncertainty k = 0.184452
        32        29        31        66     9        0.000000        0.727631         3    ;  uncertainty k = 0.102119
        32        29        31        66     9      180.000000       -0.161619         4    ;  uncertainty k = 0.028801
        36         4         5        38     9        0.000000        0.842498         1    ;  uncertainty k = 0.238840
        36         4         5        38     9      180.000000       -0.367058         2    ;  uncertainty k = 0.286612
        36         4         5        38     9        0.000000        0.233175         3    ;  uncertainty k = 0.066987
        36         4         5        38     9      180.000000        0.088439         4    ;  uncertainty k = 0.042721
        36         4         5        39     9        0.000000        0.842498         1    ;  uncertainty k = 0.238840
        36         4         5        39     9      180.000000       -0.367058         2    ;  uncertainty k = 0.286612
        36         4         5        39     9        0.000000        0.233175         3    ;  uncertainty k = 0.066987
        36         4         5        39     9      180.000000        0.088439         4    ;  uncertainty k = 0.042721
        37         4         5        38     9        0.000000        0.842498         1    ;  uncertainty k = 0.238840
        37         4         5        38     9      180.000000       -0.367058         2    ;  uncertainty k = 0.286612
        37         4         5        38     9        0.000000        0.233175         3    ;  uncertainty k = 0.066987
        37         4         5        38     9      180.000000        0.088439         4    ;  uncertainty k = 0.042721
        37         4         5        39     9        0.000000        0.842498         1    ;  uncertainty k = 0.238840
        37         4         5        39     9      180.000000       -0.367058         2    ;  uncertainty k = 0.286612
        37         4         5        39     9        0.000000        0.233175         3    ;  uncertainty k = 0.066987
        37         4         5        39     9      180.000000        0.088439         4    ;  uncertainty k = 0.042721
        38         5         6        40     9        0.000000        0.494792         1    ;  uncertainty k = 0.318004
        38         5         6        40     9      180.000000        0.067257         2    ;  uncertainty k = 0.433431
        38         5         6        40     9        0.000000        0.092257         3    ;  uncertainty k = 0.115320
        38         5         6        40     9      180.000000        0.014309         4    ;  uncertainty k = 0.060980
        38         5         6        41     9        0.000000        0.494792         1    ;  uncertainty k = 0.318004
        38         5         6        41     9      180.000000        0.067257         2    ;  uncertainty k = 0.433431
        38         5         6        41     9        0.000000        0.092257         3    ;  uncertainty k = 0.115320
        38         5         6        41     9      180.000000        0.014309         4    ;  uncertainty k = 0.060980
        39         5         6        40     9        0.000000        0.494792         1    ;  uncertainty k = 0.318004
        39         5         6        40     9      180.000000        0.067257         2    ;  uncertainty k = 0.433431
        39         5         6        40     9        0.000000        0.092257         3    ;  uncertainty k = 0.115320
        39         5         6        40     9      180.000000        0.014309         4    ;  uncertainty k = 0.060980
        39         5         6        41     9        0.000000        0.494792         1    ;  uncertainty k = 0.318004
        39         5         6        41     9      180.000000        0.067257         2    ;  uncertainty k = 0.433431
        39         5         6        41     9        0.000000        0.092257         3    ;  uncertainty k = 0.115320
        39         5         6        41     9      180.000000        0.014309         4    ;  uncertainty k = 0.060980
        40         6         7        42     9        0.000000        0.317124         1    ;  uncertainty k = 0.672343
        40         6         7        42     9      180.000000       -0.340511         2    ;  uncertainty k = 0.206401
        40         6         7        42     9        0.000000        0.310216         3    ;  uncertainty k = 0.051930
        40         6         7        42     9      180.000000        0.041494         4    ;  uncertainty k = 0.097952
        40         6         7        69     9        0.000000        0.317124         1    ;  uncertainty k = 0.672343
        40         6         7        69     9      180.000000       -0.340511         2    ;  uncertainty k = 0.206401
        40         6         7        69     9        0.000000        0.310216         3    ;  uncertainty k = 0.051930
        40         6         7        69     9      180.000000        0.041494         4    ;  uncertainty k = 0.097952
        41         6         7        42     9        0.000000        0.317124         1    ;  uncertainty k = 0.672343
        41         6         7        42     9      180.000000       -0.340511         2    ;  uncertainty k = 0.206401
        41         6         7        42     9        0.000000        0.310216         3    ;  uncertainty k = 0.051930
        41         6         7        42     9      180.000000        0.041494         4    ;  uncertainty k = 0.097952
        41         6         7        69     9        0.000000        0.317124         1    ;  uncertainty k = 0.672343
        41         6         7        69     9      180.000000       -0.340511         2    ;  uncertainty k = 0.206401
        41         6         7        69     9        0.000000        0.310216         3    ;  uncertainty k = 0.051930
        41         6         7        69     9      180.000000        0.041494         4    ;  uncertainty k = 0.097952
        42         7         8        43     9        0.000000        0.294039         1    ;  uncertainty k = 0.880337
        42         7         8        43     9      180.000000       -0.273097         2    ;  uncertainty k = 0.273317
        42         7         8        43     9        0.000000        0.311782         3    ;  uncertainty k = 0.104603
        42         7         8        43     9      180.000000        0.037850         4    ;  uncertainty k = 0.125224
        42         7         8        44     9        0.000000        0.294039         1    ;  uncertainty k = 0.880337
        42         7         8        44     9      180.000000       -0.273097         2    ;  uncertainty k = 0.273317
        42         7         8        44     9        0.000000        0.311782         3    ;  uncertainty k = 0.104603
        42         7         8        44     9      180.000000        0.037850         4    ;  uncertainty k = 0.125224
        43         8         7        69     9        0.000000        0.294039         1    ;  uncertainty k = 0.880337
        43         8         7        69     9      180.000000       -0.273097         2    ;  uncertainty k = 0.273317
        43         8         7        69     9        0.000000        0.311782         3    ;  uncertainty k = 0.104603
        43         8         7        69     9      180.000000        0.037850         4    ;  uncertainty k = 0.125224
        44         8         7        69     9        0.000000        0.294039         1    ;  uncertainty k = 0.880337
        44         8         7        69     9      180.000000       -0.273097         2    ;  uncertainty k = 0.273317
        44         8         7        69     9        0.000000        0.311782         3    ;  uncertainty k = 0.104603
        44         8         7        69     9      180.000000        0.037850         4    ;  uncertainty k = 0.125224
        51        12        13        53     9        0.000000        2.277557         1    ;  uncertainty k = 0.524147
        51        12        13        53     9      180.000000       -1.961611         2    ;  uncertainty k = 0.180725
        51        12        13        53     9        0.000000        0.157192         3    ;  uncertainty k = 0.055800
        51        12        13        53     9      180.000000        0.093762         4    ;  uncertainty k = 0.042672
        52        12        13        53     9        0.000000        2.277557         1    ;  uncertainty k = 0.524147
        52        12        13        53     9      180.000000       -1.961611         2    ;  uncertainty k = 0.180725
        52        12        13        53     9        0.000000        0.157192         3    ;  uncertainty k = 0.055800
        52        12        13        53     9      180.000000        0.093762         4    ;  uncertainty k = 0.042672
        55        17        18        56     9        0.000000       -0.161457         1    ;  uncertainty k = 0.314301
        55        17        18        56     9      180.000000        7.599374         2    ;  uncertainty k = 0.529227
        55        17        18        56     9        0.000000       -0.373990         3    ;  uncertainty k = 0.212621
        55        17        18        56     9      180.000000        0.361659         4    ;  uncertainty k = 0.257633

[ dihedrals ] ; impropers
;       ai        aj        ak        al funct           phase               k        pn
         2         1         3        25     4      180.000000        6.760364         2    ;  uncertainty k = 0.228144
         2         3        25         1     4      180.000000        6.760364         2    ;  uncertainty k = 0.228144
         2        25         1         3     4      180.000000        6.760364         2    ;  uncertainty k = 0.228144
         3         2         4        23     4      180.000000        3.356525         2    ;  uncertainty k = 0.379597
         3         4        23         2     4      180.000000        3.356525         2    ;  uncertainty k = 0.379597
         3        23         2         4     4      180.000000        3.356525         2    ;  uncertainty k = 0.379597
        13        12        14        53     4      180.000000        0.269481         2    ;  uncertainty k = 0.602577
        13        14        53        12     4      180.000000        0.269481         2    ;  uncertainty k = 0.602577
        13        53        12        14     4      180.000000        0.269481         2    ;  uncertainty k = 0.602577
        14        13        15        19     4      180.000000       25.131580         2    ;  uncertainty k = 0.103706
        14        15        19        13     4      180.000000       25.131580         2    ;  uncertainty k = 0.103706
        14        19        13        15     4      180.000000       25.131580         2    ;  uncertainty k = 0.103706
        15        14        16        54     4      180.000000        1.875058         2    ;  uncertainty k = 0.511393
        15        16        54        14     4      180.000000        1.875058         2    ;  uncertainty k = 0.511393
        15        54        14        16     4      180.000000        1.875058         2    ;  uncertainty k = 0.511393
        16        15        17        23     4      180.000000       17.365713         2    ;  uncertainty k = 0.027232
        16        17        23        15     4      180.000000       17.365713         2    ;  uncertainty k = 0.027232
        16        23        15        17     4      180.000000       17.365713         2    ;  uncertainty k = 0.027232
        17        16        18        55     4      180.000000        1.764889         2    ;  uncertainty k = 0.320932
        17        18        55        16     4      180.000000        1.764889         2    ;  uncertainty k = 0.320932
        17        55        16        18     4      180.000000        1.764889         2    ;  uncertainty k = 0.320932
        18        17        19        56     4      180.000000        4.670372         2    ;  uncertainty k = 0.321152
        18        19        56        17     4      180.000000        4.670372         2    ;  uncertainty k = 0.321152
        18        56        17        19     4      180.000000        4.670372         2    ;  uncertainty k = 0.321152
        19        14        18        20     4      180.000000        6.590338         2    ;  uncertainty k = 0.328495
        19        18        20        14     4      180.000000        6.590338         2    ;  uncertainty k = 0.328495
        19        20        14        18     4      180.000000        6.590338         2    ;  uncertainty k = 0.328495
        20        19        21        22     4      180.000000       54.303312         2    ;  uncertainty k = 0.052982
        20        21        22        19     4      180.000000       54.303312         2    ;  uncertainty k = 0.052982
        20        22        19        21     4      180.000000       54.303312         2    ;  uncertainty k = 0.052982
        23         3        16        24     4      180.000000        1.653401         2    ;  uncertainty k = 1.042382
        23        16        24         3     4      180.000000        1.653401         2    ;  uncertainty k = 1.042382
        23        24         3        16     4      180.000000        1.653401         2    ;  uncertainty k = 1.042382
        24        23        25        32     4      180.000000        6.726894         2    ;  uncertainty k = 0.212828
        24        25        32        23     4      180.000000        6.726894         2    ;  uncertainty k = 0.212828
        24        32        23        25     4      180.000000        6.726894         2    ;  uncertainty k = 0.212828
        26        25        27        28     4      180.000000       55.461398         2    ;  uncertainty k = 0.044608
        26        27        28        25     4      180.000000       55.461398         2    ;  uncertainty k = 0.044608
        26        28        25        27     4      180.000000       55.461398         2    ;  uncertainty k = 0.044608

[ pairs ]
;       ai        aj funct
         1         4     1
         1        23     1
         1        24     1
         1        26     1
         2         5     1
         2        16     1
         2        27     1
         2        28     1
         2        32     1
         2        36     1
         2        37     1
         3         6     1
         3        15     1
         3        17     1
         3        26     1
         3        32     1
         3        33     1
         3        34     1
         3        35     1
         3        38     1
         3        39     1
         4         7     1
         4        16     1
         4        24     1
         4        25     1
         4        40     1
         4        41     1
         5         8     1
         5        23     1
         5        42     1
         5        69     1
         6         9     1
         6        36     1
         6        37     1
         6        43     1
         6        44     1
         7        10     1
         7        11     1
         7        12     1
         7        38     1
         7        39     1
         8        13     1
         8        40     1
         8        41     1
         8        45     1
         8        46     1
         8        47     1
         8        48     1
         8        49     1
         8        50     1
         8        51     1
         8        52     1
         9        14     1
         9        42     1
         9        53     1
         9        69     1
        10        13     1
        10        43     1
        10        44     1
        10        48     1
        10        49     1
        10        50     1
        10        51     1
        10        52     1
        11        13     1
        11        43     1
        11        44     1
        11        45     1
        11        46     1
        11        47     1
        11        51     1
        11        52     1
        12        15     1
        12        19     1
        12        43     1
        12        44     1
        12        45     1
        12        46     1
        12        47     1
        12        48     1
        12        49     1
        12        50     1
        13        16     1
        13        18     1
        13        20     1
        13        54     1
        14        17     1
        14        21     1
        14        22     1
        14        23     1
        14        51     1
        14        52     1
        14        56     1
        15        18     1
        15        20     1
        15        24     1
        15        53     1
        15        55     1
        16        19     1
        16        25     1
        16        32     1
        16        56     1
        17        20     1
        17        24     1
        17        54     1
        18        21     1
        18        22     1
        18        23     1
        19        53     1
        19        54     1
        19        55     1
        19        57     1
        19        58     1
        20        56     1
        22        57     1
        22        58     1
        23        26     1
        23        29     1
        23        36     1
        23        37     1
        23        54     1
        23        55     1
        23        67     1
        23        68     1
        24        27     1
        24        28     1
        24        30     1
        24        31     1
        25        29     1
        25        33     1
        25        34     1
        25        35     1
        25        59     1
        25        60     1
        25        67     1
        25        68     1
        26        30     1
        26        31     1
        26        32     1
        27        29     1
        27        59     1
        27        60     1
        28        61     1
        28        62     1
        28        63     1
        28        64     1
        28        65     1
        28        66     1
        28        67     1
        28        68     1
        30        59     1
        30        60     1
        30        64     1
        30        65     1
        30        66     1
        30        67     1
        30        68     1
        31        59     1
        31        60     1
        31        61     1
        31        62     1
        31        63     1
        31        67     1
        31        68     1
        32        59     1
        32        60     1
        32        61     1
        32        62     1
        32        63     1
        32        64     1
        32        65     1
        32        66     1
        36        38     1
        36        39     1
        37        38     1
        37        39     1
        38        40     1
        38        41     1
        39        40     1
        39        41     1
        40        42     1
        40        69     1
        41        42     1
        41        69     1
        42        43     1
        42        44     1
        43        69     1
        44        69     1
        51        53     1
        52        53     1
        55        56     1
