; ITP file created by ByteFF-joint-25, 2025-07-14 11:32:30.257925

[ atomtypes ]
;name           bonded.type        at.num        mass        charge   ptype           sigma         epsilon
 c0bf                                   6      0.0000       0.00000       A     3.39771e-01     4.50975e-01    ;  uncertainty sigma = 0.000006, epsilon = 0.000758
 c1bf                                   6      0.0000       0.00000       A     3.31510e-01     4.12859e-01    ;  uncertainty sigma = 0.000006, epsilon = 0.000790
 c2bf                                   6      0.0000       0.00000       A     3.31597e-01     4.12957e-01    ;  uncertainty sigma = 0.000032, epsilon = 0.000988
 c3bf                                   6      0.0000       0.00000       A     3.39747e-01     4.49950e-01    ;  uncertainty sigma = 0.000035, epsilon = 0.001675
 c4bf                                   6      0.0000       0.00000       A     3.39731e-01     4.51653e-01    ;  uncertainty sigma = 0.000014, epsilon = 0.001394
 n5bf                                   7      0.0000       0.00000       A     2.68029e-01     7.08052e+00    ;  uncertainty sigma = 0.000095, epsilon = 0.014910
 c6bf                                   6      0.0000       0.00000       A     3.39755e-01     4.51921e-01    ;  uncertainty sigma = 0.000018, epsilon = 0.001238
 c7bf                                   6      0.0000       0.00000       A     3.39742e-01     4.50925e-01    ;  uncertainty sigma = 0.000034, epsilon = 0.002011
 n8bf                                   7      0.0000       0.00000       A     3.27878e-01     6.40482e-01    ;  uncertainty sigma = 0.000077, epsilon = 0.007987
 c9bf                                   6      0.0000       0.00000       A     3.31591e-01     4.13024e-01    ;  uncertainty sigma = 0.000036, epsilon = 0.001042
 c10bf                                  6      0.0000       0.00000       A     3.31530e-01     4.13416e-01    ;  uncertainty sigma = 0.000012, epsilon = 0.001150
 c11bf                                  6      0.0000       0.00000       A     3.31548e-01     4.13199e-01    ;  uncertainty sigma = 0.000012, epsilon = 0.001174
 c12bf                                  6      0.0000       0.00000       A     3.31527e-01     4.13250e-01    ;  uncertainty sigma = 0.000006, epsilon = 0.000602
 c13bf                                  6      0.0000       0.00000       A     3.31513e-01     4.13571e-01    ;  uncertainty sigma = 0.000004, epsilon = 0.001064
 c14bf                                  6      0.0000       0.00000       A     3.31514e-01     4.12958e-01    ;  uncertainty sigma = 0.000020, epsilon = 0.001944
 c15bf                                  6      0.0000       0.00000       A     3.31599e-01     4.13237e-01    ;  uncertainty sigma = 0.000040, epsilon = 0.000629
 n16bf                                  7      0.0000       0.00000       A     3.36058e-01     3.53914e-01    ;  uncertainty sigma = 0.000035, epsilon = 0.002199
 o17bf                                  8      0.0000       0.00000       A     3.04824e-01     6.12666e-01    ;  uncertainty sigma = 0.000020, epsilon = 0.001529
 n18bf                                  7      0.0000       0.00000       A     3.20634e-01     8.55995e-01    ;  uncertainty sigma = 0.000042, epsilon = 0.001834
 c19bf                                  6      0.0000       0.00000       A     3.31491e-01     4.12753e-01    ;  uncertainty sigma = 0.000011, epsilon = 0.001565
 c20bf                                  6      0.0000       0.00000       A     3.31525e-01     4.12979e-01    ;  uncertainty sigma = 0.000017, epsilon = 0.000933
 c21bf                                  6      0.0000       0.00000       A     3.31520e-01     4.13800e-01    ;  uncertainty sigma = 0.000012, epsilon = 0.000860
 o22bf                                  8      0.0000       0.00000       A     3.04813e-01     6.11403e-01    ;  uncertainty sigma = 0.000026, epsilon = 0.002112
 c23bf                                  6      0.0000       0.00000       A     3.39794e-01     4.50514e-01    ;  uncertainty sigma = 0.000014, epsilon = 0.001647
 c24bf                                  6      0.0000       0.00000       A     3.39757e-01     4.49586e-01    ;  uncertainty sigma = 0.000020, epsilon = 0.001126
 c25bf                                  6      0.0000       0.00000       A     3.39753e-01     4.50877e-01    ;  uncertainty sigma = 0.000007, epsilon = 0.000776
 c26bf                                  6      0.0000       0.00000       A     3.39753e-01     4.50877e-01    ;  uncertainty sigma = 0.000007, epsilon = 0.000776
 c27bf                                  6      0.0000       0.00000       A     3.39763e-01     4.50525e-01    ;  uncertainty sigma = 0.000013, epsilon = 0.000867
 h28bf                                  1      0.0000       0.00000       A     2.60040e-01     8.67373e-02    ;  uncertainty sigma = 0.000006, epsilon = 0.000499
 h29bf                                  1      0.0000       0.00000       A     2.60040e-01     8.67373e-02    ;  uncertainty sigma = 0.000006, epsilon = 0.000499
 h30bf                                  1      0.0000       0.00000       A     2.60040e-01     8.67373e-02    ;  uncertainty sigma = 0.000006, epsilon = 0.000499
 h31bf                                  1      0.0000       0.00000       A     2.59879e-01     8.63412e-02    ;  uncertainty sigma = 0.000070, epsilon = 0.001832
 h32bf                                  1      0.0000       0.00000       A     2.59879e-01     8.63412e-02    ;  uncertainty sigma = 0.000070, epsilon = 0.001832
 h33bf                                  1      0.0000       0.00000       A     1.88742e-01     8.61536e-02    ;  uncertainty sigma = 0.000064, epsilon = 0.000890
 h34bf                                  1      0.0000       0.00000       A     1.88742e-01     8.61536e-02    ;  uncertainty sigma = 0.000064, epsilon = 0.000890
 h35bf                                  1      0.0000       0.00000       A     1.10653e-01     4.17845e-02    ;  uncertainty sigma = 0.000102, epsilon = 0.001274
 h36bf                                  1      0.0000       0.00000       A     1.88825e-01     8.62731e-02    ;  uncertainty sigma = 0.000081, epsilon = 0.000834
 h37bf                                  1      0.0000       0.00000       A     1.88825e-01     8.62731e-02    ;  uncertainty sigma = 0.000081, epsilon = 0.000834
 h38bf                                  1      0.0000       0.00000       A     2.42305e-01     8.67723e-02    ;  uncertainty sigma = 0.000138, epsilon = 0.001988
 h39bf                                  1      0.0000       0.00000       A     2.42305e-01     8.67723e-02    ;  uncertainty sigma = 0.000138, epsilon = 0.001988
 h40bf                                  1      0.0000       0.00000       A     1.10748e-01     4.29832e-02    ;  uncertainty sigma = 0.000165, epsilon = 0.001729
 h41bf                                  1      0.0000       0.00000       A     2.62548e-01     6.72475e-02    ;  uncertainty sigma = 0.000011, epsilon = 0.000588
 h42bf                                  1      0.0000       0.00000       A     2.62564e-01     6.71433e-02    ;  uncertainty sigma = 0.000012, epsilon = 0.000557
 h43bf                                  1      0.0000       0.00000       A     2.62564e-01     6.72868e-02    ;  uncertainty sigma = 0.000007, epsilon = 0.000873
 h44bf                                  1      0.0000       0.00000       A     1.10644e-01     4.14126e-02    ;  uncertainty sigma = 0.000051, epsilon = 0.000340
 h45bf                                  1      0.0000       0.00000       A     1.10644e-01     4.14126e-02    ;  uncertainty sigma = 0.000051, epsilon = 0.000340
 h46bf                                  1      0.0000       0.00000       A     2.60008e-01     8.64859e-02    ;  uncertainty sigma = 0.000016, epsilon = 0.000908
 h47bf                                  1      0.0000       0.00000       A     2.60008e-01     8.64859e-02    ;  uncertainty sigma = 0.000016, epsilon = 0.000908
 h48bf                                  1      0.0000       0.00000       A     2.60029e-01     8.67429e-02    ;  uncertainty sigma = 0.000008, epsilon = 0.000383
 h49bf                                  1      0.0000       0.00000       A     2.60029e-01     8.67429e-02    ;  uncertainty sigma = 0.000008, epsilon = 0.000383
 h50bf                                  1      0.0000       0.00000       A     2.60029e-01     8.67429e-02    ;  uncertainty sigma = 0.000008, epsilon = 0.000383
 h51bf                                  1      0.0000       0.00000       A     2.60029e-01     8.67429e-02    ;  uncertainty sigma = 0.000008, epsilon = 0.000383
 h52bf                                  1      0.0000       0.00000       A     2.60029e-01     8.67429e-02    ;  uncertainty sigma = 0.000008, epsilon = 0.000383
 h53bf                                  1      0.0000       0.00000       A     2.60029e-01     8.67429e-02    ;  uncertainty sigma = 0.000008, epsilon = 0.000383
 h54bf                                  1      0.0000       0.00000       A     2.60047e-01     8.64225e-02    ;  uncertainty sigma = 0.000017, epsilon = 0.000968
 h55bf                                  1      0.0000       0.00000       A     2.60047e-01     8.64225e-02    ;  uncertainty sigma = 0.000017, epsilon = 0.000968
 h56bf                                  1      0.0000       0.00000       A     1.10653e-01     4.17845e-02    ;  uncertainty sigma = 0.000102, epsilon = 0.001274

[ moleculetype ]
;name             nrexcl
 MOL                   3

[ atoms ]
;       nr            type      resi   res      atom      cgnr      charge          mass ; qtot
         1            c0bf         1   UNL        c0         1    -0.02684       12.0110 ; qtot   -0.027
         2            c1bf         1   UNL        c1         2    -0.00995       12.0110 ; qtot   -0.037
         3            c2bf         1   UNL        c2         3    -0.17967       12.0110 ; qtot   -0.216
         4            c3bf         1   UNL        c3         4    -0.00318       12.0110 ; qtot   -0.220
         5            c4bf         1   UNL        c4         5     0.14520       12.0110 ; qtot   -0.074
         6            n5bf         1   UNL        n5         6    -0.79210       14.0070 ; qtot   -0.867
         7            c6bf         1   UNL        c6         7     0.12052       12.0110 ; qtot   -0.746
         8            c7bf         1   UNL        c7         8     0.19550       12.0110 ; qtot   -0.551
         9            n8bf         1   UNL        n8         9    -0.76516       14.0070 ; qtot   -1.316
        10            c9bf         1   UNL        c9        10     0.22211       12.0110 ; qtot   -1.094
        11           c10bf         1   UNL       c10        11    -0.21070       12.0110 ; qtot   -1.304
        12           c11bf         1   UNL       c11        12     0.04677       12.0110 ; qtot   -1.257
        13           c12bf         1   UNL       c12        13    -0.17072       12.0110 ; qtot   -1.428
        14           c13bf         1   UNL       c13        14    -0.03284       12.0110 ; qtot   -1.461
        15           c14bf         1   UNL       c14        15    -0.23331       12.0110 ; qtot   -1.694
        16           c15bf         1   UNL       c15        16     0.67214       12.0110 ; qtot   -1.022
        17           n16bf         1   UNL       n16        17    -0.64971       14.0070 ; qtot   -1.672
        18           o17bf         1   UNL       o17        18    -0.62602       15.9990 ; qtot   -2.298
        19           n18bf         1   UNL       n18        19     0.02809       14.0070 ; qtot   -2.270
        20           c19bf         1   UNL       c19        20    -0.02455       12.0110 ; qtot   -2.294
        21           c20bf         1   UNL       c20        21    -0.25466       12.0110 ; qtot   -2.549
        22           c21bf         1   UNL       c21        22     0.61468       12.0110 ; qtot   -1.934
        23           o22bf         1   UNL       o22        23    -0.54925       15.9990 ; qtot   -2.484
        24           c23bf         1   UNL       c23        24    -0.16833       12.0110 ; qtot   -2.652
        25           c24bf         1   UNL       c24        25    -0.03637       12.0110 ; qtot   -2.688
        26           c25bf         1   UNL       c25        26    -0.09136       12.0110 ; qtot   -2.780
        27           c26bf         1   UNL       c26        27    -0.09136       12.0110 ; qtot   -2.871
        28           c27bf         1   UNL       c27        28    -0.01611       12.0110 ; qtot   -2.887
        29           h28bf         1   UNL       h28        29     0.04765        1.0080 ; qtot   -2.840
        30           h29bf         1   UNL       h29        30     0.04765        1.0080 ; qtot   -2.792
        31           h30bf         1   UNL       h30        31     0.04765        1.0080 ; qtot   -2.744
        32           h31bf         1   UNL       h31        32     0.08660        1.0080 ; qtot   -2.658
        33           h32bf         1   UNL       h32        33     0.08660        1.0080 ; qtot   -2.571
        34           h33bf         1   UNL       h33        34     0.11293        1.0080 ; qtot   -2.458
        35           h34bf         1   UNL       h34        35     0.11293        1.0080 ; qtot   -2.345
        36           h35bf         1   UNL       h35        36     0.47087        1.0080 ; qtot   -1.874
        37           h36bf         1   UNL       h36        37     0.11099        1.0080 ; qtot   -1.763
        38           h37bf         1   UNL       h37        38     0.11099        1.0080 ; qtot   -1.652
        39           h38bf         1   UNL       h38        39     0.08209        1.0080 ; qtot   -1.570
        40           h39bf         1   UNL       h39        40     0.08209        1.0080 ; qtot   -1.488
        41           h40bf         1   UNL       h40        41     0.45315        1.0080 ; qtot   -1.035
        42           h41bf         1   UNL       h41        42     0.15085        1.0080 ; qtot   -0.884
        43           h42bf         1   UNL       h42        43     0.15359        1.0080 ; qtot   -0.731
        44           h43bf         1   UNL       h43        44     0.14524        1.0080 ; qtot   -0.585
        45           h44bf         1   UNL       h44        45     0.31237        1.0080 ; qtot   -0.273
        46           h45bf         1   UNL       h45        46     0.31237        1.0080 ; qtot    0.039
        47           h46bf         1   UNL       h46        47     0.06783        1.0080 ; qtot    0.107
        48           h47bf         1   UNL       h47        48     0.06783        1.0080 ; qtot    0.175
        49           h48bf         1   UNL       h48        49     0.03873        1.0080 ; qtot    0.214
        50           h49bf         1   UNL       h49        50     0.03873        1.0080 ; qtot    0.253
        51           h50bf         1   UNL       h50        51     0.03873        1.0080 ; qtot    0.291
        52           h51bf         1   UNL       h51        52     0.03873        1.0080 ; qtot    0.330
        53           h52bf         1   UNL       h52        53     0.03873        1.0080 ; qtot    0.369
        54           h53bf         1   UNL       h53        54     0.03873        1.0080 ; qtot    0.407
        55           h54bf         1   UNL       h54        55     0.06082        1.0080 ; qtot    0.468
        56           h55bf         1   UNL       h55        56     0.06082        1.0080 ; qtot    0.529
        57           h56bf         1   UNL       h56        57     0.47089        1.0080 ; qtot    1.000

[ bonds ]
;       ai        aj funct               r               k
         1         2     1        0.150070   242806.478418    ;  uncertainty r = 0.000053, k = 5.500583
         1        29     1        0.109466   309551.110205    ;  uncertainty r = 0.000011, k = 1.937725
         1        30     1        0.109466   309551.110205    ;  uncertainty r = 0.000011, k = 1.937725
         1        31     1        0.109466   309551.110205    ;  uncertainty r = 0.000011, k = 1.937725
         2         3     1        0.138201   390802.837549    ;  uncertainty r = 0.000122, k = 10.037180
         2        21     1        0.143862   265444.921582    ;  uncertainty r = 0.000114, k = 9.570112
         3         4     1        0.149528   232313.893066    ;  uncertainty r = 0.000254, k = 5.312589
         3        19     1        0.140942   297739.839600    ;  uncertainty r = 0.000289, k = 22.744897
         4         5     1        0.153668   206750.314478    ;  uncertainty r = 0.000076, k = 9.818616
         4        32     1        0.109580   312913.683545    ;  uncertainty r = 0.000066, k = 4.109040
         4        33     1        0.109580   312913.683545    ;  uncertainty r = 0.000066, k = 4.109040
         5         6     1        0.150828   208956.682422    ;  uncertainty r = 0.000076, k = 30.101999
         5        34     1        0.108972   315827.288965    ;  uncertainty r = 0.000030, k = 3.081138
         5        35     1        0.108972   315827.288965    ;  uncertainty r = 0.000030, k = 3.081138
         6         7     1        0.150546   200777.784717    ;  uncertainty r = 0.000184, k = 23.887614
         6        36     1        0.103460   366312.111230    ;  uncertainty r = 0.000273, k = 3.427095
         6        57     1        0.103460   366312.111230    ;  uncertainty r = 0.000273, k = 3.427095
         7         8     1        0.153888   208056.167334    ;  uncertainty r = 0.000179, k = 7.861281
         7        37     1        0.109006   316526.495020    ;  uncertainty r = 0.000051, k = 3.771055
         7        38     1        0.109006   316526.495020    ;  uncertainty r = 0.000051, k = 3.771055
         8         9     1        0.144709   236004.975781    ;  uncertainty r = 0.000255, k = 14.119470
         8        39     1        0.109502   307951.235840    ;  uncertainty r = 0.000043, k = 5.242443
         8        40     1        0.109502   307951.235840    ;  uncertainty r = 0.000043, k = 5.242443
         9        10     1        0.140882   336405.500293    ;  uncertainty r = 0.000896, k = 19.803885
         9        41     1        0.101382   421723.501562    ;  uncertainty r = 0.000202, k = 11.404155
        10        11     1        0.140787   355023.100049    ;  uncertainty r = 0.000106, k = 12.816627
        10        15     1        0.142268   334150.216016    ;  uncertainty r = 0.000257, k = 9.446036
        11        12     1        0.138804   353356.446143    ;  uncertainty r = 0.000119, k = 7.706072
        11        42     1        0.108870   338223.129590    ;  uncertainty r = 0.000032, k = 2.737230
        12        13     1        0.139640   354214.467480    ;  uncertainty r = 0.000116, k = 4.634588
        12        19     1        0.142419   335537.647168    ;  uncertainty r = 0.000099, k = 7.156070
        13        14     1        0.138792   364930.145020    ;  uncertainty r = 0.000067, k = 5.150934
        13        43     1        0.108792   333924.799951    ;  uncertainty r = 0.000009, k = 1.293387
        14        15     1        0.140195   354433.678027    ;  uncertainty r = 0.000101, k = 11.188668
        14        44     1        0.108604   330520.703271    ;  uncertainty r = 0.000050, k = 2.529878
        15        16     1        0.148239   259915.626660    ;  uncertainty r = 0.000119, k = 23.120551
        16        17     1        0.139029   503817.340625    ;  uncertainty r = 0.000155, k = 20.650933
        16        18     1        0.124820   823639.501758    ;  uncertainty r = 0.000051, k = 16.500721
        17        45     1        0.101653   427755.290186    ;  uncertainty r = 0.000052, k = 3.050537
        17        46     1        0.101653   427755.290186    ;  uncertainty r = 0.000052, k = 3.050537
        19        20     1        0.137397   279934.473145    ;  uncertainty r = 0.000172, k = 14.958937
        20        21     1        0.139070   410963.440527    ;  uncertainty r = 0.000129, k = 17.219581
        20        28     1        0.149169   235354.366846    ;  uncertainty r = 0.000099, k = 6.242030
        21        22     1        0.145392   263265.176074    ;  uncertainty r = 0.000115, k = 15.598358
        22        23     1        0.123654   721934.337402    ;  uncertainty r = 0.000050, k = 5.105366
        22        24     1        0.152729   192523.182251    ;  uncertainty r = 0.000075, k = 8.399189
        24        25     1        0.153646   191935.049854    ;  uncertainty r = 0.000135, k = 7.651961
        24        47     1        0.109748   308934.695459    ;  uncertainty r = 0.000015, k = 1.839172
        24        48     1        0.109748   308934.695459    ;  uncertainty r = 0.000015, k = 1.839172
        25        26     1        0.153195   201193.375635    ;  uncertainty r = 0.000053, k = 1.853520
        25        27     1        0.153195   201193.375635    ;  uncertainty r = 0.000053, k = 1.853520
        25        28     1        0.153828   192201.516821    ;  uncertainty r = 0.000093, k = 11.625833
        26        49     1        0.109670   309289.354834    ;  uncertainty r = 0.000025, k = 1.119538
        26        50     1        0.109670   309289.354834    ;  uncertainty r = 0.000025, k = 1.119538
        26        51     1        0.109670   309289.354834    ;  uncertainty r = 0.000025, k = 1.119538
        27        52     1        0.109670   309289.354834    ;  uncertainty r = 0.000025, k = 1.119538
        27        53     1        0.109670   309289.354834    ;  uncertainty r = 0.000025, k = 1.119538
        27        54     1        0.109670   309289.354834    ;  uncertainty r = 0.000025, k = 1.119538
        28        55     1        0.109905   308723.707861    ;  uncertainty r = 0.000021, k = 4.306944
        28        56     1        0.109905   308723.707861    ;  uncertainty r = 0.000021, k = 4.306944

[ angles ]
;       ai        aj        ak funct           theta             cth
         1         2         3     1      125.191628      349.166247    ;  uncertainty theta = 0.004865, k = 0.269857
         1         2        21     1      124.526268      351.701124    ;  uncertainty theta = 0.006270, k = 0.279091
         2         1        29     1      109.630836      411.937483    ;  uncertainty theta = 0.000571, k = 0.068149
         2         1        30     1      109.630836      411.937483    ;  uncertainty theta = 0.000571, k = 0.068149
         2         1        31     1      109.630836      411.937483    ;  uncertainty theta = 0.000571, k = 0.068149
         2         3         4     1      128.116013      345.613812    ;  uncertainty theta = 0.007067, k = 0.260158
         2         3        19     1      111.100746      707.591803    ;  uncertainty theta = 0.006147, k = 0.262096
         2        21        20     1      108.931923      687.841147    ;  uncertainty theta = 0.004663, k = 0.113769
         2        21        22     1      126.006042      349.111789    ;  uncertainty theta = 0.002508, k = 0.283595
         3         2        21     1      107.720810      708.227422    ;  uncertainty theta = 0.005289, k = 0.202659
         3         4         5     1      111.743469      530.164181    ;  uncertainty theta = 0.006257, k = 0.112250
         3         4        32     1      107.981750      410.952804    ;  uncertainty theta = 0.004288, k = 0.087486
         3         4        33     1      107.981750      410.952804    ;  uncertainty theta = 0.004288, k = 0.087486
         3        19        12     1      120.318092      382.986573    ;  uncertainty theta = 0.003177, k = 0.046293
         3        19        20     1      109.352676      809.676142    ;  uncertainty theta = 0.004021, k = 0.223434
         4         3        19     1      116.774460      389.376628    ;  uncertainty theta = 0.011315, k = 0.263729
         4         5         6     1      111.277939      679.526520    ;  uncertainty theta = 0.005235, k = 0.164192
         4         5        34     1      110.639709      393.436039    ;  uncertainty theta = 0.003194, k = 0.050784
         4         5        35     1      110.639709      393.436039    ;  uncertainty theta = 0.003194, k = 0.050784
         5         4        32     1      107.027328      410.189851    ;  uncertainty theta = 0.002645, k = 0.078215
         5         4        33     1      107.027328      410.189851    ;  uncertainty theta = 0.002645, k = 0.078215
         5         6         7     1      113.981224      623.322087    ;  uncertainty theta = 0.003799, k = 0.166588
         5         6        36     1      108.313622      437.343587    ;  uncertainty theta = 0.002820, k = 0.057428
         5         6        57     1      108.313622      437.343587    ;  uncertainty theta = 0.002820, k = 0.057428
         6         5        34     1      105.507935      460.026765    ;  uncertainty theta = 0.002707, k = 0.065434
         6         5        35     1      105.507935      460.026765    ;  uncertainty theta = 0.002707, k = 0.065434
         6         7         8     1      110.879677      665.264555    ;  uncertainty theta = 0.007655, k = 0.211883
         6         7        37     1      105.887085      453.423986    ;  uncertainty theta = 0.003896, k = 0.055802
         6         7        38     1      105.887085      453.423986    ;  uncertainty theta = 0.003896, k = 0.055802
         7         6        36     1      108.490211      432.178196    ;  uncertainty theta = 0.003241, k = 0.099346
         7         6        57     1      108.490211      432.178196    ;  uncertainty theta = 0.003241, k = 0.099346
         7         8         9     1      110.821213      592.890855    ;  uncertainty theta = 0.009865, k = 0.327212
         7         8        39     1      108.346481      405.846979    ;  uncertainty theta = 0.004729, k = 0.037039
         7         8        40     1      108.346481      405.846979    ;  uncertainty theta = 0.004729, k = 0.037039
         8         7        37     1      110.600510      386.418665    ;  uncertainty theta = 0.003676, k = 0.123186
         8         7        38     1      110.600510      386.418665    ;  uncertainty theta = 0.003676, k = 0.123186
         8         9        10     1      114.086472      423.520542    ;  uncertainty theta = 0.006313, k = 0.134415
         8         9        41     1      110.029861      348.720784    ;  uncertainty theta = 0.005276, k = 0.250006
         9         8        39     1      108.155762      441.568096    ;  uncertainty theta = 0.003930, k = 0.146951
         9         8        40     1      108.155762      441.568096    ;  uncertainty theta = 0.003930, k = 0.146951
         9        10        11     1      121.762878      557.911399    ;  uncertainty theta = 0.010583, k = 0.320413
         9        10        15     1      122.994125      527.110134    ;  uncertainty theta = 0.007225, k = 0.273373
        10         9        41     1      114.288620      374.128771    ;  uncertainty theta = 0.006276, k = 0.213361
        10        11        12     1      120.456100      511.395523    ;  uncertainty theta = 0.001554, k = 0.084096
        10        11        42     1      119.016701      262.170573    ;  uncertainty theta = 0.002001, k = 0.109477
        10        15        14     1      122.378723      428.188119    ;  uncertainty theta = 0.004403, k = 0.293754
        10        15        16     1      117.611832      395.808181    ;  uncertainty theta = 0.005751, k = 0.323181
        11        10        15     1      122.199356      409.942014    ;  uncertainty theta = 0.005083, k = 0.198023
        11        12        13     1      120.138916      378.235841    ;  uncertainty theta = 0.005112, k = 0.196724
        11        12        19     1      120.082458      455.293526    ;  uncertainty theta = 0.004220, k = 0.131276
        12        11        42     1      119.996315      284.359639    ;  uncertainty theta = 0.002358, k = 0.106692
        12        13        14     1      118.153793      518.808786    ;  uncertainty theta = 0.004297, k = 0.176784
        12        13        43     1      120.426636      280.185311    ;  uncertainty theta = 0.001430, k = 0.071763
        12        19        20     1      120.656387      386.128340    ;  uncertainty theta = 0.004534, k = 0.146705
        13        12        19     1      121.115868      461.707171    ;  uncertainty theta = 0.004048, k = 0.213649
        13        14        15     1      124.898521      521.830145    ;  uncertainty theta = 0.004839, k = 0.231146
        13        14        44     1      119.540184      280.403909    ;  uncertainty theta = 0.002726, k = 0.067893
        14        13        43     1      121.318527      289.287439    ;  uncertainty theta = 0.001766, k = 0.086166
        14        15        16     1      117.657982      395.568132    ;  uncertainty theta = 0.003860, k = 0.230971
        15        14        44     1      117.235924      260.783477    ;  uncertainty theta = 0.005081, k = 0.129433
        15        16        17     1      116.059891      479.242674    ;  uncertainty theta = 0.003906, k = 0.247146
        15        16        18     1      125.322021      540.317735    ;  uncertainty theta = 0.004970, k = 0.190569
        16        17        45     1      116.963905      310.801018    ;  uncertainty theta = 0.002022, k = 0.091105
        16        17        46     1      116.963905      310.801018    ;  uncertainty theta = 0.002022, k = 0.091105
        17        16        18     1      126.517166      889.988691    ;  uncertainty theta = 0.004387, k = 0.046999
        19        20        21     1      109.748734      704.886657    ;  uncertainty theta = 0.004491, k = 0.254189
        19        20        28     1      122.420517      372.821686    ;  uncertainty theta = 0.003341, k = 0.132522
        20        21        22     1      119.070312      390.807568    ;  uncertainty theta = 0.007694, k = 0.349987
        20        28        25     1      107.805740      556.659123    ;  uncertainty theta = 0.002237, k = 0.143666
        20        28        55     1      108.916275      396.622655    ;  uncertainty theta = 0.001410, k = 0.056158
        20        28        56     1      108.916275      396.622655    ;  uncertainty theta = 0.001410, k = 0.056158
        21        20        28     1      125.882568      344.070285    ;  uncertainty theta = 0.005185, k = 0.237699
        21        22        23     1      124.446182      604.140079    ;  uncertainty theta = 0.001677, k = 0.050463
        21        22        24     1      113.848488      368.483538    ;  uncertainty theta = 0.006481, k = 0.230108
        22        24        25     1      112.816551      505.116713    ;  uncertainty theta = 0.003504, k = 0.066766
        22        24        47     1      106.614479      370.407344    ;  uncertainty theta = 0.001342, k = 0.076110
        22        24        48     1      106.614479      370.407344    ;  uncertainty theta = 0.001342, k = 0.076110
        23        22        24     1      123.307533      565.969123    ;  uncertainty theta = 0.003559, k = 0.147201
        24        25        26     1      108.306870      576.022126    ;  uncertainty theta = 0.001816, k = 0.099147
        24        25        27     1      108.306870      576.022126    ;  uncertainty theta = 0.001816, k = 0.099147
        24        25        28     1      109.706276      569.691668    ;  uncertainty theta = 0.001851, k = 0.067169
        25        24        47     1      107.687546      371.394800    ;  uncertainty theta = 0.002109, k = 0.101948
        25        24        48     1      107.687546      371.394800    ;  uncertainty theta = 0.002109, k = 0.101948
        25        26        49     1      107.996109      384.058813    ;  uncertainty theta = 0.001498, k = 0.017817
        25        26        50     1      107.996109      384.058813    ;  uncertainty theta = 0.001498, k = 0.017817
        25        26        51     1      107.996109      384.058813    ;  uncertainty theta = 0.001498, k = 0.017817
        25        27        52     1      107.996109      384.058813    ;  uncertainty theta = 0.001498, k = 0.017817
        25        27        53     1      107.996109      384.058813    ;  uncertainty theta = 0.001498, k = 0.017817
        25        27        54     1      107.996109      384.058813    ;  uncertainty theta = 0.001498, k = 0.017817
        25        28        55     1      107.544724      382.761017    ;  uncertainty theta = 0.002760, k = 0.048647
        25        28        56     1      107.544724      382.761017    ;  uncertainty theta = 0.002760, k = 0.048647
        26        25        27     1      108.956375      585.520334    ;  uncertainty theta = 0.001841, k = 0.057908
        26        25        28     1      108.014572      557.325067    ;  uncertainty theta = 0.003069, k = 0.098919
        27        25        28     1      108.014572      557.325067    ;  uncertainty theta = 0.003069, k = 0.098919
        29         1        30     1      106.599655      315.928263    ;  uncertainty theta = 0.001025, k = 0.007338
        29         1        31     1      106.599655      315.928263    ;  uncertainty theta = 0.001025, k = 0.007338
        30         1        31     1      106.599655      315.928263    ;  uncertainty theta = 0.001025, k = 0.007338
        32         4        33     1      105.618210      320.014073    ;  uncertainty theta = 0.004032, k = 0.123667
        34         5        35     1      108.338089      322.028120    ;  uncertainty theta = 0.002581, k = 0.093966
        36         6        57     1      108.308411      387.794381    ;  uncertainty theta = 0.006077, k = 0.103052
        37         7        38     1      108.573952      322.949659    ;  uncertainty theta = 0.006061, k = 0.062081
        39         8        40     1      106.474350      316.461541    ;  uncertainty theta = 0.003022, k = 0.093250
        45        17        46     1      109.834633      265.993558    ;  uncertainty theta = 0.001915, k = 0.057416
        47        24        48     1      106.125870      305.443843    ;  uncertainty theta = 0.001540, k = 0.048439
        49        26        50     1      105.574768      318.349181    ;  uncertainty theta = 0.001227, k = 0.028952
        49        26        51     1      105.574768      318.349181    ;  uncertainty theta = 0.001227, k = 0.028952
        50        26        51     1      105.574768      318.349181    ;  uncertainty theta = 0.001227, k = 0.028952
        52        27        53     1      105.574768      318.349181    ;  uncertainty theta = 0.001227, k = 0.028952
        52        27        54     1      105.574768      318.349181    ;  uncertainty theta = 0.001227, k = 0.028951
        53        27        54     1      105.574768      318.349181    ;  uncertainty theta = 0.001227, k = 0.028951
        55        28        56     1      105.093704      313.682082    ;  uncertainty theta = 0.001625, k = 0.026384

[ dihedrals ] ; propers for gromacs 4.5 or higher, use funct 9
;       ai        aj        ak        al funct           phase               k        pn
         1         2         3         4     9        0.000000       -0.371789         1    ;  uncertainty k = 0.556563
         1         2         3         4     9      180.000000        7.984316         2    ;  uncertainty k = 0.881841
         1         2         3         4     9        0.000000        1.141182         3    ;  uncertainty k = 0.354965
         1         2         3         4     9      180.000000        0.794971         4    ;  uncertainty k = 0.267288
         1         2         3        19     9        0.000000        0.291444         1    ;  uncertainty k = 0.910909
         1         2         3        19     9      180.000000       14.010903         2    ;  uncertainty k = 0.364295
         1         2         3        19     9        0.000000        2.180017         3    ;  uncertainty k = 0.761241
         1         2         3        19     9      180.000000        0.940566         4    ;  uncertainty k = 0.160829
         1         2        21        20     9        0.000000        0.607998         1    ;  uncertainty k = 1.069622
         1         2        21        20     9      180.000000        9.607522         2    ;  uncertainty k = 0.566671
         1         2        21        20     9        0.000000        1.772927         3    ;  uncertainty k = 0.377891
         1         2        21        20     9      180.000000        0.431765         4    ;  uncertainty k = 0.203646
         1         2        21        22     9        0.000000       -0.424364         1    ;  uncertainty k = 1.304333
         1         2        21        22     9      180.000000        5.448092         2    ;  uncertainty k = 0.657041
         1         2        21        22     9        0.000000        1.724720         3    ;  uncertainty k = 0.227121
         1         2        21        22     9      180.000000        0.221416         4    ;  uncertainty k = 0.155452
         2         3         4         5     9        0.000000        0.431191         1    ;  uncertainty k = 1.247347
         2         3         4         5     9      180.000000        0.660864         2    ;  uncertainty k = 0.316505
         2         3         4         5     9        0.000000        0.171993         3    ;  uncertainty k = 0.240202
         2         3         4         5     9      180.000000        0.060552         4    ;  uncertainty k = 0.118971
         2         3         4        32     9        0.000000        0.247450         1    ;  uncertainty k = 0.413687
         2         3         4        32     9      180.000000        1.231697         2    ;  uncertainty k = 0.210844
         2         3         4        32     9        0.000000        0.153134         3    ;  uncertainty k = 0.095660
         2         3         4        32     9      180.000000        0.068279         4    ;  uncertainty k = 0.132407
         2         3         4        33     9        0.000000        0.247450         1    ;  uncertainty k = 0.413687
         2         3         4        33     9      180.000000        1.231697         2    ;  uncertainty k = 0.210844
         2         3         4        33     9        0.000000        0.153134         3    ;  uncertainty k = 0.095660
         2         3         4        33     9      180.000000        0.068279         4    ;  uncertainty k = 0.132407
         2         3        19        12     9        0.000000        2.257530         1    ;  uncertainty k = 0.461131
         2         3        19        12     9      180.000000        6.835517         2    ;  uncertainty k = 0.594035
         2         3        19        12     9        0.000000        1.875255         3    ;  uncertainty k = 0.245451
         2         3        19        12     9      180.000000        0.083460         4    ;  uncertainty k = 0.256205
         2         3        19        20     9        0.000000       -0.467132         1    ;  uncertainty k = 0.574157
         2         3        19        20     9      180.000000       12.530533         2    ;  uncertainty k = 0.680509
         2         3        19        20     9        0.000000       -6.620688         3    ;  uncertainty k = 0.865850
         2         3        19        20     9      180.000000        1.056488         4    ;  uncertainty k = 0.530992
         2        21        20        19     9        0.000000       -0.267907         1    ;  uncertainty k = 0.332279
         2        21        20        19     9      180.000000       15.442998         2    ;  uncertainty k = 1.119664
         2        21        20        19     9        0.000000       -4.346996         3    ;  uncertainty k = 0.810631
         2        21        20        19     9      180.000000        1.768536         4    ;  uncertainty k = 0.585325
         2        21        20        28     9        0.000000        0.116287         1    ;  uncertainty k = 0.122172
         2        21        20        28     9      180.000000       11.154939         2    ;  uncertainty k = 0.389591
         2        21        20        28     9        0.000000        1.125567         3    ;  uncertainty k = 0.248456
         2        21        20        28     9      180.000000        1.191917         4    ;  uncertainty k = 0.298757
         2        21        22        23     9        0.000000       -1.660963         1    ;  uncertainty k = 1.137591
         2        21        22        23     9      180.000000        6.509064         2    ;  uncertainty k = 0.375639
         2        21        22        23     9        0.000000        0.790963         3    ;  uncertainty k = 0.151496
         2        21        22        23     9      180.000000       -0.171702         4    ;  uncertainty k = 0.117773
         2        21        22        24     9        0.000000       -0.838323         1    ;  uncertainty k = 0.377418
         2        21        22        24     9      180.000000        3.072265         2    ;  uncertainty k = 0.422403
         2        21        22        24     9        0.000000        0.625378         3    ;  uncertainty k = 0.179407
         2        21        22        24     9      180.000000        0.394003         4    ;  uncertainty k = 0.060470
         3         2         1        29     9        0.000000        1.025444         1    ;  uncertainty k = 0.178925
         3         2         1        29     9      180.000000        1.733189         2    ;  uncertainty k = 0.288825
         3         2         1        29     9        0.000000        0.001768         3    ;  uncertainty k = 0.159137
         3         2         1        29     9      180.000000        0.096990         4    ;  uncertainty k = 0.067997
         3         2         1        30     9        0.000000        1.025444         1    ;  uncertainty k = 0.178925
         3         2         1        30     9      180.000000        1.733189         2    ;  uncertainty k = 0.288825
         3         2         1        30     9        0.000000        0.001768         3    ;  uncertainty k = 0.159137
         3         2         1        30     9      180.000000        0.096990         4    ;  uncertainty k = 0.067997
         3         2         1        31     9        0.000000        1.025444         1    ;  uncertainty k = 0.178925
         3         2         1        31     9      180.000000        1.733189         2    ;  uncertainty k = 0.288825
         3         2         1        31     9        0.000000        0.001768         3    ;  uncertainty k = 0.159137
         3         2         1        31     9      180.000000        0.096990         4    ;  uncertainty k = 0.067997
         3         2        21        20     9        0.000000       -0.130836         1    ;  uncertainty k = 0.659134
         3         2        21        20     9      180.000000       12.795442         2    ;  uncertainty k = 0.817813
         3         2        21        20     9        0.000000       -9.359125         3    ;  uncertainty k = 1.785727
         3         2        21        20     9      180.000000        1.806838         4    ;  uncertainty k = 0.419817
         3         2        21        22     9        0.000000        0.869130         1    ;  uncertainty k = 1.047774
         3         2        21        22     9      180.000000        5.924212         2    ;  uncertainty k = 0.762363
         3         2        21        22     9        0.000000        1.468398         3    ;  uncertainty k = 0.190111
         3         2        21        22     9      180.000000        0.640815         4    ;  uncertainty k = 0.280267
         3         4         5         6     9        0.000000       -0.268788         1    ;  uncertainty k = 1.010710
         3         4         5         6     9      180.000000       -1.030028         2    ;  uncertainty k = 0.809779
         3         4         5         6     9        0.000000        2.100638         3    ;  uncertainty k = 0.488998
         3         4         5         6     9      180.000000       -0.264053         4    ;  uncertainty k = 0.478068
         3         4         5        34     9        0.000000        0.086877         1    ;  uncertainty k = 0.698476
         3         4         5        34     9      180.000000       -0.055653         2    ;  uncertainty k = 0.310024
         3         4         5        34     9        0.000000        0.832071         3    ;  uncertainty k = 0.140094
         3         4         5        34     9      180.000000        0.056048         4    ;  uncertainty k = 0.067347
         3         4         5        35     9        0.000000        0.086877         1    ;  uncertainty k = 0.698476
         3         4         5        35     9      180.000000       -0.055653         2    ;  uncertainty k = 0.310024
         3         4         5        35     9        0.000000        0.832071         3    ;  uncertainty k = 0.140094
         3         4         5        35     9      180.000000        0.056048         4    ;  uncertainty k = 0.067347
         3        19        12        11     9        0.000000        0.723088         1    ;  uncertainty k = 0.596907
         3        19        12        11     9      180.000000        5.379382         2    ;  uncertainty k = 0.257711
         3        19        12        11     9        0.000000        0.395742         3    ;  uncertainty k = 0.189896
         3        19        12        11     9      180.000000        0.202346         4    ;  uncertainty k = 0.128481
         3        19        12        13     9        0.000000        0.786754         1    ;  uncertainty k = 0.600152
         3        19        12        13     9      180.000000        5.696261         2    ;  uncertainty k = 0.177733
         3        19        12        13     9        0.000000        0.507964         3    ;  uncertainty k = 0.229656
         3        19        12        13     9      180.000000        0.223970         4    ;  uncertainty k = 0.116315
         3        19        20        21     9        0.000000        0.039547         1    ;  uncertainty k = 0.758362
         3        19        20        21     9      180.000000       15.912114         2    ;  uncertainty k = 0.830239
         3        19        20        21     9        0.000000       -8.402206         3    ;  uncertainty k = 1.682189
         3        19        20        21     9      180.000000        0.873363         4    ;  uncertainty k = 0.744579
         3        19        20        28     9        0.000000        1.271070         1    ;  uncertainty k = 0.594701
         3        19        20        28     9      180.000000        7.738498         2    ;  uncertainty k = 0.397947
         3        19        20        28     9        0.000000        1.441211         3    ;  uncertainty k = 0.266039
         3        19        20        28     9      180.000000        0.123849         4    ;  uncertainty k = 0.092295
         4         3         2        21     9        0.000000        0.010033         1    ;  uncertainty k = 0.690217
         4         3         2        21     9      180.000000       13.354982         2    ;  uncertainty k = 0.409373
         4         3         2        21     9        0.000000        2.125051         3    ;  uncertainty k = 0.269358
         4         3         2        21     9      180.000000        0.808033         4    ;  uncertainty k = 0.346254
         4         3        19        12     9        0.000000        0.684598         1    ;  uncertainty k = 0.566562
         4         3        19        12     9      180.000000        3.750001         2    ;  uncertainty k = 0.623753
         4         3        19        12     9        0.000000        1.130901         3    ;  uncertainty k = 0.303762
         4         3        19        12     9      180.000000        0.205823         4    ;  uncertainty k = 0.188260
         4         3        19        20     9        0.000000        1.284501         1    ;  uncertainty k = 0.720571
         4         3        19        20     9      180.000000        7.204383         2    ;  uncertainty k = 0.840679
         4         3        19        20     9        0.000000        1.639458         3    ;  uncertainty k = 0.270739
         4         3        19        20     9      180.000000        0.076969         4    ;  uncertainty k = 0.038933
         4         5         6         7     9        0.000000       -0.702789         1    ;  uncertainty k = 1.351298
         4         5         6         7     9      180.000000       -0.096539         2    ;  uncertainty k = 0.569737
         4         5         6         7     9        0.000000        0.978317         3    ;  uncertainty k = 0.169478
         4         5         6         7     9      180.000000       -0.097295         4    ;  uncertainty k = 0.056347
         4         5         6        36     9        0.000000       -0.108093         1    ;  uncertainty k = 1.081479
         4         5         6        36     9      180.000000       -0.465854         2    ;  uncertainty k = 0.463172
         4         5         6        36     9        0.000000        0.712982         3    ;  uncertainty k = 0.163498
         4         5         6        36     9      180.000000       -0.140346         4    ;  uncertainty k = 0.141527
         4         5         6        57     9        0.000000       -0.108093         1    ;  uncertainty k = 1.081479
         4         5         6        57     9      180.000000       -0.465854         2    ;  uncertainty k = 0.463172
         4         5         6        57     9        0.000000        0.712982         3    ;  uncertainty k = 0.163498
         4         5         6        57     9      180.000000       -0.140346         4    ;  uncertainty k = 0.141527
         5         4         3        19     9        0.000000        2.011813         1    ;  uncertainty k = 1.544658
         5         4         3        19     9      180.000000       -0.344966         2    ;  uncertainty k = 0.501535
         5         4         3        19     9        0.000000        0.704282         3    ;  uncertainty k = 0.322110
         5         4         3        19     9      180.000000        0.022768         4    ;  uncertainty k = 0.158035
         5         6         7         8     9        0.000000       -0.218876         1    ;  uncertainty k = 1.818510
         5         6         7         8     9      180.000000       -0.295400         2    ;  uncertainty k = 0.496796
         5         6         7         8     9        0.000000        0.886074         3    ;  uncertainty k = 0.266976
         5         6         7         8     9      180.000000       -0.066438         4    ;  uncertainty k = 0.129718
         5         6         7        37     9        0.000000       -0.056590         1    ;  uncertainty k = 0.761764
         5         6         7        37     9      180.000000       -0.434792         2    ;  uncertainty k = 0.538538
         5         6         7        37     9        0.000000        1.082920         3    ;  uncertainty k = 0.061375
         5         6         7        37     9      180.000000       -0.030126         4    ;  uncertainty k = 0.182034
         5         6         7        38     9        0.000000       -0.056590         1    ;  uncertainty k = 0.761764
         5         6         7        38     9      180.000000       -0.434792         2    ;  uncertainty k = 0.538538
         5         6         7        38     9        0.000000        1.082920         3    ;  uncertainty k = 0.061375
         5         6         7        38     9      180.000000       -0.030126         4    ;  uncertainty k = 0.182034
         6         5         4        32     9        0.000000        0.003544         1    ;  uncertainty k = 0.460569
         6         5         4        32     9      180.000000       -2.166333         2    ;  uncertainty k = 0.780059
         6         5         4        32     9        0.000000        0.971793         3    ;  uncertainty k = 0.278791
         6         5         4        32     9      180.000000       -0.098868         4    ;  uncertainty k = 0.113430
         6         5         4        33     9        0.000000        0.003544         1    ;  uncertainty k = 0.460569
         6         5         4        33     9      180.000000       -2.166333         2    ;  uncertainty k = 0.780059
         6         5         4        33     9        0.000000        0.971793         3    ;  uncertainty k = 0.278791
         6         5         4        33     9      180.000000       -0.098868         4    ;  uncertainty k = 0.113430
         6         7         8         9     9        0.000000        6.369259         1    ;  uncertainty k = 1.572870
         6         7         8         9     9      180.000000       -2.681357         2    ;  uncertainty k = 1.601494
         6         7         8         9     9        0.000000        1.635448         3    ;  uncertainty k = 0.327127
         6         7         8         9     9      180.000000       -0.430287         4    ;  uncertainty k = 0.235685
         6         7         8        39     9        0.000000       -0.978858         1    ;  uncertainty k = 0.548089
         6         7         8        39     9      180.000000       -2.138062         2    ;  uncertainty k = 0.757819
         6         7         8        39     9        0.000000        0.851121         3    ;  uncertainty k = 0.329483
         6         7         8        39     9      180.000000       -0.148754         4    ;  uncertainty k = 0.175282
         6         7         8        40     9        0.000000       -0.978858         1    ;  uncertainty k = 0.548089
         6         7         8        40     9      180.000000       -2.138062         2    ;  uncertainty k = 0.757819
         6         7         8        40     9        0.000000        0.851121         3    ;  uncertainty k = 0.329483
         6         7         8        40     9      180.000000       -0.148754         4    ;  uncertainty k = 0.175282
         7         6         5        34     9        0.000000        0.004035         1    ;  uncertainty k = 0.657645
         7         6         5        34     9      180.000000       -0.534516         2    ;  uncertainty k = 0.407941
         7         6         5        34     9        0.000000        1.023036         3    ;  uncertainty k = 0.089495
         7         6         5        34     9      180.000000       -0.040089         4    ;  uncertainty k = 0.178036
         7         6         5        35     9        0.000000        0.004035         1    ;  uncertainty k = 0.657645
         7         6         5        35     9      180.000000       -0.534516         2    ;  uncertainty k = 0.407941
         7         6         5        35     9        0.000000        1.023036         3    ;  uncertainty k = 0.089495
         7         6         5        35     9      180.000000       -0.040089         4    ;  uncertainty k = 0.178036
         7         8         9        10     9        0.000000        1.910328         1    ;  uncertainty k = 1.421345
         7         8         9        10     9      180.000000       -2.416685         2    ;  uncertainty k = 1.245526
         7         8         9        10     9        0.000000        0.549632         3    ;  uncertainty k = 0.505296
         7         8         9        10     9      180.000000        0.219008         4    ;  uncertainty k = 0.069737
         7         8         9        41     9        0.000000        2.310234         1    ;  uncertainty k = 1.241630
         7         8         9        41     9      180.000000       -4.656370         2    ;  uncertainty k = 0.964380
         7         8         9        41     9        0.000000        0.141176         3    ;  uncertainty k = 0.297492
         7         8         9        41     9      180.000000        0.089307         4    ;  uncertainty k = 0.195339
         8         7         6        36     9        0.000000        1.033752         1    ;  uncertainty k = 1.416686
         8         7         6        36     9      180.000000       -0.642824         2    ;  uncertainty k = 0.542488
         8         7         6        36     9        0.000000        0.634058         3    ;  uncertainty k = 0.184187
         8         7         6        36     9      180.000000       -0.188649         4    ;  uncertainty k = 0.118625
         8         7         6        57     9        0.000000        1.033752         1    ;  uncertainty k = 1.416686
         8         7         6        57     9      180.000000       -0.642824         2    ;  uncertainty k = 0.542488
         8         7         6        57     9        0.000000        0.634058         3    ;  uncertainty k = 0.184187
         8         7         6        57     9      180.000000       -0.188649         4    ;  uncertainty k = 0.118625
         8         9        10        11     9        0.000000        2.460142         1    ;  uncertainty k = 1.186203
         8         9        10        11     9      180.000000        6.311996         2    ;  uncertainty k = 0.857088
         8         9        10        11     9        0.000000       -0.038109         3    ;  uncertainty k = 0.434710
         8         9        10        11     9      180.000000        0.038291         4    ;  uncertainty k = 0.253877
         8         9        10        15     9        0.000000        3.649177         1    ;  uncertainty k = 1.257104
         8         9        10        15     9      180.000000        7.730585         2    ;  uncertainty k = 1.177166
         8         9        10        15     9        0.000000        0.647847         3    ;  uncertainty k = 0.436819
         8         9        10        15     9      180.000000       -0.093861         4    ;  uncertainty k = 0.390830
         9         8         7        37     9        0.000000       -0.498924         1    ;  uncertainty k = 0.840238
         9         8         7        37     9      180.000000       -0.101897         2    ;  uncertainty k = 0.532088
         9         8         7        37     9        0.000000        1.116908         3    ;  uncertainty k = 0.320287
         9         8         7        37     9      180.000000       -0.030582         4    ;  uncertainty k = 0.109262
         9         8         7        38     9        0.000000       -0.498924         1    ;  uncertainty k = 0.840238
         9         8         7        38     9      180.000000       -0.101897         2    ;  uncertainty k = 0.532088
         9         8         7        38     9        0.000000        1.116908         3    ;  uncertainty k = 0.320287
         9         8         7        38     9      180.000000       -0.030582         4    ;  uncertainty k = 0.109262
         9        10        11        12     9        0.000000        0.518401         1    ;  uncertainty k = 0.791448
         9        10        11        12     9      180.000000        9.900241         2    ;  uncertainty k = 0.468150
         9        10        11        12     9        0.000000        0.803125         3    ;  uncertainty k = 0.155750
         9        10        11        12     9      180.000000        1.612258         4    ;  uncertainty k = 0.256155
         9        10        11        42     9        0.000000       -0.098772         1    ;  uncertainty k = 0.258442
         9        10        11        42     9      180.000000        7.778010         2    ;  uncertainty k = 0.609478
         9        10        11        42     9        0.000000        0.811518         3    ;  uncertainty k = 0.116980
         9        10        11        42     9      180.000000        1.293370         4    ;  uncertainty k = 0.342671
         9        10        15        14     9        0.000000        0.001018         1    ;  uncertainty k = 0.881726
         9        10        15        14     9      180.000000        7.233330         2    ;  uncertainty k = 0.658268
         9        10        15        14     9        0.000000        0.978675         3    ;  uncertainty k = 0.399023
         9        10        15        14     9      180.000000        1.549620         4    ;  uncertainty k = 0.248079
         9        10        15        16     9        0.000000       -0.470345         1    ;  uncertainty k = 0.794774
         9        10        15        16     9      180.000000        7.939077         2    ;  uncertainty k = 0.717922
         9        10        15        16     9        0.000000        1.210094         3    ;  uncertainty k = 0.426050
         9        10        15        16     9      180.000000        1.582930         4    ;  uncertainty k = 0.403606
        10         9         8        39     9        0.000000       -0.281232         1    ;  uncertainty k = 0.641270
        10         9         8        39     9      180.000000       -1.338197         2    ;  uncertainty k = 0.625687
        10         9         8        39     9        0.000000        0.555308         3    ;  uncertainty k = 0.208777
        10         9         8        39     9      180.000000        0.302064         4    ;  uncertainty k = 0.104459
        10         9         8        40     9        0.000000       -0.281232         1    ;  uncertainty k = 0.641270
        10         9         8        40     9      180.000000       -1.338197         2    ;  uncertainty k = 0.625687
        10         9         8        40     9        0.000000        0.555308         3    ;  uncertainty k = 0.208777
        10         9         8        40     9      180.000000        0.302064         4    ;  uncertainty k = 0.104459
        10        11        12        13     9        0.000000        0.373416         1    ;  uncertainty k = 0.429680
        10        11        12        13     9      180.000000        9.661856         2    ;  uncertainty k = 0.589195
        10        11        12        13     9        0.000000       -0.022043         3    ;  uncertainty k = 0.285665
        10        11        12        13     9      180.000000        1.172386         4    ;  uncertainty k = 0.278232
        10        11        12        19     9        0.000000        0.306432         1    ;  uncertainty k = 0.378719
        10        11        12        19     9      180.000000       10.457035         2    ;  uncertainty k = 0.693356
        10        11        12        19     9        0.000000        1.316127         3    ;  uncertainty k = 0.234218
        10        11        12        19     9      180.000000        1.570725         4    ;  uncertainty k = 0.418195
        10        15        14        13     9        0.000000        0.026336         1    ;  uncertainty k = 0.363860
        10        15        14        13     9      180.000000       10.197595         2    ;  uncertainty k = 0.114986
        10        15        14        13     9        0.000000       -0.234794         3    ;  uncertainty k = 0.558010
        10        15        14        13     9      180.000000        1.150800         4    ;  uncertainty k = 0.273390
        10        15        14        44     9        0.000000        0.157067         1    ;  uncertainty k = 0.301824
        10        15        14        44     9      180.000000        8.233510         2    ;  uncertainty k = 0.511524
        10        15        14        44     9        0.000000        1.098853         3    ;  uncertainty k = 0.331408
        10        15        14        44     9      180.000000        1.505814         4    ;  uncertainty k = 0.287071
        10        15        16        17     9        0.000000        0.374882         1    ;  uncertainty k = 1.141184
        10        15        16        17     9      180.000000        5.227144         2    ;  uncertainty k = 0.518602
        10        15        16        17     9        0.000000        0.482684         3    ;  uncertainty k = 0.396429
        10        15        16        17     9      180.000000        0.141720         4    ;  uncertainty k = 0.278202
        10        15        16        18     9        0.000000       -0.825085         1    ;  uncertainty k = 2.327057
        10        15        16        18     9      180.000000        3.217087         2    ;  uncertainty k = 1.475652
        10        15        16        18     9        0.000000        0.836777         3    ;  uncertainty k = 0.426143
        10        15        16        18     9      180.000000        0.325235         4    ;  uncertainty k = 0.181908
        11        10         9        41     9        0.000000        3.828744         1    ;  uncertainty k = 2.325832
        11        10         9        41     9      180.000000        5.594978         2    ;  uncertainty k = 0.632261
        11        10         9        41     9        0.000000        0.722241         3    ;  uncertainty k = 0.180680
        11        10         9        41     9      180.000000       -0.257147         4    ;  uncertainty k = 0.179973
        11        10        15        14     9        0.000000       -0.100244         1    ;  uncertainty k = 0.873662
        11        10        15        14     9      180.000000        5.331683         2    ;  uncertainty k = 0.762878
        11        10        15        14     9        0.000000        0.341021         3    ;  uncertainty k = 0.362414
        11        10        15        14     9      180.000000        1.442568         4    ;  uncertainty k = 0.314914
        11        10        15        16     9        0.000000        0.575771         1    ;  uncertainty k = 1.456538
        11        10        15        16     9      180.000000        5.256977         2    ;  uncertainty k = 0.481063
        11        10        15        16     9        0.000000        1.077663         3    ;  uncertainty k = 0.382304
        11        10        15        16     9      180.000000        1.703679         4    ;  uncertainty k = 0.135626
        11        12        13        14     9        0.000000       -0.032706         1    ;  uncertainty k = 0.302370
        11        12        13        14     9      180.000000        9.900001         2    ;  uncertainty k = 0.501782
        11        12        13        14     9        0.000000       -0.157633         3    ;  uncertainty k = 0.314968
        11        12        13        14     9      180.000000        1.132581         4    ;  uncertainty k = 0.253187
        11        12        13        43     9        0.000000        0.109609         1    ;  uncertainty k = 0.237290
        11        12        13        43     9      180.000000        6.642136         2    ;  uncertainty k = 0.978720
        11        12        13        43     9        0.000000        1.281617         3    ;  uncertainty k = 0.371824
        11        12        13        43     9      180.000000        1.571041         4    ;  uncertainty k = 0.295430
        11        12        19        20     9        0.000000        0.785029         1    ;  uncertainty k = 0.872915
        11        12        19        20     9      180.000000        5.040278         2    ;  uncertainty k = 0.126505
        11        12        19        20     9        0.000000        0.325830         3    ;  uncertainty k = 0.166851
        11        12        19        20     9      180.000000        0.326703         4    ;  uncertainty k = 0.075550
        12        11        10        15     9        0.000000        0.365822         1    ;  uncertainty k = 0.566383
        12        11        10        15     9      180.000000        6.280611         2    ;  uncertainty k = 1.013312
        12        11        10        15     9        0.000000        0.579217         3    ;  uncertainty k = 0.440423
        12        11        10        15     9      180.000000        1.374899         4    ;  uncertainty k = 0.280616
        12        13        14        15     9        0.000000       -0.113093         1    ;  uncertainty k = 0.280302
        12        13        14        15     9      180.000000       12.300677         2    ;  uncertainty k = 0.371330
        12        13        14        15     9        0.000000       -0.794070         3    ;  uncertainty k = 0.512862
        12        13        14        15     9      180.000000        0.871852         4    ;  uncertainty k = 0.323708
        12        13        14        44     9        0.000000       -0.111326         1    ;  uncertainty k = 0.371912
        12        13        14        44     9      180.000000        8.088319         2    ;  uncertainty k = 0.358999
        12        13        14        44     9        0.000000        1.005365         3    ;  uncertainty k = 0.229771
        12        13        14        44     9      180.000000        1.767343         4    ;  uncertainty k = 0.141766
        12        19        20        21     9        0.000000        1.492632         1    ;  uncertainty k = 0.837648
        12        19        20        21     9      180.000000       10.046922         2    ;  uncertainty k = 0.536131
        12        19        20        21     9        0.000000        1.448718         3    ;  uncertainty k = 0.569408
        12        19        20        21     9      180.000000        0.036694         4    ;  uncertainty k = 0.194913
        12        19        20        28     9        0.000000        0.856701         1    ;  uncertainty k = 0.950152
        12        19        20        28     9      180.000000        4.125857         2    ;  uncertainty k = 0.485839
        12        19        20        28     9        0.000000        1.168084         3    ;  uncertainty k = 0.270487
        12        19        20        28     9      180.000000        0.251866         4    ;  uncertainty k = 0.097304
        13        12        11        42     9        0.000000        0.279137         1    ;  uncertainty k = 0.281661
        13        12        11        42     9      180.000000        7.531442         2    ;  uncertainty k = 0.603914
        13        12        11        42     9        0.000000        1.361033         3    ;  uncertainty k = 0.413152
        13        12        11        42     9      180.000000        1.559274         4    ;  uncertainty k = 0.242159
        13        12        19        20     9        0.000000        1.010854         1    ;  uncertainty k = 1.198049
        13        12        19        20     9      180.000000        5.285064         2    ;  uncertainty k = 0.216399
        13        12        19        20     9        0.000000        0.451693         3    ;  uncertainty k = 0.217941
        13        12        19        20     9      180.000000        0.330648         4    ;  uncertainty k = 0.081175
        13        14        15        16     9        0.000000        0.081264         1    ;  uncertainty k = 0.560523
        13        14        15        16     9      180.000000        8.776959         2    ;  uncertainty k = 0.879429
        13        14        15        16     9        0.000000        1.450148         3    ;  uncertainty k = 0.469905
        13        14        15        16     9      180.000000        1.770321         4    ;  uncertainty k = 0.406481
        14        13        12        19     9        0.000000        0.083078         1    ;  uncertainty k = 0.259612
        14        13        12        19     9      180.000000        9.820718         2    ;  uncertainty k = 0.570224
        14        13        12        19     9        0.000000        1.307564         3    ;  uncertainty k = 0.459447
        14        13        12        19     9      180.000000        1.761751         4    ;  uncertainty k = 0.303228
        14        15        16        17     9        0.000000        0.309159         1    ;  uncertainty k = 0.417123
        14        15        16        17     9      180.000000        4.399036         2    ;  uncertainty k = 0.263870
        14        15        16        17     9        0.000000        0.333826         3    ;  uncertainty k = 0.263524
        14        15        16        17     9      180.000000        0.048345         4    ;  uncertainty k = 0.202801
        14        15        16        18     9        0.000000       -2.548556         1    ;  uncertainty k = 1.262023
        14        15        16        18     9      180.000000        4.140655         2    ;  uncertainty k = 0.813339
        14        15        16        18     9        0.000000        0.702641         3    ;  uncertainty k = 0.265070
        14        15        16        18     9      180.000000        0.288999         4    ;  uncertainty k = 0.213810
        15        10         9        41     9        0.000000        7.546211         1    ;  uncertainty k = 0.733903
        15        10         9        41     9      180.000000        4.844664         2    ;  uncertainty k = 0.796833
        15        10         9        41     9        0.000000        0.677583         3    ;  uncertainty k = 0.272795
        15        10         9        41     9      180.000000       -0.039616         4    ;  uncertainty k = 0.070528
        15        10        11        42     9        0.000000        0.593680         1    ;  uncertainty k = 0.892620
        15        10        11        42     9      180.000000        5.455827         2    ;  uncertainty k = 0.742825
        15        10        11        42     9        0.000000        1.368590         3    ;  uncertainty k = 0.280705
        15        10        11        42     9      180.000000        1.448771         4    ;  uncertainty k = 0.222157
        15        14        13        43     9        0.000000       -0.152253         1    ;  uncertainty k = 0.261671
        15        14        13        43     9      180.000000        8.001816         2    ;  uncertainty k = 0.530706
        15        14        13        43     9        0.000000        1.217926         3    ;  uncertainty k = 0.360003
        15        14        13        43     9      180.000000        1.706501         4    ;  uncertainty k = 0.171491
        15        16        17        45     9        0.000000        3.550321         1    ;  uncertainty k = 1.153018
        15        16        17        45     9      180.000000        7.158108         2    ;  uncertainty k = 0.637032
        15        16        17        45     9        0.000000        2.732941         3    ;  uncertainty k = 0.512248
        15        16        17        45     9      180.000000       -0.240737         4    ;  uncertainty k = 0.304545
        15        16        17        46     9        0.000000        3.550321         1    ;  uncertainty k = 1.153018
        15        16        17        46     9      180.000000        7.158108         2    ;  uncertainty k = 0.637032
        15        16        17        46     9        0.000000        2.732941         3    ;  uncertainty k = 0.512248
        15        16        17        46     9      180.000000       -0.240737         4    ;  uncertainty k = 0.304545
        16        15        14        44     9        0.000000       -0.133763         1    ;  uncertainty k = 0.406868
        16        15        14        44     9      180.000000        8.463368         2    ;  uncertainty k = 0.522334
        16        15        14        44     9        0.000000        1.055474         3    ;  uncertainty k = 0.215693
        16        15        14        44     9      180.000000        1.227618         4    ;  uncertainty k = 0.292964
        18        16        17        45     9        0.000000        4.288278         1    ;  uncertainty k = 0.786452
        18        16        17        45     9      180.000000       11.499130         2    ;  uncertainty k = 0.403752
        18        16        17        45     9        0.000000        2.102366         3    ;  uncertainty k = 0.130474
        18        16        17        45     9      180.000000        0.313821         4    ;  uncertainty k = 0.325036
        18        16        17        46     9        0.000000        4.288278         1    ;  uncertainty k = 0.786452
        18        16        17        46     9      180.000000       11.499130         2    ;  uncertainty k = 0.403752
        18        16        17        46     9        0.000000        2.102366         3    ;  uncertainty k = 0.130474
        18        16        17        46     9      180.000000        0.313821         4    ;  uncertainty k = 0.325036
        19         3         2        21     9        0.000000       -0.113190         1    ;  uncertainty k = 0.307442
        19         3         2        21     9      180.000000       20.588049         2    ;  uncertainty k = 0.795856
        19         3         2        21     9        0.000000       -4.942039         3    ;  uncertainty k = 1.145437
        19         3         2        21     9      180.000000        1.350096         4    ;  uncertainty k = 0.845987
        19         3         4        32     9        0.000000       -0.622215         1    ;  uncertainty k = 0.544591
        19         3         4        32     9      180.000000        0.797179         2    ;  uncertainty k = 0.407752
        19         3         4        32     9        0.000000        0.471630         3    ;  uncertainty k = 0.261980
        19         3         4        32     9      180.000000        0.157343         4    ;  uncertainty k = 0.099477
        19         3         4        33     9        0.000000       -0.622215         1    ;  uncertainty k = 0.544591
        19         3         4        33     9      180.000000        0.797179         2    ;  uncertainty k = 0.407752
        19         3         4        33     9        0.000000        0.471630         3    ;  uncertainty k = 0.261980
        19         3         4        33     9      180.000000        0.157343         4    ;  uncertainty k = 0.099477
        19        12        11        42     9        0.000000       -0.184407         1    ;  uncertainty k = 0.331221
        19        12        11        42     9      180.000000        7.932438         2    ;  uncertainty k = 0.287954
        19        12        11        42     9        0.000000        0.693032         3    ;  uncertainty k = 0.233384
        19        12        11        42     9      180.000000        1.216677         4    ;  uncertainty k = 0.279007
        19        12        13        43     9        0.000000       -0.122686         1    ;  uncertainty k = 0.301921
        19        12        13        43     9      180.000000        7.476014         2    ;  uncertainty k = 0.227747
        19        12        13        43     9        0.000000        0.729745         3    ;  uncertainty k = 0.242335
        19        12        13        43     9      180.000000        1.141543         4    ;  uncertainty k = 0.281485
        19        20        21        22     9        0.000000        0.456843         1    ;  uncertainty k = 1.099048
        19        20        21        22     9      180.000000        8.746582         2    ;  uncertainty k = 0.661268
        19        20        21        22     9        0.000000        0.926871         3    ;  uncertainty k = 0.979687
        19        20        21        22     9      180.000000        1.464180         4    ;  uncertainty k = 0.285096
        19        20        28        25     9        0.000000       -3.122724         1    ;  uncertainty k = 0.744012
        19        20        28        25     9      180.000000        0.281082         2    ;  uncertainty k = 0.546202
        19        20        28        25     9        0.000000        0.186478         3    ;  uncertainty k = 0.175768
        19        20        28        25     9      180.000000        0.197195         4    ;  uncertainty k = 0.053502
        19        20        28        55     9        0.000000       -0.104997         1    ;  uncertainty k = 0.450973
        19        20        28        55     9      180.000000        1.430436         2    ;  uncertainty k = 0.537291
        19        20        28        55     9        0.000000        0.491473         3    ;  uncertainty k = 0.189734
        19        20        28        55     9      180.000000        0.150432         4    ;  uncertainty k = 0.033481
        19        20        28        56     9        0.000000       -0.104997         1    ;  uncertainty k = 0.450973
        19        20        28        56     9      180.000000        1.430436         2    ;  uncertainty k = 0.537291
        19        20        28        56     9        0.000000        0.491473         3    ;  uncertainty k = 0.189734
        19        20        28        56     9      180.000000        0.150432         4    ;  uncertainty k = 0.033481
        20        21        22        23     9        0.000000        0.267850         1    ;  uncertainty k = 0.434076
        20        21        22        23     9      180.000000        5.596174         2    ;  uncertainty k = 0.479083
        20        21        22        23     9        0.000000        0.525521         3    ;  uncertainty k = 0.209090
        20        21        22        23     9      180.000000       -0.080038         4    ;  uncertainty k = 0.143103
        20        21        22        24     9        0.000000       -0.807203         1    ;  uncertainty k = 1.678478
        20        21        22        24     9      180.000000        3.101737         2    ;  uncertainty k = 0.502701
        20        21        22        24     9        0.000000       -0.584870         3    ;  uncertainty k = 0.363867
        20        21        22        24     9      180.000000        0.407747         4    ;  uncertainty k = 0.104996
        20        28        25        24     9        0.000000       -0.779351         1    ;  uncertainty k = 1.271616
        20        28        25        24     9      180.000000       -0.810022         2    ;  uncertainty k = 0.439293
        20        28        25        24     9        0.000000        1.125399         3    ;  uncertainty k = 0.236290
        20        28        25        24     9      180.000000       -0.565116         4    ;  uncertainty k = 0.070459
        20        28        25        26     9        0.000000       -2.059378         1    ;  uncertainty k = 0.851927
        20        28        25        26     9      180.000000        0.138693         2    ;  uncertainty k = 0.296506
        20        28        25        26     9        0.000000        0.960865         3    ;  uncertainty k = 0.087683
        20        28        25        26     9      180.000000       -0.140925         4    ;  uncertainty k = 0.099251
        20        28        25        27     9        0.000000       -2.059378         1    ;  uncertainty k = 0.851927
        20        28        25        27     9      180.000000        0.138693         2    ;  uncertainty k = 0.296506
        20        28        25        27     9        0.000000        0.960865         3    ;  uncertainty k = 0.087683
        20        28        25        27     9      180.000000       -0.140925         4    ;  uncertainty k = 0.099251
        21         2         1        29     9        0.000000       -0.350341         1    ;  uncertainty k = 0.230831
        21         2         1        29     9      180.000000        2.425643         2    ;  uncertainty k = 0.391551
        21         2         1        29     9        0.000000        0.520985         3    ;  uncertainty k = 0.098015
        21         2         1        29     9      180.000000        0.211608         4    ;  uncertainty k = 0.095515
        21         2         1        30     9        0.000000       -0.350341         1    ;  uncertainty k = 0.230831
        21         2         1        30     9      180.000000        2.425643         2    ;  uncertainty k = 0.391551
        21         2         1        30     9        0.000000        0.520985         3    ;  uncertainty k = 0.098015
        21         2         1        30     9      180.000000        0.211608         4    ;  uncertainty k = 0.095515
        21         2         1        31     9        0.000000       -0.350341         1    ;  uncertainty k = 0.230831
        21         2         1        31     9      180.000000        2.425643         2    ;  uncertainty k = 0.391551
        21         2         1        31     9        0.000000        0.520985         3    ;  uncertainty k = 0.098015
        21         2         1        31     9      180.000000        0.211608         4    ;  uncertainty k = 0.095515
        21        20        28        25     9        0.000000       -5.743625         1    ;  uncertainty k = 0.992785
        21        20        28        25     9      180.000000        3.423295         2    ;  uncertainty k = 0.718952
        21        20        28        25     9        0.000000       -0.241331         3    ;  uncertainty k = 0.408245
        21        20        28        25     9      180.000000       -0.102577         4    ;  uncertainty k = 0.192591
        21        20        28        55     9        0.000000        0.132939         1    ;  uncertainty k = 0.353732
        21        20        28        55     9      180.000000        1.654253         2    ;  uncertainty k = 0.268580
        21        20        28        55     9        0.000000        0.086087         3    ;  uncertainty k = 0.209388
        21        20        28        55     9      180.000000       -0.010768         4    ;  uncertainty k = 0.059037
        21        20        28        56     9        0.000000        0.132939         1    ;  uncertainty k = 0.353732
        21        20        28        56     9      180.000000        1.654253         2    ;  uncertainty k = 0.268580
        21        20        28        56     9        0.000000        0.086087         3    ;  uncertainty k = 0.209388
        21        20        28        56     9      180.000000       -0.010768         4    ;  uncertainty k = 0.059037
        21        22        24        25     9        0.000000       -1.816999         1    ;  uncertainty k = 1.169015
        21        22        24        25     9      180.000000        1.111719         2    ;  uncertainty k = 0.775326
        21        22        24        25     9        0.000000        0.530189         3    ;  uncertainty k = 0.364970
        21        22        24        25     9      180.000000        0.320395         4    ;  uncertainty k = 0.142559
        21        22        24        47     9        0.000000       -2.829393         1    ;  uncertainty k = 0.709562
        21        22        24        47     9      180.000000        2.442710         2    ;  uncertainty k = 0.465671
        21        22        24        47     9        0.000000        0.611080         3    ;  uncertainty k = 0.177240
        21        22        24        47     9      180.000000        0.073930         4    ;  uncertainty k = 0.113308
        21        22        24        48     9        0.000000       -2.829393         1    ;  uncertainty k = 0.709562
        21        22        24        48     9      180.000000        2.442710         2    ;  uncertainty k = 0.465671
        21        22        24        48     9        0.000000        0.611080         3    ;  uncertainty k = 0.177240
        21        22        24        48     9      180.000000        0.073930         4    ;  uncertainty k = 0.113308
        22        21        20        28     9        0.000000       -0.297424         1    ;  uncertainty k = 0.377298
        22        21        20        28     9      180.000000        7.571016         2    ;  uncertainty k = 0.845428
        22        21        20        28     9        0.000000        1.304070         3    ;  uncertainty k = 0.246622
        22        21        20        28     9      180.000000        0.870019         4    ;  uncertainty k = 0.242607
        22        24        25        26     9        0.000000       -3.108042         1    ;  uncertainty k = 1.074988
        22        24        25        26     9      180.000000        0.837403         2    ;  uncertainty k = 0.454399
        22        24        25        26     9        0.000000        0.620633         3    ;  uncertainty k = 0.203581
        22        24        25        26     9      180.000000       -0.175457         4    ;  uncertainty k = 0.135641
        22        24        25        27     9        0.000000       -3.108042         1    ;  uncertainty k = 1.074988
        22        24        25        27     9      180.000000        0.837403         2    ;  uncertainty k = 0.454399
        22        24        25        27     9        0.000000        0.620633         3    ;  uncertainty k = 0.203581
        22        24        25        27     9      180.000000       -0.175457         4    ;  uncertainty k = 0.135641
        22        24        25        28     9        0.000000        4.426180         1    ;  uncertainty k = 2.123988
        22        24        25        28     9      180.000000       -2.017071         2    ;  uncertainty k = 1.183009
        22        24        25        28     9        0.000000       -0.145895         3    ;  uncertainty k = 0.490515
        22        24        25        28     9      180.000000       -0.170555         4    ;  uncertainty k = 0.458127
        23        22        24        25     9        0.000000       -1.651345         1    ;  uncertainty k = 1.529623
        23        22        24        25     9      180.000000        4.493844         2    ;  uncertainty k = 0.895842
        23        22        24        25     9        0.000000        1.248224         3    ;  uncertainty k = 0.555966
        23        22        24        25     9      180.000000        0.499234         4    ;  uncertainty k = 0.193383
        23        22        24        47     9        0.000000        1.807907         1    ;  uncertainty k = 0.733952
        23        22        24        47     9      180.000000        4.455562         2    ;  uncertainty k = 0.196116
        23        22        24        47     9        0.000000        0.423865         3    ;  uncertainty k = 0.105725
        23        22        24        47     9      180.000000        0.189425         4    ;  uncertainty k = 0.055096
        23        22        24        48     9        0.000000        1.807907         1    ;  uncertainty k = 0.733952
        23        22        24        48     9      180.000000        4.455562         2    ;  uncertainty k = 0.196116
        23        22        24        48     9        0.000000        0.423865         3    ;  uncertainty k = 0.105725
        23        22        24        48     9      180.000000        0.189425         4    ;  uncertainty k = 0.055096
        24        25        26        49     9        0.000000       -0.849960         1    ;  uncertainty k = 0.267419
        24        25        26        49     9      180.000000       -0.697110         2    ;  uncertainty k = 0.151027
        24        25        26        49     9        0.000000        0.772063         3    ;  uncertainty k = 0.038120
        24        25        26        49     9      180.000000       -0.185621         4    ;  uncertainty k = 0.075834
        24        25        26        50     9        0.000000       -0.849960         1    ;  uncertainty k = 0.267419
        24        25        26        50     9      180.000000       -0.697110         2    ;  uncertainty k = 0.151027
        24        25        26        50     9        0.000000        0.772063         3    ;  uncertainty k = 0.038120
        24        25        26        50     9      180.000000       -0.185621         4    ;  uncertainty k = 0.075834
        24        25        26        51     9        0.000000       -0.849960         1    ;  uncertainty k = 0.267419
        24        25        26        51     9      180.000000       -0.697110         2    ;  uncertainty k = 0.151027
        24        25        26        51     9        0.000000        0.772063         3    ;  uncertainty k = 0.038120
        24        25        26        51     9      180.000000       -0.185621         4    ;  uncertainty k = 0.075834
        24        25        27        52     9        0.000000       -0.849960         1    ;  uncertainty k = 0.267419
        24        25        27        52     9      180.000000       -0.697110         2    ;  uncertainty k = 0.151027
        24        25        27        52     9        0.000000        0.772063         3    ;  uncertainty k = 0.038120
        24        25        27        52     9      180.000000       -0.185621         4    ;  uncertainty k = 0.075834
        24        25        27        53     9        0.000000       -0.849960         1    ;  uncertainty k = 0.267419
        24        25        27        53     9      180.000000       -0.697110         2    ;  uncertainty k = 0.151027
        24        25        27        53     9        0.000000        0.772063         3    ;  uncertainty k = 0.038120
        24        25        27        53     9      180.000000       -0.185621         4    ;  uncertainty k = 0.075834
        24        25        27        54     9        0.000000       -0.849960         1    ;  uncertainty k = 0.267419
        24        25        27        54     9      180.000000       -0.697110         2    ;  uncertainty k = 0.151027
        24        25        27        54     9        0.000000        0.772063         3    ;  uncertainty k = 0.038120
        24        25        27        54     9      180.000000       -0.185621         4    ;  uncertainty k = 0.075834
        24        25        28        55     9        0.000000       -0.565077         1    ;  uncertainty k = 0.337933
        24        25        28        55     9      180.000000       -0.552917         2    ;  uncertainty k = 0.313964
        24        25        28        55     9        0.000000        0.111029         3    ;  uncertainty k = 0.061469
        24        25        28        55     9      180.000000        0.013508         4    ;  uncertainty k = 0.088562
        24        25        28        56     9        0.000000       -0.565077         1    ;  uncertainty k = 0.337933
        24        25        28        56     9      180.000000       -0.552917         2    ;  uncertainty k = 0.313964
        24        25        28        56     9        0.000000        0.111029         3    ;  uncertainty k = 0.061469
        24        25        28        56     9      180.000000        0.013508         4    ;  uncertainty k = 0.088562
        26        25        24        47     9        0.000000       -0.380879         1    ;  uncertainty k = 0.148987
        26        25        24        47     9      180.000000        0.029116         2    ;  uncertainty k = 0.242309
        26        25        24        47     9        0.000000        0.376394         3    ;  uncertainty k = 0.083406
        26        25        24        47     9      180.000000       -0.141551         4    ;  uncertainty k = 0.073708
        26        25        24        48     9        0.000000       -0.380879         1    ;  uncertainty k = 0.148987
        26        25        24        48     9      180.000000        0.029116         2    ;  uncertainty k = 0.242309
        26        25        24        48     9        0.000000        0.376394         3    ;  uncertainty k = 0.083406
        26        25        24        48     9      180.000000       -0.141551         4    ;  uncertainty k = 0.073708
        26        25        27        52     9        0.000000       -1.100689         1    ;  uncertainty k = 0.262907
        26        25        27        52     9      180.000000       -0.104141         2    ;  uncertainty k = 0.144225
        26        25        27        52     9        0.000000        0.812856         3    ;  uncertainty k = 0.036112
        26        25        27        52     9      180.000000       -0.129298         4    ;  uncertainty k = 0.042322
        26        25        27        53     9        0.000000       -1.100689         1    ;  uncertainty k = 0.262907
        26        25        27        53     9      180.000000       -0.104141         2    ;  uncertainty k = 0.144225
        26        25        27        53     9        0.000000        0.812856         3    ;  uncertainty k = 0.036112
        26        25        27        53     9      180.000000       -0.129298         4    ;  uncertainty k = 0.042322
        26        25        27        54     9        0.000000       -1.100689         1    ;  uncertainty k = 0.262907
        26        25        27        54     9      180.000000       -0.104141         2    ;  uncertainty k = 0.144225
        26        25        27        54     9        0.000000        0.812856         3    ;  uncertainty k = 0.036112
        26        25        27        54     9      180.000000       -0.129298         4    ;  uncertainty k = 0.042322
        26        25        28        55     9        0.000000       -0.345052         1    ;  uncertainty k = 0.164725
        26        25        28        55     9      180.000000       -0.042992         2    ;  uncertainty k = 0.303596
        26        25        28        55     9        0.000000        0.449839         3    ;  uncertainty k = 0.094580
        26        25        28        55     9      180.000000       -0.101076         4    ;  uncertainty k = 0.068895
        26        25        28        56     9        0.000000       -0.345052         1    ;  uncertainty k = 0.164725
        26        25        28        56     9      180.000000       -0.042992         2    ;  uncertainty k = 0.303596
        26        25        28        56     9        0.000000        0.449839         3    ;  uncertainty k = 0.094580
        26        25        28        56     9      180.000000       -0.101076         4    ;  uncertainty k = 0.068895
        27        25        24        47     9        0.000000       -0.380879         1    ;  uncertainty k = 0.148987
        27        25        24        47     9      180.000000        0.029116         2    ;  uncertainty k = 0.242309
        27        25        24        47     9        0.000000        0.376394         3    ;  uncertainty k = 0.083406
        27        25        24        47     9      180.000000       -0.141551         4    ;  uncertainty k = 0.073708
        27        25        24        48     9        0.000000       -0.380879         1    ;  uncertainty k = 0.148987
        27        25        24        48     9      180.000000        0.029116         2    ;  uncertainty k = 0.242309
        27        25        24        48     9        0.000000        0.376394         3    ;  uncertainty k = 0.083406
        27        25        24        48     9      180.000000       -0.141551         4    ;  uncertainty k = 0.073708
        27        25        26        49     9        0.000000       -1.100689         1    ;  uncertainty k = 0.262907
        27        25        26        49     9      180.000000       -0.104141         2    ;  uncertainty k = 0.144225
        27        25        26        49     9        0.000000        0.812856         3    ;  uncertainty k = 0.036112
        27        25        26        49     9      180.000000       -0.129298         4    ;  uncertainty k = 0.042322
        27        25        26        50     9        0.000000       -1.100689         1    ;  uncertainty k = 0.262907
        27        25        26        50     9      180.000000       -0.104141         2    ;  uncertainty k = 0.144225
        27        25        26        50     9        0.000000        0.812856         3    ;  uncertainty k = 0.036112
        27        25        26        50     9      180.000000       -0.129298         4    ;  uncertainty k = 0.042322
        27        25        26        51     9        0.000000       -1.100689         1    ;  uncertainty k = 0.262907
        27        25        26        51     9      180.000000       -0.104141         2    ;  uncertainty k = 0.144225
        27        25        26        51     9        0.000000        0.812856         3    ;  uncertainty k = 0.036112
        27        25        26        51     9      180.000000       -0.129298         4    ;  uncertainty k = 0.042322
        27        25        28        55     9        0.000000       -0.345052         1    ;  uncertainty k = 0.164725
        27        25        28        55     9      180.000000       -0.042992         2    ;  uncertainty k = 0.303596
        27        25        28        55     9        0.000000        0.449839         3    ;  uncertainty k = 0.094580
        27        25        28        55     9      180.000000       -0.101076         4    ;  uncertainty k = 0.068895
        27        25        28        56     9        0.000000       -0.345052         1    ;  uncertainty k = 0.164725
        27        25        28        56     9      180.000000       -0.042992         2    ;  uncertainty k = 0.303596
        27        25        28        56     9        0.000000        0.449839         3    ;  uncertainty k = 0.094580
        27        25        28        56     9      180.000000       -0.101076         4    ;  uncertainty k = 0.068895
        28        25        24        47     9        0.000000       -0.493419         1    ;  uncertainty k = 0.248638
        28        25        24        47     9      180.000000       -0.717372         2    ;  uncertainty k = 0.190838
        28        25        24        47     9        0.000000       -0.027739         3    ;  uncertainty k = 0.072348
        28        25        24        47     9      180.000000       -0.010183         4    ;  uncertainty k = 0.107964
        28        25        24        48     9        0.000000       -0.493419         1    ;  uncertainty k = 0.248638
        28        25        24        48     9      180.000000       -0.717372         2    ;  uncertainty k = 0.190838
        28        25        24        48     9        0.000000       -0.027739         3    ;  uncertainty k = 0.072348
        28        25        24        48     9      180.000000       -0.010183         4    ;  uncertainty k = 0.107964
        28        25        26        49     9        0.000000       -0.498537         1    ;  uncertainty k = 0.143112
        28        25        26        49     9      180.000000       -0.848272         2    ;  uncertainty k = 0.184452
        28        25        26        49     9        0.000000        0.727631         3    ;  uncertainty k = 0.102119
        28        25        26        49     9      180.000000       -0.161619         4    ;  uncertainty k = 0.028801
        28        25        26        50     9        0.000000       -0.498537         1    ;  uncertainty k = 0.143112
        28        25        26        50     9      180.000000       -0.848272         2    ;  uncertainty k = 0.184452
        28        25        26        50     9        0.000000        0.727631         3    ;  uncertainty k = 0.102119
        28        25        26        50     9      180.000000       -0.161619         4    ;  uncertainty k = 0.028801
        28        25        26        51     9        0.000000       -0.498537         1    ;  uncertainty k = 0.143112
        28        25        26        51     9      180.000000       -0.848272         2    ;  uncertainty k = 0.184452
        28        25        26        51     9        0.000000        0.727631         3    ;  uncertainty k = 0.102119
        28        25        26        51     9      180.000000       -0.161619         4    ;  uncertainty k = 0.028801
        28        25        27        52     9        0.000000       -0.498537         1    ;  uncertainty k = 0.143112
        28        25        27        52     9      180.000000       -0.848272         2    ;  uncertainty k = 0.184452
        28        25        27        52     9        0.000000        0.727631         3    ;  uncertainty k = 0.102119
        28        25        27        52     9      180.000000       -0.161619         4    ;  uncertainty k = 0.028801
        28        25        27        53     9        0.000000       -0.498537         1    ;  uncertainty k = 0.143112
        28        25        27        53     9      180.000000       -0.848272         2    ;  uncertainty k = 0.184452
        28        25        27        53     9        0.000000        0.727631         3    ;  uncertainty k = 0.102119
        28        25        27        53     9      180.000000       -0.161619         4    ;  uncertainty k = 0.028801
        28        25        27        54     9        0.000000       -0.498537         1    ;  uncertainty k = 0.143112
        28        25        27        54     9      180.000000       -0.848272         2    ;  uncertainty k = 0.184452
        28        25        27        54     9        0.000000        0.727631         3    ;  uncertainty k = 0.102119
        28        25        27        54     9      180.000000       -0.161619         4    ;  uncertainty k = 0.028801
        32         4         5        34     9        0.000000        0.063476         1    ;  uncertainty k = 0.242042
        32         4         5        34     9      180.000000        0.010943         2    ;  uncertainty k = 0.300506
        32         4         5        34     9        0.000000        0.247229         3    ;  uncertainty k = 0.096505
        32         4         5        34     9      180.000000        0.066417         4    ;  uncertainty k = 0.031553
        32         4         5        35     9        0.000000        0.063476         1    ;  uncertainty k = 0.242042
        32         4         5        35     9      180.000000        0.010943         2    ;  uncertainty k = 0.300506
        32         4         5        35     9        0.000000        0.247229         3    ;  uncertainty k = 0.096505
        32         4         5        35     9      180.000000        0.066417         4    ;  uncertainty k = 0.031553
        33         4         5        34     9        0.000000        0.063476         1    ;  uncertainty k = 0.242042
        33         4         5        34     9      180.000000        0.010943         2    ;  uncertainty k = 0.300506
        33         4         5        34     9        0.000000        0.247229         3    ;  uncertainty k = 0.096505
        33         4         5        34     9      180.000000        0.066417         4    ;  uncertainty k = 0.031553
        33         4         5        35     9        0.000000        0.063476         1    ;  uncertainty k = 0.242042
        33         4         5        35     9      180.000000        0.010943         2    ;  uncertainty k = 0.300506
        33         4         5        35     9        0.000000        0.247229         3    ;  uncertainty k = 0.096505
        33         4         5        35     9      180.000000        0.066417         4    ;  uncertainty k = 0.031553
        34         5         6        36     9        0.000000        0.320786         1    ;  uncertainty k = 0.735295
        34         5         6        36     9      180.000000       -0.277423         2    ;  uncertainty k = 0.240473
        34         5         6        36     9        0.000000        0.217132         3    ;  uncertainty k = 0.043499
        34         5         6        36     9      180.000000        0.041595         4    ;  uncertainty k = 0.099149
        34         5         6        57     9        0.000000        0.320786         1    ;  uncertainty k = 0.735295
        34         5         6        57     9      180.000000       -0.277423         2    ;  uncertainty k = 0.240473
        34         5         6        57     9        0.000000        0.217132         3    ;  uncertainty k = 0.043499
        34         5         6        57     9      180.000000        0.041595         4    ;  uncertainty k = 0.099149
        35         5         6        36     9        0.000000        0.320786         1    ;  uncertainty k = 0.735295
        35         5         6        36     9      180.000000       -0.277423         2    ;  uncertainty k = 0.240473
        35         5         6        36     9        0.000000        0.217132         3    ;  uncertainty k = 0.043499
        35         5         6        36     9      180.000000        0.041595         4    ;  uncertainty k = 0.099149
        35         5         6        57     9        0.000000        0.320786         1    ;  uncertainty k = 0.735295
        35         5         6        57     9      180.000000       -0.277423         2    ;  uncertainty k = 0.240473
        35         5         6        57     9        0.000000        0.217132         3    ;  uncertainty k = 0.043499
        35         5         6        57     9      180.000000        0.041595         4    ;  uncertainty k = 0.099149
        36         6         7        37     9        0.000000        0.263822         1    ;  uncertainty k = 0.763178
        36         6         7        37     9      180.000000       -0.244077         2    ;  uncertainty k = 0.277793
        36         6         7        37     9        0.000000        0.210672         3    ;  uncertainty k = 0.033288
        36         6         7        37     9      180.000000        0.044773         4    ;  uncertainty k = 0.112076
        36         6         7        38     9        0.000000        0.263822         1    ;  uncertainty k = 0.763178
        36         6         7        38     9      180.000000       -0.244077         2    ;  uncertainty k = 0.277793
        36         6         7        38     9        0.000000        0.210672         3    ;  uncertainty k = 0.033288
        36         6         7        38     9      180.000000        0.044773         4    ;  uncertainty k = 0.112076
        37         7         6        57     9        0.000000        0.263822         1    ;  uncertainty k = 0.763178
        37         7         6        57     9      180.000000       -0.244077         2    ;  uncertainty k = 0.277793
        37         7         6        57     9        0.000000        0.210672         3    ;  uncertainty k = 0.033288
        37         7         6        57     9      180.000000        0.044773         4    ;  uncertainty k = 0.112076
        37         7         8        39     9        0.000000       -0.194473         1    ;  uncertainty k = 0.463214
        37         7         8        39     9      180.000000        0.176607         2    ;  uncertainty k = 0.514992
        37         7         8        39     9        0.000000        0.263473         3    ;  uncertainty k = 0.164264
        37         7         8        39     9      180.000000        0.021849         4    ;  uncertainty k = 0.061558
        37         7         8        40     9        0.000000       -0.194473         1    ;  uncertainty k = 0.463214
        37         7         8        40     9      180.000000        0.176607         2    ;  uncertainty k = 0.514992
        37         7         8        40     9        0.000000        0.263473         3    ;  uncertainty k = 0.164264
        37         7         8        40     9      180.000000        0.021849         4    ;  uncertainty k = 0.061558
        38         7         6        57     9        0.000000        0.263822         1    ;  uncertainty k = 0.763178
        38         7         6        57     9      180.000000       -0.244077         2    ;  uncertainty k = 0.277793
        38         7         6        57     9        0.000000        0.210672         3    ;  uncertainty k = 0.033288
        38         7         6        57     9      180.000000        0.044773         4    ;  uncertainty k = 0.112076
        38         7         8        39     9        0.000000       -0.194473         1    ;  uncertainty k = 0.463214
        38         7         8        39     9      180.000000        0.176607         2    ;  uncertainty k = 0.514992
        38         7         8        39     9        0.000000        0.263473         3    ;  uncertainty k = 0.164264
        38         7         8        39     9      180.000000        0.021849         4    ;  uncertainty k = 0.061558
        38         7         8        40     9        0.000000       -0.194473         1    ;  uncertainty k = 0.463214
        38         7         8        40     9      180.000000        0.176607         2    ;  uncertainty k = 0.514992
        38         7         8        40     9        0.000000        0.263473         3    ;  uncertainty k = 0.164264
        38         7         8        40     9      180.000000        0.021849         4    ;  uncertainty k = 0.061558
        39         8         9        41     9        0.000000        2.330728         1    ;  uncertainty k = 0.861580
        39         8         9        41     9      180.000000       -2.428598         2    ;  uncertainty k = 0.634377
        39         8         9        41     9        0.000000        0.049497         3    ;  uncertainty k = 0.133661
        39         8         9        41     9      180.000000        0.096917         4    ;  uncertainty k = 0.138162
        40         8         9        41     9        0.000000        2.330728         1    ;  uncertainty k = 0.861580
        40         8         9        41     9      180.000000       -2.428598         2    ;  uncertainty k = 0.634377
        40         8         9        41     9        0.000000        0.049497         3    ;  uncertainty k = 0.133661
        40         8         9        41     9      180.000000        0.096917         4    ;  uncertainty k = 0.138162
        43        13        14        44     9        0.000000       -0.161457         1    ;  uncertainty k = 0.314301
        43        13        14        44     9      180.000000        7.599374         2    ;  uncertainty k = 0.529227
        43        13        14        44     9        0.000000       -0.373990         3    ;  uncertainty k = 0.212621
        43        13        14        44     9      180.000000        0.361659         4    ;  uncertainty k = 0.257633

[ dihedrals ] ; impropers
;       ai        aj        ak        al funct           phase               k        pn
         2         1         3        21     4      180.000000        7.953584         2    ;  uncertainty k = 0.248799
         2         3        21         1     4      180.000000        7.953584         2    ;  uncertainty k = 0.248799
         2        21         1         3     4      180.000000        7.953584         2    ;  uncertainty k = 0.248799
         3         2         4        19     4      180.000000        2.158980         2    ;  uncertainty k = 0.371469
         3         4        19         2     4      180.000000        2.158980         2    ;  uncertainty k = 0.371469
         3        19         2         4     4      180.000000        2.158980         2    ;  uncertainty k = 0.371469
        10         9        11        15     4      180.000000       22.975495         2    ;  uncertainty k = 0.096304
        10        11        15         9     4      180.000000       22.975495         2    ;  uncertainty k = 0.096304
        10        15         9        11     4      180.000000       22.975495         2    ;  uncertainty k = 0.096304
        11        10        12        42     4      180.000000        1.820071         2    ;  uncertainty k = 0.584916
        11        12        42        10     4      180.000000        1.820071         2    ;  uncertainty k = 0.584916
        11        42        10        12     4      180.000000        1.820071         2    ;  uncertainty k = 0.584916
        12        11        13        19     4      180.000000       17.276859         2    ;  uncertainty k = 0.047149
        12        13        19        11     4      180.000000       17.276859         2    ;  uncertainty k = 0.047149
        12        19        11        13     4      180.000000       17.276859         2    ;  uncertainty k = 0.047149
        13        12        14        43     4      180.000000        1.764889         2    ;  uncertainty k = 0.320932
        13        14        43        12     4      180.000000        1.764889         2    ;  uncertainty k = 0.320932
        13        43        12        14     4      180.000000        1.764889         2    ;  uncertainty k = 0.320932
        14        13        15        44     4      180.000000        4.670372         2    ;  uncertainty k = 0.321152
        14        15        44        13     4      180.000000        4.670372         2    ;  uncertainty k = 0.321152
        14        44        13        15     4      180.000000        4.670372         2    ;  uncertainty k = 0.321152
        15        10        14        16     4      180.000000        6.170465         2    ;  uncertainty k = 0.350409
        15        14        16        10     4      180.000000        6.170465         2    ;  uncertainty k = 0.350409
        15        16        10        14     4      180.000000        6.170465         2    ;  uncertainty k = 0.350409
        16        15        17        18     4      180.000000       54.303312         2    ;  uncertainty k = 0.052982
        16        17        18        15     4      180.000000       54.303312         2    ;  uncertainty k = 0.052982
        16        18        15        17     4      180.000000       54.303312         2    ;  uncertainty k = 0.052982
        19         3        12        20     4      180.000000        0.110289         2    ;  uncertainty k = 0.246614
        19        12        20         3     4      180.000000        0.110289         2    ;  uncertainty k = 0.246614
        19        20         3        12     4      180.000000        0.110289         2    ;  uncertainty k = 0.246614
        20        19        21        28     4      180.000000        6.889142         2    ;  uncertainty k = 0.184384
        20        21        28        19     4      180.000000        6.889142         2    ;  uncertainty k = 0.184384
        20        28        19        21     4      180.000000        6.889142         2    ;  uncertainty k = 0.184384
        22        21        23        24     4      180.000000       55.461398         2    ;  uncertainty k = 0.044608
        22        23        24        21     4      180.000000       55.461398         2    ;  uncertainty k = 0.044608
        22        24        21        23     4      180.000000       55.461398         2    ;  uncertainty k = 0.044608

[ pairs ]
;       ai        aj funct
         1         4     1
         1        19     1
         1        20     1
         1        22     1
         2         5     1
         2        12     1
         2        23     1
         2        24     1
         2        28     1
         2        32     1
         2        33     1
         3         6     1
         3        11     1
         3        13     1
         3        22     1
         3        28     1
         3        29     1
         3        30     1
         3        31     1
         3        34     1
         3        35     1
         4         7     1
         4        12     1
         4        20     1
         4        21     1
         4        36     1
         4        57     1
         5         8     1
         5        19     1
         5        37     1
         5        38     1
         6         9     1
         6        32     1
         6        33     1
         6        39     1
         6        40     1
         7        10     1
         7        34     1
         7        35     1
         7        41     1
         8        11     1
         8        15     1
         8        36     1
         8        57     1
         9        12     1
         9        14     1
         9        16     1
         9        37     1
         9        38     1
         9        42     1
        10        13     1
        10        17     1
        10        18     1
        10        19     1
        10        39     1
        10        40     1
        10        44     1
        11        14     1
        11        16     1
        11        20     1
        11        41     1
        11        43     1
        12        15     1
        12        21     1
        12        28     1
        12        44     1
        13        16     1
        13        20     1
        13        42     1
        14        17     1
        14        18     1
        14        19     1
        15        41     1
        15        42     1
        15        43     1
        15        45     1
        15        46     1
        16        44     1
        18        45     1
        18        46     1
        19        22     1
        19        25     1
        19        32     1
        19        33     1
        19        42     1
        19        43     1
        19        55     1
        19        56     1
        20        23     1
        20        24     1
        20        26     1
        20        27     1
        21        25     1
        21        29     1
        21        30     1
        21        31     1
        21        47     1
        21        48     1
        21        55     1
        21        56     1
        22        26     1
        22        27     1
        22        28     1
        23        25     1
        23        47     1
        23        48     1
        24        49     1
        24        50     1
        24        51     1
        24        52     1
        24        53     1
        24        54     1
        24        55     1
        24        56     1
        26        47     1
        26        48     1
        26        52     1
        26        53     1
        26        54     1
        26        55     1
        26        56     1
        27        47     1
        27        48     1
        27        49     1
        27        50     1
        27        51     1
        27        55     1
        27        56     1
        28        47     1
        28        48     1
        28        49     1
        28        50     1
        28        51     1
        28        52     1
        28        53     1
        28        54     1
        32        34     1
        32        35     1
        33        34     1
        33        35     1
        34        36     1
        34        57     1
        35        36     1
        35        57     1
        36        37     1
        36        38     1
        37        39     1
        37        40     1
        37        57     1
        38        39     1
        38        40     1
        38        57     1
        39        41     1
        40        41     1
        43        44     1
