; ITP file created by ByteFF-joint-25, 2025-07-14 11:32:31.007053

[ atomtypes ]
;name           bonded.type        at.num        mass        charge   ptype           sigma         epsilon
 c0bf                                   6      0.0000       0.00000       A     3.39771e-01     4.50975e-01    ;  uncertainty sigma = 0.000006, epsilon = 0.000758
 c1bf                                   6      0.0000       0.00000       A     3.31511e-01     4.12792e-01    ;  uncertainty sigma = 0.000007, epsilon = 0.000910
 c2bf                                   6      0.0000       0.00000       A     3.31519e-01     4.13466e-01    ;  uncertainty sigma = 0.000005, epsilon = 0.000518
 n3bf                                   7      0.0000       0.00000       A     3.20644e-01     8.55647e-01    ;  uncertainty sigma = 0.000044, epsilon = 0.001497
 c4bf                                   6      0.0000       0.00000       A     3.31491e-01     4.12753e-01    ;  uncertainty sigma = 0.000011, epsilon = 0.001565
 c5bf                                   6      0.0000       0.00000       A     3.31525e-01     4.12979e-01    ;  uncertainty sigma = 0.000017, epsilon = 0.000933
 c6bf                                   6      0.0000       0.00000       A     3.31520e-01     4.13800e-01    ;  uncertainty sigma = 0.000012, epsilon = 0.000861
 o7bf                                   8      0.0000       0.00000       A     3.04813e-01     6.11403e-01    ;  uncertainty sigma = 0.000026, epsilon = 0.002112
 c8bf                                   6      0.0000       0.00000       A     3.39794e-01     4.50514e-01    ;  uncertainty sigma = 0.000014, epsilon = 0.001647
 c9bf                                   6      0.0000       0.00000       A     3.39757e-01     4.49586e-01    ;  uncertainty sigma = 0.000020, epsilon = 0.001126
 c10bf                                  6      0.0000       0.00000       A     3.39763e-01     4.50525e-01    ;  uncertainty sigma = 0.000013, epsilon = 0.000867
 c11bf                                  6      0.0000       0.00000       A     3.39753e-01     4.50877e-01    ;  uncertainty sigma = 0.000007, epsilon = 0.000775
 c12bf                                  6      0.0000       0.00000       A     3.39753e-01     4.50877e-01    ;  uncertainty sigma = 0.000007, epsilon = 0.000775
 c13bf                                  6      0.0000       0.00000       A     3.31548e-01     4.13199e-01    ;  uncertainty sigma = 0.000012, epsilon = 0.001174
 c14bf                                  6      0.0000       0.00000       A     3.31527e-01     4.13250e-01    ;  uncertainty sigma = 0.000006, epsilon = 0.000602
 c15bf                                  6      0.0000       0.00000       A     3.31513e-01     4.13571e-01    ;  uncertainty sigma = 0.000004, epsilon = 0.001064
 c16bf                                  6      0.0000       0.00000       A     3.31512e-01     4.12996e-01    ;  uncertainty sigma = 0.000021, epsilon = 0.002020
 c17bf                                  6      0.0000       0.00000       A     3.31530e-01     4.13439e-01    ;  uncertainty sigma = 0.000016, epsilon = 0.001095
 c18bf                                  6      0.0000       0.00000       A     3.31530e-01     4.13517e-01    ;  uncertainty sigma = 0.000013, epsilon = 0.001251
 n19bf                                  7      0.0000       0.00000       A     3.27878e-01     6.43494e-01    ;  uncertainty sigma = 0.000040, epsilon = 0.002915
 c20bf                                  6      0.0000       0.00000       A     3.39770e-01     4.50806e-01    ;  uncertainty sigma = 0.000007, epsilon = 0.000909
 c21bf                                  6      0.0000       0.00000       A     3.39751e-01     4.50930e-01    ;  uncertainty sigma = 0.000019, epsilon = 0.000390
 c22bf                                  6      0.0000       0.00000       A     3.39821e-01     4.51206e-01    ;  uncertainty sigma = 0.000017, epsilon = 0.000343
 n23bf                                  7      0.0000       0.00000       A     3.18072e-01     6.84155e-01    ;  uncertainty sigma = 0.000047, epsilon = 0.004174
 c24bf                                  6      0.0000       0.00000       A     3.39787e-01     4.50736e-01    ;  uncertainty sigma = 0.000011, epsilon = 0.000614
 c25bf                                  6      0.0000       0.00000       A     3.39741e-01     4.50744e-01    ;  uncertainty sigma = 0.000013, epsilon = 0.000962
 c26bf                                  6      0.0000       0.00000       A     3.31667e-01     4.12488e-01    ;  uncertainty sigma = 0.000058, epsilon = 0.002166
 o27bf                                  8      0.0000       0.00000       A     3.04785e-01     6.11644e-01    ;  uncertainty sigma = 0.000035, epsilon = 0.004282
 c28bf                                  6      0.0000       0.00000       A     3.39835e-01     4.51575e-01    ;  uncertainty sigma = 0.000006, epsilon = 0.001667
 c29bf                                  6      0.0000       0.00000       A     3.39783e-01     4.50725e-01    ;  uncertainty sigma = 0.000021, epsilon = 0.001033
 n30bf                                  7      0.0000       0.00000       A     2.76919e-01     4.78270e+00    ;  uncertainty sigma = 0.000066, epsilon = 0.020142
 c31bf                                  6      0.0000       0.00000       A     3.39775e-01     4.50957e-01    ;  uncertainty sigma = 0.000006, epsilon = 0.000694
 c32bf                                  6      0.0000       0.00000       A     3.39765e-01     4.50834e-01    ;  uncertainty sigma = 0.000011, epsilon = 0.000533
 c33bf                                  6      0.0000       0.00000       A     3.31599e-01     4.13237e-01    ;  uncertainty sigma = 0.000040, epsilon = 0.000628
 o34bf                                  8      0.0000       0.00000       A     3.04824e-01     6.12665e-01    ;  uncertainty sigma = 0.000020, epsilon = 0.001529
 n35bf                                  7      0.0000       0.00000       A     3.36058e-01     3.53914e-01    ;  uncertainty sigma = 0.000035, epsilon = 0.002199
 h36bf                                  1      0.0000       0.00000       A     2.60040e-01     8.67372e-02    ;  uncertainty sigma = 0.000006, epsilon = 0.000499
 h37bf                                  1      0.0000       0.00000       A     2.60040e-01     8.67372e-02    ;  uncertainty sigma = 0.000006, epsilon = 0.000499
 h38bf                                  1      0.0000       0.00000       A     2.60040e-01     8.67372e-02    ;  uncertainty sigma = 0.000006, epsilon = 0.000499
 h39bf                                  1      0.0000       0.00000       A     2.60008e-01     8.64860e-02    ;  uncertainty sigma = 0.000016, epsilon = 0.000907
 h40bf                                  1      0.0000       0.00000       A     2.60008e-01     8.64860e-02    ;  uncertainty sigma = 0.000016, epsilon = 0.000907
 h41bf                                  1      0.0000       0.00000       A     2.60047e-01     8.64225e-02    ;  uncertainty sigma = 0.000017, epsilon = 0.000968
 h42bf                                  1      0.0000       0.00000       A     2.60047e-01     8.64225e-02    ;  uncertainty sigma = 0.000017, epsilon = 0.000968
 h43bf                                  1      0.0000       0.00000       A     2.60029e-01     8.67428e-02    ;  uncertainty sigma = 0.000008, epsilon = 0.000383
 h44bf                                  1      0.0000       0.00000       A     2.60029e-01     8.67428e-02    ;  uncertainty sigma = 0.000008, epsilon = 0.000383
 h45bf                                  1      0.0000       0.00000       A     2.60029e-01     8.67428e-02    ;  uncertainty sigma = 0.000008, epsilon = 0.000383
 h46bf                                  1      0.0000       0.00000       A     2.60029e-01     8.67428e-02    ;  uncertainty sigma = 0.000008, epsilon = 0.000383
 h47bf                                  1      0.0000       0.00000       A     2.60029e-01     8.67428e-02    ;  uncertainty sigma = 0.000008, epsilon = 0.000383
 h48bf                                  1      0.0000       0.00000       A     2.60029e-01     8.67428e-02    ;  uncertainty sigma = 0.000008, epsilon = 0.000383
 h49bf                                  1      0.0000       0.00000       A     2.62564e-01     6.71433e-02    ;  uncertainty sigma = 0.000012, epsilon = 0.000557
 h50bf                                  1      0.0000       0.00000       A     2.62564e-01     6.72864e-02    ;  uncertainty sigma = 0.000007, epsilon = 0.000873
 h51bf                                  1      0.0000       0.00000       A     2.62548e-01     6.72476e-02    ;  uncertainty sigma = 0.000011, epsilon = 0.000588
 h52bf                                  1      0.0000       0.00000       A     1.10605e-01     4.11790e-02    ;  uncertainty sigma = 0.000070, epsilon = 0.001030
 h53bf                                  1      0.0000       0.00000       A     2.42178e-01     8.71651e-02    ;  uncertainty sigma = 0.000038, epsilon = 0.001084
 h54bf                                  1      0.0000       0.00000       A     2.60058e-01     8.61927e-02    ;  uncertainty sigma = 0.000036, epsilon = 0.001017
 h55bf                                  1      0.0000       0.00000       A     2.42235e-01     8.69268e-02    ;  uncertainty sigma = 0.000015, epsilon = 0.000420
 h56bf                                  1      0.0000       0.00000       A     2.42235e-01     8.69268e-02    ;  uncertainty sigma = 0.000015, epsilon = 0.000420
 h57bf                                  1      0.0000       0.00000       A     2.42252e-01     8.71072e-02    ;  uncertainty sigma = 0.000023, epsilon = 0.000865
 h58bf                                  1      0.0000       0.00000       A     2.42252e-01     8.71072e-02    ;  uncertainty sigma = 0.000023, epsilon = 0.000865
 h59bf                                  1      0.0000       0.00000       A     2.60030e-01     8.67139e-02    ;  uncertainty sigma = 0.000024, epsilon = 0.000632
 h60bf                                  1      0.0000       0.00000       A     2.60030e-01     8.67139e-02    ;  uncertainty sigma = 0.000024, epsilon = 0.000632
 h61bf                                  1      0.0000       0.00000       A     1.88837e-01     8.58168e-02    ;  uncertainty sigma = 0.000137, epsilon = 0.002380
 h62bf                                  1      0.0000       0.00000       A     2.60033e-01     8.64293e-02    ;  uncertainty sigma = 0.000029, epsilon = 0.000673
 h63bf                                  1      0.0000       0.00000       A     2.60033e-01     8.64293e-02    ;  uncertainty sigma = 0.000029, epsilon = 0.000673
 h64bf                                  1      0.0000       0.00000       A     2.60033e-01     8.64293e-02    ;  uncertainty sigma = 0.000029, epsilon = 0.000673
 h65bf                                  1      0.0000       0.00000       A     1.10680e-01     4.09007e-02    ;  uncertainty sigma = 0.000046, epsilon = 0.000598
 h66bf                                  1      0.0000       0.00000       A     1.10680e-01     4.09007e-02    ;  uncertainty sigma = 0.000046, epsilon = 0.000598
 h67bf                                  1      0.0000       0.00000       A     2.60037e-01     8.66367e-02    ;  uncertainty sigma = 0.000011, epsilon = 0.000457
 h68bf                                  1      0.0000       0.00000       A     2.60037e-01     8.66367e-02    ;  uncertainty sigma = 0.000011, epsilon = 0.000457
 h69bf                                  1      0.0000       0.00000       A     2.60037e-01     8.66367e-02    ;  uncertainty sigma = 0.000011, epsilon = 0.000457
 h70bf                                  1      0.0000       0.00000       A     2.60037e-01     8.68959e-02    ;  uncertainty sigma = 0.000007, epsilon = 0.000356
 h71bf                                  1      0.0000       0.00000       A     2.60037e-01     8.68959e-02    ;  uncertainty sigma = 0.000007, epsilon = 0.000356
 h72bf                                  1      0.0000       0.00000       A     2.60037e-01     8.68959e-02    ;  uncertainty sigma = 0.000007, epsilon = 0.000356
 h73bf                                  1      0.0000       0.00000       A     1.10644e-01     4.14126e-02    ;  uncertainty sigma = 0.000051, epsilon = 0.000340
 h74bf                                  1      0.0000       0.00000       A     1.10644e-01     4.14126e-02    ;  uncertainty sigma = 0.000051, epsilon = 0.000340
 h75bf                                  1      0.0000       0.00000       A     1.10680e-01     4.09007e-02    ;  uncertainty sigma = 0.000046, epsilon = 0.000598

[ moleculetype ]
;name             nrexcl
 MOL                   3

[ atoms ]
;       nr            type      resi   res      atom      cgnr      charge          mass ; qtot
         1            c0bf         1   UNL        c0         1    -0.02468       12.0110 ; qtot   -0.025
         2            c1bf         1   UNL        c1         2    -0.05601       12.0110 ; qtot   -0.081
         3            c2bf         1   UNL        c2         3    -0.11465       12.0110 ; qtot   -0.195
         4            n3bf         1   UNL        n3         4     0.01405       14.0070 ; qtot   -0.181
         5            c4bf         1   UNL        c4         5    -0.03107       12.0110 ; qtot   -0.212
         6            c5bf         1   UNL        c5         6    -0.25568       12.0110 ; qtot   -0.468
         7            c6bf         1   UNL        c6         7     0.61468       12.0110 ; qtot    0.147
         8            o7bf         1   UNL        o7         8    -0.54925       15.9990 ; qtot   -0.403
         9            c8bf         1   UNL        c8         9    -0.16833       12.0110 ; qtot   -0.571
        10            c9bf         1   UNL        c9        10    -0.03637       12.0110 ; qtot   -0.607
        11           c10bf         1   UNL       c10        11    -0.01611       12.0110 ; qtot   -0.623
        12           c11bf         1   UNL       c11        12    -0.09136       12.0110 ; qtot   -0.715
        13           c12bf         1   UNL       c12        13    -0.09136       12.0110 ; qtot   -0.806
        14           c13bf         1   UNL       c13        14     0.05025       12.0110 ; qtot   -0.756
        15           c14bf         1   UNL       c14        15    -0.17072       12.0110 ; qtot   -0.927
        16           c15bf         1   UNL       c15        16    -0.03376       12.0110 ; qtot   -0.960
        17           c16bf         1   UNL       c16        17    -0.25431       12.0110 ; qtot   -1.215
        18           c17bf         1   UNL       c17        18     0.26244       12.0110 ; qtot   -0.952
        19           c18bf         1   UNL       c18        19    -0.22931       12.0110 ; qtot   -1.182
        20           n19bf         1   UNL       n19        20    -0.77302       14.0070 ; qtot   -1.955
        21           c20bf         1   UNL       c20        21     0.22855       12.0110 ; qtot   -1.726
        22           c21bf         1   UNL       c21        22    -0.09015       12.0110 ; qtot   -1.816
        23           c22bf         1   UNL       c22        23     0.10294       12.0110 ; qtot   -1.713
        24           n23bf         1   UNL       n23        24    -0.42583       14.0070 ; qtot   -2.139
        25           c24bf         1   UNL       c24        25     0.10460       12.0110 ; qtot   -2.034
        26           c25bf         1   UNL       c25        26    -0.03289       12.0110 ; qtot   -2.067
        27           c26bf         1   UNL       c26        27     0.65702       12.0110 ; qtot   -1.410
        28           o27bf         1   UNL       o27        28    -0.60836       15.9990 ; qtot   -2.019
        29           c28bf         1   UNL       c28        29     0.06909       12.0110 ; qtot   -1.950
        30           c29bf         1   UNL       c29        30    -0.11977       12.0110 ; qtot   -2.069
        31           n30bf         1   UNL       n30        31    -0.87331       14.0070 ; qtot   -2.943
        32           c31bf         1   UNL       c31        32    -0.08835       12.0110 ; qtot   -3.031
        33           c32bf         1   UNL       c32        33    -0.10853       12.0110 ; qtot   -3.140
        34           c33bf         1   UNL       c33        34     0.67240       12.0110 ; qtot   -2.467
        35           o34bf         1   UNL       o34        35    -0.62602       15.9990 ; qtot   -3.093
        36           n35bf         1   UNL       n35        36    -0.64971       14.0070 ; qtot   -3.743
        37           h36bf         1   UNL       h36        37     0.04765        1.0080 ; qtot   -3.695
        38           h37bf         1   UNL       h37        38     0.04765        1.0080 ; qtot   -3.648
        39           h38bf         1   UNL       h38        39     0.04765        1.0080 ; qtot   -3.600
        40           h39bf         1   UNL       h39        40     0.06783        1.0080 ; qtot   -3.532
        41           h40bf         1   UNL       h40        41     0.06783        1.0080 ; qtot   -3.464
        42           h41bf         1   UNL       h41        42     0.06082        1.0080 ; qtot   -3.403
        43           h42bf         1   UNL       h42        43     0.06082        1.0080 ; qtot   -3.343
        44           h43bf         1   UNL       h43        44     0.03873        1.0080 ; qtot   -3.304
        45           h44bf         1   UNL       h44        45     0.03873        1.0080 ; qtot   -3.265
        46           h45bf         1   UNL       h45        46     0.03873        1.0080 ; qtot   -3.226
        47           h46bf         1   UNL       h46        47     0.03873        1.0080 ; qtot   -3.188
        48           h47bf         1   UNL       h47        48     0.03873        1.0080 ; qtot   -3.149
        49           h48bf         1   UNL       h48        49     0.03873        1.0080 ; qtot   -3.110
        50           h49bf         1   UNL       h49        50     0.15359        1.0080 ; qtot   -2.957
        51           h50bf         1   UNL       h50        51     0.14524        1.0080 ; qtot   -2.811
        52           h51bf         1   UNL       h51        52     0.15219        1.0080 ; qtot   -2.659
        53           h52bf         1   UNL       h52        53     0.44571        1.0080 ; qtot   -2.214
        54           h53bf         1   UNL       h53        54     0.05462        1.0080 ; qtot   -2.159
        55           h54bf         1   UNL       h54        55     0.05936        1.0080 ; qtot   -2.100
        56           h55bf         1   UNL       h55        56     0.06577        1.0080 ; qtot   -2.034
        57           h56bf         1   UNL       h56        57     0.06577        1.0080 ; qtot   -1.968
        58           h57bf         1   UNL       h57        58     0.06976        1.0080 ; qtot   -1.898
        59           h58bf         1   UNL       h58        59     0.06976        1.0080 ; qtot   -1.828
        60           h59bf         1   UNL       h59        60     0.06328        1.0080 ; qtot   -1.765
        61           h60bf         1   UNL       h60        61     0.06328        1.0080 ; qtot   -1.702
        62           h61bf         1   UNL       h61        62     0.12442        1.0080 ; qtot   -1.578
        63           h62bf         1   UNL       h62        63     0.08814        1.0080 ; qtot   -1.489
        64           h63bf         1   UNL       h63        64     0.08814        1.0080 ; qtot   -1.401
        65           h64bf         1   UNL       h64        65     0.08814        1.0080 ; qtot   -1.313
        66           h65bf         1   UNL       h65        66     0.48368        1.0080 ; qtot   -0.829
        67           h66bf         1   UNL       h66        67     0.48368        1.0080 ; qtot   -0.346
        68           h67bf         1   UNL       h67        68     0.03755        1.0080 ; qtot   -0.308
        69           h68bf         1   UNL       h68        69     0.03755        1.0080 ; qtot   -0.271
        70           h69bf         1   UNL       h69        70     0.03755        1.0080 ; qtot   -0.233
        71           h70bf         1   UNL       h70        71     0.04155        1.0080 ; qtot   -0.192
        72           h71bf         1   UNL       h71        72     0.04155        1.0080 ; qtot   -0.150
        73           h72bf         1   UNL       h72        73     0.04155        1.0080 ; qtot   -0.108
        74           h73bf         1   UNL       h73        74     0.31237        1.0080 ; qtot    0.204
        75           h74bf         1   UNL       h74        75     0.31237        1.0080 ; qtot    0.516
        76           h75bf         1   UNL       h75        76     0.48369        1.0080 ; qtot    1.000

[ bonds ]
;       ai        aj funct               r               k
         1         2     1        0.150099   244564.989307    ;  uncertainty r = 0.000052, k = 7.651422
         1        37     1        0.109466   309551.110205    ;  uncertainty r = 0.000011, k = 1.937734
         1        38     1        0.109466   309551.110205    ;  uncertainty r = 0.000011, k = 1.937734
         1        39     1        0.109466   309551.110205    ;  uncertainty r = 0.000011, k = 1.937734
         2         3     1        0.138002   387804.500000    ;  uncertainty r = 0.000129, k = 12.754295
         2         6     1        0.143986   267369.934424    ;  uncertainty r = 0.000063, k = 10.489087
         3         4     1        0.141026   283197.604980    ;  uncertainty r = 0.000158, k = 14.203181
         3        26     1        0.149402   231887.934082    ;  uncertainty r = 0.000023, k = 7.890624
         4         5     1        0.137314   279309.401318    ;  uncertainty r = 0.000163, k = 13.853927
         4        14     1        0.142348   337453.696484    ;  uncertainty r = 0.000093, k = 7.307858
         5         6     1        0.139070   410963.389453    ;  uncertainty r = 0.000129, k = 17.219593
         5        11     1        0.149169   235354.392383    ;  uncertainty r = 0.000099, k = 6.241915
         6         7     1        0.145392   263265.176074    ;  uncertainty r = 0.000115, k = 15.598350
         7         8     1        0.123654   721934.337402    ;  uncertainty r = 0.000050, k = 5.105324
         7         9     1        0.152729   192523.169482    ;  uncertainty r = 0.000075, k = 8.399185
         9        10     1        0.153646   191935.037085    ;  uncertainty r = 0.000135, k = 7.651946
         9        40     1        0.109748   308934.720996    ;  uncertainty r = 0.000015, k = 1.839153
         9        41     1        0.109748   308934.720996    ;  uncertainty r = 0.000015, k = 1.839153
        10        11     1        0.153828   192201.542358    ;  uncertainty r = 0.000093, k = 11.625808
        10        12     1        0.153195   201193.401172    ;  uncertainty r = 0.000053, k = 1.853466
        10        13     1        0.153195   201193.401172    ;  uncertainty r = 0.000053, k = 1.853466
        11        42     1        0.109905   308723.682324    ;  uncertainty r = 0.000021, k = 4.306992
        11        43     1        0.109905   308723.682324    ;  uncertainty r = 0.000021, k = 4.306992
        12        44     1        0.109670   309289.354834    ;  uncertainty r = 0.000025, k = 1.119534
        12        45     1        0.109670   309289.354834    ;  uncertainty r = 0.000025, k = 1.119534
        12        46     1        0.109670   309289.354834    ;  uncertainty r = 0.000025, k = 1.119534
        13        47     1        0.109670   309289.354834    ;  uncertainty r = 0.000025, k = 1.119534
        13        48     1        0.109670   309289.354834    ;  uncertainty r = 0.000025, k = 1.119534
        13        49     1        0.109670   309289.354834    ;  uncertainty r = 0.000025, k = 1.119534
        14        15     1        0.139640   354214.467480    ;  uncertainty r = 0.000116, k = 4.634606
        14        19     1        0.138787   352811.177783    ;  uncertainty r = 0.000114, k = 7.644299
        15        16     1        0.138792   364930.145020    ;  uncertainty r = 0.000067, k = 5.150925
        15        50     1        0.108792   333924.799951    ;  uncertainty r = 0.000009, k = 1.293416
        16        17     1        0.140167   353845.941455    ;  uncertainty r = 0.000105, k = 10.643345
        16        51     1        0.108604   330520.703271    ;  uncertainty r = 0.000050, k = 2.529904
        17        18     1        0.142703   329342.906250    ;  uncertainty r = 0.000124, k = 10.582607
        17        34     1        0.148282   260240.918359    ;  uncertainty r = 0.000134, k = 25.345343
        18        19     1        0.141179   354482.530518    ;  uncertainty r = 0.000043, k = 15.622400
        18        20     1        0.138707   320710.392871    ;  uncertainty r = 0.000431, k = 13.852287
        19        52     1        0.108864   337997.611377    ;  uncertainty r = 0.000031, k = 2.781367
        20        21     1        0.146047   216882.405225    ;  uncertainty r = 0.000151, k = 12.268122
        20        53     1        0.101252   418844.192480    ;  uncertainty r = 0.000108, k = 5.492942
        21        22     1        0.152781   187704.700000    ;  uncertainty r = 0.000144, k = 2.532202
        21        33     1        0.153479   212514.486963    ;  uncertainty r = 0.000040, k = 5.848836
        21        54     1        0.109650   302642.479395    ;  uncertainty r = 0.000040, k = 1.811765
        22        23     1        0.152498   188979.742334    ;  uncertainty r = 0.000149, k = 10.831333
        22        32     1        0.152917   204991.726978    ;  uncertainty r = 0.000057, k = 2.679806
        22        55     1        0.109779   304444.479980    ;  uncertainty r = 0.000031, k = 2.140294
        23        24     1        0.145252   222120.755859    ;  uncertainty r = 0.000231, k = 5.717056
        23        56     1        0.109367   306577.543652    ;  uncertainty r = 0.000031, k = 1.651718
        23        57     1        0.109367   306577.543652    ;  uncertainty r = 0.000031, k = 1.651718
        24        25     1        0.145282   223360.761279    ;  uncertainty r = 0.000168, k = 3.427274
        24        27     1        0.133872   279103.725439    ;  uncertainty r = 0.000352, k = 15.414294
        25        26     1        0.154187   202884.672852    ;  uncertainty r = 0.000060, k = 8.461285
        25        58     1        0.109313   307908.103662    ;  uncertainty r = 0.000038, k = 2.769161
        25        59     1        0.109313   307908.103662    ;  uncertainty r = 0.000038, k = 2.769161
        26        60     1        0.109606   311055.807764    ;  uncertainty r = 0.000043, k = 1.844152
        26        61     1        0.109606   311055.807764    ;  uncertainty r = 0.000043, k = 1.844152
        27        28     1        0.124177   647046.968457    ;  uncertainty r = 0.000192, k = 18.748165
        27        29     1        0.154039   212059.339062    ;  uncertainty r = 0.000281, k = 24.524400
        29        30     1        0.153044   207330.555908    ;  uncertainty r = 0.000114, k = 8.424705
        29        31     1        0.150565   216440.740918    ;  uncertainty r = 0.000143, k = 48.196278
        29        62     1        0.109153   319642.226660    ;  uncertainty r = 0.000086, k = 4.526853
        30        63     1        0.109318   315140.902539    ;  uncertainty r = 0.000015, k = 2.210769
        30        64     1        0.109318   315140.928076    ;  uncertainty r = 0.000015, k = 2.210769
        30        65     1        0.109318   315140.928076    ;  uncertainty r = 0.000015, k = 2.210769
        31        66     1        0.103285   392252.706934    ;  uncertainty r = 0.000084, k = 11.944491
        31        67     1        0.103285   392252.706934    ;  uncertainty r = 0.000084, k = 11.944491
        31        76     1        0.103285   392252.706934    ;  uncertainty r = 0.000084, k = 11.944491
        32        68     1        0.109611   310804.905664    ;  uncertainty r = 0.000009, k = 1.747520
        32        69     1        0.109611   310804.905664    ;  uncertainty r = 0.000009, k = 1.747520
        32        70     1        0.109611   310804.905664    ;  uncertainty r = 0.000009, k = 1.747520
        33        71     1        0.109601   311293.685938    ;  uncertainty r = 0.000008, k = 1.522021
        33        72     1        0.109601   311293.685938    ;  uncertainty r = 0.000008, k = 1.522021
        33        73     1        0.109601   311293.685938    ;  uncertainty r = 0.000008, k = 1.522021
        34        35     1        0.124820   823639.450684    ;  uncertainty r = 0.000051, k = 16.500604
        34        36     1        0.139029   503817.442773    ;  uncertainty r = 0.000155, k = 20.651030
        36        74     1        0.101653   427755.315723    ;  uncertainty r = 0.000052, k = 3.050468
        36        75     1        0.101653   427755.315723    ;  uncertainty r = 0.000052, k = 3.050468

[ angles ]
;       ai        aj        ak funct           theta             cth
         1         2         3     1      124.929214      352.852114    ;  uncertainty theta = 0.006036, k = 0.225884
         1         2         6     1      124.433372      352.740006    ;  uncertainty theta = 0.005246, k = 0.228128
         2         1        37     1      109.671814      411.821545    ;  uncertainty theta = 0.000565, k = 0.078540
         2         1        38     1      109.671814      411.821545    ;  uncertainty theta = 0.000565, k = 0.078540
         2         1        39     1      109.671814      411.821545    ;  uncertainty theta = 0.000565, k = 0.078540
         2         3         4     1      110.449989      702.996656    ;  uncertainty theta = 0.002482, k = 0.135746
         2         3        26     1      128.790283      343.851432    ;  uncertainty theta = 0.001878, k = 0.288542
         2         6         5     1      109.054428      679.507622    ;  uncertainty theta = 0.004883, k = 0.117758
         2         6         7     1      126.157997      344.738655    ;  uncertainty theta = 0.003544, k = 0.278404
         3         2         6     1      107.556862      704.556718    ;  uncertainty theta = 0.005587, k = 0.153434
         3         4         5     1      109.574051      834.804403    ;  uncertainty theta = 0.003376, k = 0.186653
         3         4        14     1      120.506943      382.481290    ;  uncertainty theta = 0.003019, k = 0.119296
         3        26        25     1      110.894150      529.439086    ;  uncertainty theta = 0.000834, k = 0.116010
         3        26        60     1      107.379562      404.616345    ;  uncertainty theta = 0.002507, k = 0.041058
         3        26        61     1      107.379562      404.616345    ;  uncertainty theta = 0.002507, k = 0.041058
         4         3        26     1      116.987411      383.314246    ;  uncertainty theta = 0.003680, k = 0.110627
         4         5         6     1      109.742416      695.636094    ;  uncertainty theta = 0.004795, k = 0.201237
         4         5        11     1      122.460144      371.004561    ;  uncertainty theta = 0.003459, k = 0.170673
         4        14        15     1      121.250854      463.202305    ;  uncertainty theta = 0.004289, k = 0.214013
         4        14        19     1      120.226944      453.445788    ;  uncertainty theta = 0.004115, k = 0.105202
         5         4        14     1      120.569298      387.035450    ;  uncertainty theta = 0.004714, k = 0.158419
         5         6         7     1      119.070312      390.807600    ;  uncertainty theta = 0.007694, k = 0.349986
         5        11        10     1      107.805740      556.659123    ;  uncertainty theta = 0.002237, k = 0.143666
         5        11        42     1      108.916275      396.622623    ;  uncertainty theta = 0.001410, k = 0.056158
         5        11        43     1      108.916275      396.622623    ;  uncertainty theta = 0.001410, k = 0.056158
         6         5        11     1      125.882568      344.070253    ;  uncertainty theta = 0.005185, k = 0.237698
         6         7         8     1      124.446182      604.140207    ;  uncertainty theta = 0.001677, k = 0.050464
         6         7         9     1      113.848488      368.483538    ;  uncertainty theta = 0.006481, k = 0.230108
         7         9        10     1      112.816551      505.116713    ;  uncertainty theta = 0.003504, k = 0.066766
         7         9        40     1      106.614479      370.407344    ;  uncertainty theta = 0.001342, k = 0.076110
         7         9        41     1      106.614479      370.407344    ;  uncertainty theta = 0.001342, k = 0.076110
         8         7         9     1      123.307533      565.969123    ;  uncertainty theta = 0.003559, k = 0.147200
         9        10        11     1      109.706261      569.691668    ;  uncertainty theta = 0.001851, k = 0.067169
         9        10        12     1      108.306870      576.022126    ;  uncertainty theta = 0.001816, k = 0.099147
         9        10        13     1      108.306870      576.022126    ;  uncertainty theta = 0.001816, k = 0.099147
        10         9        40     1      107.687546      371.394800    ;  uncertainty theta = 0.002109, k = 0.101948
        10         9        41     1      107.687546      371.394800    ;  uncertainty theta = 0.002109, k = 0.101948
        10        11        42     1      107.544716      382.761081    ;  uncertainty theta = 0.002760, k = 0.048647
        10        11        43     1      107.544716      382.761081    ;  uncertainty theta = 0.002760, k = 0.048647
        10        12        44     1      107.996109      384.058813    ;  uncertainty theta = 0.001498, k = 0.017817
        10        12        45     1      107.996109      384.058813    ;  uncertainty theta = 0.001498, k = 0.017817
        10        12        46     1      107.996109      384.058813    ;  uncertainty theta = 0.001498, k = 0.017817
        10        13        47     1      107.996109      384.058813    ;  uncertainty theta = 0.001498, k = 0.017817
        10        13        48     1      107.996109      384.058813    ;  uncertainty theta = 0.001498, k = 0.017817
        10        13        49     1      107.996109      384.058813    ;  uncertainty theta = 0.001498, k = 0.017817
        11        10        12     1      108.014572      557.325003    ;  uncertainty theta = 0.003069, k = 0.098920
        11        10        13     1      108.014572      557.325003    ;  uncertainty theta = 0.003069, k = 0.098920
        12        10        13     1      108.956375      585.520270    ;  uncertainty theta = 0.001841, k = 0.057908
        14        15        16     1      118.153793      518.808754    ;  uncertainty theta = 0.004297, k = 0.176784
        14        15        50     1      120.426636      280.185311    ;  uncertainty theta = 0.001430, k = 0.071764
        14        19        18     1      120.758751      512.516506    ;  uncertainty theta = 0.002278, k = 0.126084
        14        19        52     1      120.050308      284.720447    ;  uncertainty theta = 0.002585, k = 0.099266
        15        14        19     1      120.030495      376.841579    ;  uncertainty theta = 0.005121, k = 0.220651
        15        16        17     1      124.840576      519.794774    ;  uncertainty theta = 0.004799, k = 0.206169
        15        16        51     1      119.540184      280.403909    ;  uncertainty theta = 0.002726, k = 0.067893
        16        15        50     1      121.318527      289.287376    ;  uncertainty theta = 0.001766, k = 0.086166
        16        17        18     1      122.820740      415.108745    ;  uncertainty theta = 0.004118, k = 0.658879
        16        17        34     1      117.687866      394.289330    ;  uncertainty theta = 0.003347, k = 0.224998
        17        16        51     1      117.224319      261.365595    ;  uncertainty theta = 0.005141, k = 0.120235
        17        18        19     1      121.638695      405.484352    ;  uncertainty theta = 0.004490, k = 0.179957
        17        18        20     1      122.613464      551.301693    ;  uncertainty theta = 0.005288, k = 0.302741
        17        34        35     1      125.266724      538.192154    ;  uncertainty theta = 0.004512, k = 0.205425
        17        34        36     1      116.011520      478.303100    ;  uncertainty theta = 0.003603, k = 0.253368
        18        17        34     1      117.762985      394.720620    ;  uncertainty theta = 0.006536, k = 0.313462
        18        19        52     1      119.387436      264.054637    ;  uncertainty theta = 0.002326, k = 0.062240
        18        20        21     1      113.762161      427.826832    ;  uncertainty theta = 0.009162, k = 0.111307
        18        20        53     1      114.039383      381.905683    ;  uncertainty theta = 0.004288, k = 0.074524
        19        18        20     1      120.485535      551.495583    ;  uncertainty theta = 0.004427, k = 0.338062
        20        21        22     1      109.140724      597.885658    ;  uncertainty theta = 0.003038, k = 0.142377
        20        21        33     1      110.086227      646.085739    ;  uncertainty theta = 0.002089, k = 0.093058
        20        21        54     1      104.611008      448.263702    ;  uncertainty theta = 0.003832, k = 0.124682
        21        20        53     1      111.384293      338.528445    ;  uncertainty theta = 0.004543, k = 0.211630
        21        22        23     1      107.332565      506.182952    ;  uncertainty theta = 0.004627, k = 0.099121
        21        22        32     1      108.889343      555.407932    ;  uncertainty theta = 0.002644, k = 0.027121
        21        22        55     1      105.215637      376.758487    ;  uncertainty theta = 0.001442, k = 0.071132
        21        33        71     1      107.638573      389.959130    ;  uncertainty theta = 0.001309, k = 0.024649
        21        33        72     1      107.638573      389.959130    ;  uncertainty theta = 0.001309, k = 0.024649
        21        33        73     1      107.638573      389.959130    ;  uncertainty theta = 0.001309, k = 0.024649
        22        21        33     1      109.274254      561.452630    ;  uncertainty theta = 0.001429, k = 0.055511
        22        21        54     1      105.929581      379.752330    ;  uncertainty theta = 0.002352, k = 0.089058
        22        23        24     1      110.637245      615.348827    ;  uncertainty theta = 0.002861, k = 0.142305
        22        23        56     1      107.828629      394.140927    ;  uncertainty theta = 0.002018, k = 0.040029
        22        23        57     1      107.828629      394.140927    ;  uncertainty theta = 0.002018, k = 0.040029
        22        32        68     1      107.721298      384.947504    ;  uncertainty theta = 0.001151, k = 0.029336
        22        32        69     1      107.721298      384.947504    ;  uncertainty theta = 0.001151, k = 0.029336
        22        32        70     1      107.721298      384.947504    ;  uncertainty theta = 0.001151, k = 0.029336
        23        22        32     1      108.565674      552.537561    ;  uncertainty theta = 0.002931, k = 0.061688
        23        22        55     1      105.468735      380.345110    ;  uncertainty theta = 0.002266, k = 0.059401
        23        24        25     1      116.832481      423.307562    ;  uncertainty theta = 0.005686, k = 0.200627
        23        24        27     1      114.211220      362.902754    ;  uncertainty theta = 0.006886, k = 0.289347
        24        23        56     1      105.205299      441.412575    ;  uncertainty theta = 0.001650, k = 0.063289
        24        23        57     1      105.205299      441.412575    ;  uncertainty theta = 0.001650, k = 0.063289
        24        25        26     1      111.021057      620.055827    ;  uncertainty theta = 0.000941, k = 0.081308
        24        25        58     1      105.612625      435.860679    ;  uncertainty theta = 0.001774, k = 0.028922
        24        25        59     1      105.612625      435.860679    ;  uncertainty theta = 0.001774, k = 0.028922
        24        27        28     1      125.593201      720.734349    ;  uncertainty theta = 0.008504, k = 0.198434
        24        27        29     1      113.270798      367.162631    ;  uncertainty theta = 0.012077, k = 0.316984
        25        24        27     1      113.953415      365.103350    ;  uncertainty theta = 0.008034, k = 0.321405
        25        26        60     1      107.062767      400.922339    ;  uncertainty theta = 0.002133, k = 0.045835
        25        26        61     1      107.062767      400.922339    ;  uncertainty theta = 0.002133, k = 0.045835
        26        25        58     1      108.352005      407.063694    ;  uncertainty theta = 0.003049, k = 0.054697
        26        25        59     1      108.352005      407.063694    ;  uncertainty theta = 0.003049, k = 0.054697
        27        29        30     1      111.756065      482.778223    ;  uncertainty theta = 0.004889, k = 0.081525
        27        29        31     1      102.066322      522.540428    ;  uncertainty theta = 0.009930, k = 0.099894
        27        29        62     1      113.050697      368.775842    ;  uncertainty theta = 0.006593, k = 0.261572
        28        27        29     1      124.785873      511.192311    ;  uncertainty theta = 0.006788, k = 0.438148
        29        30        63     1      107.765091      402.348586    ;  uncertainty theta = 0.002613, k = 0.114090
        29        30        64     1      107.765091      402.348586    ;  uncertainty theta = 0.002613, k = 0.114090
        29        30        65     1      107.765091      402.348586    ;  uncertainty theta = 0.002613, k = 0.114090
        29        31        66     1      111.094345      410.407747    ;  uncertainty theta = 0.002422, k = 0.085065
        29        31        67     1      111.094345      410.407747    ;  uncertainty theta = 0.002422, k = 0.085065
        29        31        76     1      111.094345      410.407747    ;  uncertainty theta = 0.002422, k = 0.085065
        30        29        31     1      111.454041      725.154695    ;  uncertainty theta = 0.002486, k = 0.155931
        30        29        62     1      110.082016      411.868533    ;  uncertainty theta = 0.003563, k = 0.055717
        31        29        62     1      103.730064      436.547500    ;  uncertainty theta = 0.006530, k = 0.147272
        32        22        55     1      107.615135      405.035856    ;  uncertainty theta = 0.004063, k = 0.025016
        33        21        54     1      107.156860      413.507505    ;  uncertainty theta = 0.001672, k = 0.061719
        34        36        74     1      116.963905      310.800986    ;  uncertainty theta = 0.002022, k = 0.091105
        34        36        75     1      116.963905      310.800986    ;  uncertainty theta = 0.002022, k = 0.091105
        35        34        36     1      126.517166      889.988564    ;  uncertainty theta = 0.004387, k = 0.046999
        37         1        38     1      106.599655      315.928231    ;  uncertainty theta = 0.001025, k = 0.007339
        37         1        39     1      106.599655      315.928231    ;  uncertainty theta = 0.001025, k = 0.007339
        38         1        39     1      106.599655      315.928231    ;  uncertainty theta = 0.001025, k = 0.007339
        40         9        41     1      106.125877      305.443843    ;  uncertainty theta = 0.001540, k = 0.048439
        42        11        43     1      105.093704      313.682082    ;  uncertainty theta = 0.001625, k = 0.026383
        44        12        45     1      105.574768      318.349181    ;  uncertainty theta = 0.001227, k = 0.028951
        44        12        46     1      105.574768      318.349181    ;  uncertainty theta = 0.001227, k = 0.028951
        45        12        46     1      105.574768      318.349181    ;  uncertainty theta = 0.001227, k = 0.028951
        47        13        48     1      105.574768      318.349181    ;  uncertainty theta = 0.001227, k = 0.028951
        47        13        49     1      105.574768      318.349181    ;  uncertainty theta = 0.001227, k = 0.028951
        48        13        49     1      105.574768      318.349181    ;  uncertainty theta = 0.001227, k = 0.028951
        56        23        57     1      106.348373      321.940528    ;  uncertainty theta = 0.002179, k = 0.061385
        58        25        59     1      106.456284      320.007177    ;  uncertainty theta = 0.002686, k = 0.041598
        60        26        61     1      104.927124      317.281123    ;  uncertainty theta = 0.001608, k = 0.040862
        63        30        64     1      106.087357      317.848494    ;  uncertainty theta = 0.001982, k = 0.053024
        63        30        65     1      106.087357      317.848494    ;  uncertainty theta = 0.001982, k = 0.053024
        64        30        65     1      106.087357      317.848494    ;  uncertainty theta = 0.001982, k = 0.053024
        66        31        67     1      108.366699      373.668848    ;  uncertainty theta = 0.003659, k = 0.040743
        66        31        76     1      108.366699      373.668848    ;  uncertainty theta = 0.003659, k = 0.040743
        67        31        76     1      108.366699      373.668848    ;  uncertainty theta = 0.003659, k = 0.040743
        68        32        69     1      105.086327      319.598520    ;  uncertainty theta = 0.001402, k = 0.019870
        68        32        70     1      105.086327      319.598520    ;  uncertainty theta = 0.001402, k = 0.019870
        69        32        70     1      105.086327      319.598520    ;  uncertainty theta = 0.001402, k = 0.019870
        71        33        72     1      105.251572      316.672254    ;  uncertainty theta = 0.001112, k = 0.020477
        71        33        73     1      105.251572      316.672254    ;  uncertainty theta = 0.001112, k = 0.020477
        72        33        73     1      105.251572      316.672254    ;  uncertainty theta = 0.001112, k = 0.020477
        74        36        75     1      109.834618      265.993462    ;  uncertainty theta = 0.001915, k = 0.057416

[ dihedrals ] ; propers for gromacs 4.5 or higher, use funct 9
;       ai        aj        ak        al funct           phase               k        pn
         1         2         3         4     9        0.000000        0.149681         1    ;  uncertainty k = 0.853974
         1         2         3         4     9      180.000000       14.500456         2    ;  uncertainty k = 0.472561
         1         2         3         4     9        0.000000        2.140184         3    ;  uncertainty k = 0.652815
         1         2         3         4     9      180.000000        0.980842         4    ;  uncertainty k = 0.233976
         1         2         3        26     9        0.000000       -0.531511         1    ;  uncertainty k = 0.823439
         1         2         3        26     9      180.000000        8.343417         2    ;  uncertainty k = 0.477057
         1         2         3        26     9        0.000000        1.128136         3    ;  uncertainty k = 0.309490
         1         2         3        26     9      180.000000        0.814412         4    ;  uncertainty k = 0.211125
         1         2         6         5     9        0.000000        0.722065         1    ;  uncertainty k = 1.094425
         1         2         6         5     9      180.000000        9.445073         2    ;  uncertainty k = 0.541994
         1         2         6         5     9        0.000000        1.762339         3    ;  uncertainty k = 0.390907
         1         2         6         5     9      180.000000        0.420561         4    ;  uncertainty k = 0.218799
         1         2         6         7     9        0.000000       -0.455672         1    ;  uncertainty k = 1.403087
         1         2         6         7     9      180.000000        5.300567         2    ;  uncertainty k = 0.722123
         1         2         6         7     9        0.000000        1.718834         3    ;  uncertainty k = 0.191901
         1         2         6         7     9      180.000000        0.212334         4    ;  uncertainty k = 0.155506
         2         3         4         5     9        0.000000       -0.441968         1    ;  uncertainty k = 0.772672
         2         3         4         5     9      180.000000       12.335775         2    ;  uncertainty k = 0.843287
         2         3         4         5     9        0.000000       -6.363887         3    ;  uncertainty k = 0.826616
         2         3         4         5     9      180.000000        1.097320         4    ;  uncertainty k = 0.495152
         2         3         4        14     9        0.000000        1.785910         1    ;  uncertainty k = 0.600657
         2         3         4        14     9      180.000000        6.869549         2    ;  uncertainty k = 0.696301
         2         3         4        14     9        0.000000        1.913702         3    ;  uncertainty k = 0.303004
         2         3         4        14     9      180.000000        0.117016         4    ;  uncertainty k = 0.277672
         2         3        26        25     9        0.000000        0.011701         1    ;  uncertainty k = 0.495211
         2         3        26        25     9      180.000000        0.960528         2    ;  uncertainty k = 0.235937
         2         3        26        25     9        0.000000        0.088493         3    ;  uncertainty k = 0.270373
         2         3        26        25     9      180.000000        0.209527         4    ;  uncertainty k = 0.077574
         2         3        26        60     9        0.000000        0.668540         1    ;  uncertainty k = 0.221324
         2         3        26        60     9      180.000000        1.314440         2    ;  uncertainty k = 0.227487
         2         3        26        60     9        0.000000        0.202847         3    ;  uncertainty k = 0.086647
         2         3        26        60     9      180.000000        0.114912         4    ;  uncertainty k = 0.100587
         2         3        26        61     9        0.000000        0.668540         1    ;  uncertainty k = 0.221324
         2         3        26        61     9      180.000000        1.314440         2    ;  uncertainty k = 0.227487
         2         3        26        61     9        0.000000        0.202847         3    ;  uncertainty k = 0.086647
         2         3        26        61     9      180.000000        0.114912         4    ;  uncertainty k = 0.100587
         2         6         5         4     9        0.000000       -0.261024         1    ;  uncertainty k = 0.286439
         2         6         5         4     9      180.000000       15.456022         2    ;  uncertainty k = 1.105489
         2         6         5         4     9        0.000000       -4.462925         3    ;  uncertainty k = 0.680181
         2         6         5         4     9      180.000000        1.744412         4    ;  uncertainty k = 0.614653
         2         6         5        11     9        0.000000        0.098971         1    ;  uncertainty k = 0.129340
         2         6         5        11     9      180.000000       11.363981         2    ;  uncertainty k = 0.461653
         2         6         5        11     9        0.000000        1.096517         3    ;  uncertainty k = 0.310912
         2         6         5        11     9      180.000000        1.161326         4    ;  uncertainty k = 0.306654
         2         6         7         8     9        0.000000       -1.831232         1    ;  uncertainty k = 1.162925
         2         6         7         8     9      180.000000        6.628075         2    ;  uncertainty k = 0.444181
         2         6         7         8     9        0.000000        0.786076         3    ;  uncertainty k = 0.141801
         2         6         7         8     9      180.000000       -0.184769         4    ;  uncertainty k = 0.115399
         2         6         7         9     9        0.000000       -0.925887         1    ;  uncertainty k = 0.290701
         2         6         7         9     9      180.000000        3.203967         2    ;  uncertainty k = 0.294779
         2         6         7         9     9        0.000000        0.628262         3    ;  uncertainty k = 0.134925
         2         6         7         9     9      180.000000        0.390424         4    ;  uncertainty k = 0.058929
         3         2         1        37     9        0.000000        0.990941         1    ;  uncertainty k = 0.422030
         3         2         1        37     9      180.000000        1.584559         2    ;  uncertainty k = 0.317879
         3         2         1        37     9        0.000000        0.051682         3    ;  uncertainty k = 0.149545
         3         2         1        37     9      180.000000        0.098188         4    ;  uncertainty k = 0.043293
         3         2         1        38     9        0.000000        0.990941         1    ;  uncertainty k = 0.422030
         3         2         1        38     9      180.000000        1.584559         2    ;  uncertainty k = 0.317879
         3         2         1        38     9        0.000000        0.051682         3    ;  uncertainty k = 0.149545
         3         2         1        38     9      180.000000        0.098188         4    ;  uncertainty k = 0.043293
         3         2         1        39     9        0.000000        0.990941         1    ;  uncertainty k = 0.422030
         3         2         1        39     9      180.000000        1.584559         2    ;  uncertainty k = 0.317879
         3         2         1        39     9        0.000000        0.051682         3    ;  uncertainty k = 0.149545
         3         2         1        39     9      180.000000        0.098188         4    ;  uncertainty k = 0.043293
         3         2         6         5     9        0.000000       -0.172738         1    ;  uncertainty k = 0.561522
         3         2         6         5     9      180.000000       12.467395         2    ;  uncertainty k = 0.847451
         3         2         6         5     9        0.000000       -9.668710         3    ;  uncertainty k = 1.413132
         3         2         6         5     9      180.000000        1.884991         4    ;  uncertainty k = 0.363129
         3         2         6         7     9        0.000000        0.916988         1    ;  uncertainty k = 0.838550
         3         2         6         7     9      180.000000        5.249305         2    ;  uncertainty k = 0.833251
         3         2         6         7     9        0.000000        1.468602         3    ;  uncertainty k = 0.124808
         3         2         6         7     9      180.000000        0.667523         4    ;  uncertainty k = 0.234381
         3         4         5         6     9        0.000000        0.016725         1    ;  uncertainty k = 0.750909
         3         4         5         6     9      180.000000       15.980519         2    ;  uncertainty k = 0.696156
         3         4         5         6     9        0.000000       -8.308859         3    ;  uncertainty k = 1.799775
         3         4         5         6     9      180.000000        0.859607         4    ;  uncertainty k = 0.640648
         3         4         5        11     9        0.000000        0.869609         1    ;  uncertainty k = 0.577471
         3         4         5        11     9      180.000000        7.352807         2    ;  uncertainty k = 0.362877
         3         4         5        11     9        0.000000        1.483819         3    ;  uncertainty k = 0.175289
         3         4         5        11     9      180.000000        0.102785         4    ;  uncertainty k = 0.153732
         3         4        14        15     9        0.000000        0.933231         1    ;  uncertainty k = 0.569051
         3         4        14        15     9      180.000000        5.981557         2    ;  uncertainty k = 0.419059
         3         4        14        15     9        0.000000        0.520553         3    ;  uncertainty k = 0.196669
         3         4        14        15     9      180.000000        0.370720         4    ;  uncertainty k = 0.170420
         3         4        14        19     9        0.000000        0.689737         1    ;  uncertainty k = 0.541354
         3         4        14        19     9      180.000000        5.771919         2    ;  uncertainty k = 0.479813
         3         4        14        19     9        0.000000        0.418192         3    ;  uncertainty k = 0.151976
         3         4        14        19     9      180.000000        0.356769         4    ;  uncertainty k = 0.211436
         3        26        25        24     9        0.000000       -1.557552         1    ;  uncertainty k = 0.935875
         3        26        25        24     9      180.000000       -0.681456         2    ;  uncertainty k = 0.523734
         3        26        25        24     9        0.000000        1.691949         3    ;  uncertainty k = 0.202060
         3        26        25        24     9      180.000000        0.066533         4    ;  uncertainty k = 0.133051
         3        26        25        58     9        0.000000        0.417251         1    ;  uncertainty k = 0.635259
         3        26        25        58     9      180.000000       -0.382684         2    ;  uncertainty k = 0.472736
         3        26        25        58     9        0.000000        0.781172         3    ;  uncertainty k = 0.097307
         3        26        25        58     9      180.000000        0.001304         4    ;  uncertainty k = 0.088432
         3        26        25        59     9        0.000000        0.417251         1    ;  uncertainty k = 0.635259
         3        26        25        59     9      180.000000       -0.382684         2    ;  uncertainty k = 0.472736
         3        26        25        59     9        0.000000        0.781172         3    ;  uncertainty k = 0.097307
         3        26        25        59     9      180.000000        0.001304         4    ;  uncertainty k = 0.088432
         4         3         2         6     9        0.000000       -0.093669         1    ;  uncertainty k = 0.302240
         4         3         2         6     9      180.000000       20.526559         2    ;  uncertainty k = 0.621067
         4         3         2         6     9        0.000000       -4.983412         3    ;  uncertainty k = 0.877913
         4         3         2         6     9      180.000000        1.339368         4    ;  uncertainty k = 0.700581
         4         3        26        25     9        0.000000       -0.305735         1    ;  uncertainty k = 0.814236
         4         3        26        25     9      180.000000       -0.011648         2    ;  uncertainty k = 0.677456
         4         3        26        25     9        0.000000        0.732499         3    ;  uncertainty k = 0.370924
         4         3        26        25     9      180.000000        0.155882         4    ;  uncertainty k = 0.086473
         4         3        26        60     9        0.000000        0.027771         1    ;  uncertainty k = 0.296914
         4         3        26        60     9      180.000000        1.131133         2    ;  uncertainty k = 0.362107
         4         3        26        60     9        0.000000        0.496520         3    ;  uncertainty k = 0.146369
         4         3        26        60     9      180.000000        0.182590         4    ;  uncertainty k = 0.093911
         4         3        26        61     9        0.000000        0.027771         1    ;  uncertainty k = 0.296914
         4         3        26        61     9      180.000000        1.131133         2    ;  uncertainty k = 0.362107
         4         3        26        61     9        0.000000        0.496520         3    ;  uncertainty k = 0.146369
         4         3        26        61     9      180.000000        0.182590         4    ;  uncertainty k = 0.093911
         4         5         6         7     9        0.000000        0.485690         1    ;  uncertainty k = 1.105406
         4         5         6         7     9      180.000000        8.725448         2    ;  uncertainty k = 0.618603
         4         5         6         7     9        0.000000        0.911705         3    ;  uncertainty k = 0.975743
         4         5         6         7     9      180.000000        1.464474         4    ;  uncertainty k = 0.282868
         4         5        11        10     9        0.000000       -3.162032         1    ;  uncertainty k = 0.746669
         4         5        11        10     9      180.000000        0.251077         2    ;  uncertainty k = 0.542760
         4         5        11        10     9        0.000000        0.211071         3    ;  uncertainty k = 0.151931
         4         5        11        10     9      180.000000        0.181281         4    ;  uncertainty k = 0.055231
         4         5        11        42     9        0.000000       -0.136631         1    ;  uncertainty k = 0.479345
         4         5        11        42     9      180.000000        1.416139         2    ;  uncertainty k = 0.555195
         4         5        11        42     9        0.000000        0.508060         3    ;  uncertainty k = 0.196200
         4         5        11        42     9      180.000000        0.157826         4    ;  uncertainty k = 0.035511
         4         5        11        43     9        0.000000       -0.136631         1    ;  uncertainty k = 0.479345
         4         5        11        43     9      180.000000        1.416139         2    ;  uncertainty k = 0.555195
         4         5        11        43     9        0.000000        0.508060         3    ;  uncertainty k = 0.196200
         4         5        11        43     9      180.000000        0.157826         4    ;  uncertainty k = 0.035511
         4        14        15        16     9        0.000000        0.108650         1    ;  uncertainty k = 0.264507
         4        14        15        16     9      180.000000        9.803162         2    ;  uncertainty k = 0.549649
         4        14        15        16     9        0.000000        1.310343         3    ;  uncertainty k = 0.456232
         4        14        15        16     9      180.000000        1.760136         4    ;  uncertainty k = 0.297004
         4        14        15        50     9        0.000000       -0.103917         1    ;  uncertainty k = 0.312800
         4        14        15        50     9      180.000000        7.491603         2    ;  uncertainty k = 0.239675
         4        14        15        50     9        0.000000        0.735167         3    ;  uncertainty k = 0.245837
         4        14        15        50     9      180.000000        1.146011         4    ;  uncertainty k = 0.288730
         4        14        19        18     9        0.000000        0.294604         1    ;  uncertainty k = 0.319670
         4        14        19        18     9      180.000000       10.529791         2    ;  uncertainty k = 0.698382
         4        14        19        18     9        0.000000        1.310734         3    ;  uncertainty k = 0.245594
         4        14        19        18     9      180.000000        1.584519         4    ;  uncertainty k = 0.416269
         4        14        19        52     9        0.000000       -0.148336         1    ;  uncertainty k = 0.354787
         4        14        19        52     9      180.000000        7.935420         2    ;  uncertainty k = 0.311404
         4        14        19        52     9        0.000000        0.705690         3    ;  uncertainty k = 0.217083
         4        14        19        52     9      180.000000        1.225082         4    ;  uncertainty k = 0.272105
         5         4         3        26     9        0.000000        0.959477         1    ;  uncertainty k = 0.896930
         5         4         3        26     9      180.000000        7.941921         2    ;  uncertainty k = 0.613973
         5         4         3        26     9        0.000000        1.532735         3    ;  uncertainty k = 0.213531
         5         4         3        26     9      180.000000       -0.000301         4    ;  uncertainty k = 0.148547
         5         4        14        15     9        0.000000        1.041476         1    ;  uncertainty k = 1.169445
         5         4        14        15     9      180.000000        5.356958         2    ;  uncertainty k = 0.181905
         5         4        14        15     9        0.000000        0.467792         3    ;  uncertainty k = 0.232203
         5         4        14        15     9      180.000000        0.327392         4    ;  uncertainty k = 0.075327
         5         4        14        19     9        0.000000        0.831318         1    ;  uncertainty k = 0.841739
         5         4        14        19     9      180.000000        5.126209         2    ;  uncertainty k = 0.140718
         5         4        14        19     9        0.000000        0.337125         3    ;  uncertainty k = 0.171458
         5         4        14        19     9      180.000000        0.329272         4    ;  uncertainty k = 0.072831
         5         6         7         8     9        0.000000        0.267850         1    ;  uncertainty k = 0.434072
         5         6         7         8     9      180.000000        5.596175         2    ;  uncertainty k = 0.479082
         5         6         7         8     9        0.000000        0.525521         3    ;  uncertainty k = 0.209090
         5         6         7         8     9      180.000000       -0.080038         4    ;  uncertainty k = 0.143104
         5         6         7         9     9        0.000000       -0.807204         1    ;  uncertainty k = 1.678478
         5         6         7         9     9      180.000000        3.101737         2    ;  uncertainty k = 0.502700
         5         6         7         9     9        0.000000       -0.584870         3    ;  uncertainty k = 0.363866
         5         6         7         9     9      180.000000        0.407747         4    ;  uncertainty k = 0.104995
         5        11        10         9     9        0.000000       -0.779350         1    ;  uncertainty k = 1.271618
         5        11        10         9     9      180.000000       -0.810021         2    ;  uncertainty k = 0.439292
         5        11        10         9     9        0.000000        1.125398         3    ;  uncertainty k = 0.236290
         5        11        10         9     9      180.000000       -0.565117         4    ;  uncertainty k = 0.070459
         5        11        10        12     9        0.000000       -2.059377         1    ;  uncertainty k = 0.851928
         5        11        10        12     9      180.000000        0.138692         2    ;  uncertainty k = 0.296507
         5        11        10        12     9        0.000000        0.960865         3    ;  uncertainty k = 0.087683
         5        11        10        12     9      180.000000       -0.140924         4    ;  uncertainty k = 0.099251
         5        11        10        13     9        0.000000       -2.059377         1    ;  uncertainty k = 0.851928
         5        11        10        13     9      180.000000        0.138692         2    ;  uncertainty k = 0.296507
         5        11        10        13     9        0.000000        0.960865         3    ;  uncertainty k = 0.087683
         5        11        10        13     9      180.000000       -0.140924         4    ;  uncertainty k = 0.099251
         6         2         1        37     9        0.000000       -0.317377         1    ;  uncertainty k = 0.324377
         6         2         1        37     9      180.000000        2.311187         2    ;  uncertainty k = 0.314980
         6         2         1        37     9        0.000000        0.541761         3    ;  uncertainty k = 0.090741
         6         2         1        37     9      180.000000        0.204303         4    ;  uncertainty k = 0.098405
         6         2         1        38     9        0.000000       -0.317377         1    ;  uncertainty k = 0.324377
         6         2         1        38     9      180.000000        2.311187         2    ;  uncertainty k = 0.314980
         6         2         1        38     9        0.000000        0.541761         3    ;  uncertainty k = 0.090741
         6         2         1        38     9      180.000000        0.204303         4    ;  uncertainty k = 0.098405
         6         2         1        39     9        0.000000       -0.317377         1    ;  uncertainty k = 0.324377
         6         2         1        39     9      180.000000        2.311187         2    ;  uncertainty k = 0.314980
         6         2         1        39     9        0.000000        0.541761         3    ;  uncertainty k = 0.090741
         6         2         1        39     9      180.000000        0.204303         4    ;  uncertainty k = 0.098405
         6         2         3        26     9        0.000000        0.055128         1    ;  uncertainty k = 0.732145
         6         2         3        26     9      180.000000       13.885694         2    ;  uncertainty k = 0.513167
         6         2         3        26     9        0.000000        2.015934         3    ;  uncertainty k = 0.324516
         6         2         3        26     9      180.000000        0.862664         4    ;  uncertainty k = 0.269439
         6         5         4        14     9        0.000000        1.585683         1    ;  uncertainty k = 0.856207
         6         5         4        14     9      180.000000        9.919509         2    ;  uncertainty k = 0.470641
         6         5         4        14     9        0.000000        1.471676         3    ;  uncertainty k = 0.569045
         6         5         4        14     9      180.000000        0.041873         4    ;  uncertainty k = 0.188699
         6         5        11        10     9        0.000000       -5.743623         1    ;  uncertainty k = 0.992781
         6         5        11        10     9      180.000000        3.423293         2    ;  uncertainty k = 0.718951
         6         5        11        10     9        0.000000       -0.241330         3    ;  uncertainty k = 0.408245
         6         5        11        10     9      180.000000       -0.102576         4    ;  uncertainty k = 0.192591
         6         5        11        42     9        0.000000        0.132938         1    ;  uncertainty k = 0.353733
         6         5        11        42     9      180.000000        1.654253         2    ;  uncertainty k = 0.268581
         6         5        11        42     9        0.000000        0.086088         3    ;  uncertainty k = 0.209388
         6         5        11        42     9      180.000000       -0.010768         4    ;  uncertainty k = 0.059037
         6         5        11        43     9        0.000000        0.132938         1    ;  uncertainty k = 0.353733
         6         5        11        43     9      180.000000        1.654253         2    ;  uncertainty k = 0.268581
         6         5        11        43     9        0.000000        0.086088         3    ;  uncertainty k = 0.209388
         6         5        11        43     9      180.000000       -0.010768         4    ;  uncertainty k = 0.059037
         6         7         9        10     9        0.000000       -1.816999         1    ;  uncertainty k = 1.169016
         6         7         9        10     9      180.000000        1.111718         2    ;  uncertainty k = 0.775325
         6         7         9        10     9        0.000000        0.530190         3    ;  uncertainty k = 0.364970
         6         7         9        10     9      180.000000        0.320395         4    ;  uncertainty k = 0.142560
         6         7         9        40     9        0.000000       -2.829394         1    ;  uncertainty k = 0.709561
         6         7         9        40     9      180.000000        2.442710         2    ;  uncertainty k = 0.465671
         6         7         9        40     9        0.000000        0.611080         3    ;  uncertainty k = 0.177241
         6         7         9        40     9      180.000000        0.073930         4    ;  uncertainty k = 0.113308
         6         7         9        41     9        0.000000       -2.829394         1    ;  uncertainty k = 0.709561
         6         7         9        41     9      180.000000        2.442710         2    ;  uncertainty k = 0.465671
         6         7         9        41     9        0.000000        0.611080         3    ;  uncertainty k = 0.177241
         6         7         9        41     9      180.000000        0.073930         4    ;  uncertainty k = 0.113308
         7         6         5        11     9        0.000000       -0.297424         1    ;  uncertainty k = 0.377299
         7         6         5        11     9      180.000000        7.571017         2    ;  uncertainty k = 0.845428
         7         6         5        11     9        0.000000        1.304071         3    ;  uncertainty k = 0.246622
         7         6         5        11     9      180.000000        0.870019         4    ;  uncertainty k = 0.242608
         7         9        10        11     9        0.000000        4.426178         1    ;  uncertainty k = 2.123989
         7         9        10        11     9      180.000000       -2.017072         2    ;  uncertainty k = 1.183010
         7         9        10        11     9        0.000000       -0.145895         3    ;  uncertainty k = 0.490514
         7         9        10        11     9      180.000000       -0.170555         4    ;  uncertainty k = 0.458128
         7         9        10        12     9        0.000000       -3.108043         1    ;  uncertainty k = 1.074988
         7         9        10        12     9      180.000000        0.837403         2    ;  uncertainty k = 0.454399
         7         9        10        12     9        0.000000        0.620633         3    ;  uncertainty k = 0.203582
         7         9        10        12     9      180.000000       -0.175457         4    ;  uncertainty k = 0.135641
         7         9        10        13     9        0.000000       -3.108043         1    ;  uncertainty k = 1.074988
         7         9        10        13     9      180.000000        0.837403         2    ;  uncertainty k = 0.454399
         7         9        10        13     9        0.000000        0.620633         3    ;  uncertainty k = 0.203582
         7         9        10        13     9      180.000000       -0.175457         4    ;  uncertainty k = 0.135641
         8         7         9        10     9        0.000000       -1.651347         1    ;  uncertainty k = 1.529630
         8         7         9        10     9      180.000000        4.493843         2    ;  uncertainty k = 0.895842
         8         7         9        10     9        0.000000        1.248226         3    ;  uncertainty k = 0.555965
         8         7         9        10     9      180.000000        0.499233         4    ;  uncertainty k = 0.193382
         8         7         9        40     9        0.000000        1.807907         1    ;  uncertainty k = 0.733953
         8         7         9        40     9      180.000000        4.455563         2    ;  uncertainty k = 0.196117
         8         7         9        40     9        0.000000        0.423865         3    ;  uncertainty k = 0.105725
         8         7         9        40     9      180.000000        0.189424         4    ;  uncertainty k = 0.055096
         8         7         9        41     9        0.000000        1.807907         1    ;  uncertainty k = 0.733953
         8         7         9        41     9      180.000000        4.455563         2    ;  uncertainty k = 0.196117
         8         7         9        41     9        0.000000        0.423865         3    ;  uncertainty k = 0.105725
         8         7         9        41     9      180.000000        0.189424         4    ;  uncertainty k = 0.055096
         9        10        11        42     9        0.000000       -0.565078         1    ;  uncertainty k = 0.337931
         9        10        11        42     9      180.000000       -0.552917         2    ;  uncertainty k = 0.313965
         9        10        11        42     9        0.000000        0.111030         3    ;  uncertainty k = 0.061469
         9        10        11        42     9      180.000000        0.013508         4    ;  uncertainty k = 0.088562
         9        10        11        43     9        0.000000       -0.565078         1    ;  uncertainty k = 0.337931
         9        10        11        43     9      180.000000       -0.552917         2    ;  uncertainty k = 0.313965
         9        10        11        43     9        0.000000        0.111030         3    ;  uncertainty k = 0.061469
         9        10        11        43     9      180.000000        0.013508         4    ;  uncertainty k = 0.088562
         9        10        12        44     9        0.000000       -0.849960         1    ;  uncertainty k = 0.267418
         9        10        12        44     9      180.000000       -0.697110         2    ;  uncertainty k = 0.151026
         9        10        12        44     9        0.000000        0.772062         3    ;  uncertainty k = 0.038119
         9        10        12        44     9      180.000000       -0.185621         4    ;  uncertainty k = 0.075834
         9        10        12        45     9        0.000000       -0.849960         1    ;  uncertainty k = 0.267418
         9        10        12        45     9      180.000000       -0.697110         2    ;  uncertainty k = 0.151026
         9        10        12        45     9        0.000000        0.772062         3    ;  uncertainty k = 0.038119
         9        10        12        45     9      180.000000       -0.185621         4    ;  uncertainty k = 0.075834
         9        10        12        46     9        0.000000       -0.849960         1    ;  uncertainty k = 0.267418
         9        10        12        46     9      180.000000       -0.697110         2    ;  uncertainty k = 0.151026
         9        10        12        46     9        0.000000        0.772062         3    ;  uncertainty k = 0.038119
         9        10        12        46     9      180.000000       -0.185621         4    ;  uncertainty k = 0.075834
         9        10        13        47     9        0.000000       -0.849960         1    ;  uncertainty k = 0.267418
         9        10        13        47     9      180.000000       -0.697110         2    ;  uncertainty k = 0.151026
         9        10        13        47     9        0.000000        0.772062         3    ;  uncertainty k = 0.038119
         9        10        13        47     9      180.000000       -0.185621         4    ;  uncertainty k = 0.075834
         9        10        13        48     9        0.000000       -0.849960         1    ;  uncertainty k = 0.267418
         9        10        13        48     9      180.000000       -0.697110         2    ;  uncertainty k = 0.151026
         9        10        13        48     9        0.000000        0.772062         3    ;  uncertainty k = 0.038119
         9        10        13        48     9      180.000000       -0.185621         4    ;  uncertainty k = 0.075834
         9        10        13        49     9        0.000000       -0.849960         1    ;  uncertainty k = 0.267418
         9        10        13        49     9      180.000000       -0.697110         2    ;  uncertainty k = 0.151026
         9        10        13        49     9        0.000000        0.772062         3    ;  uncertainty k = 0.038119
         9        10        13        49     9      180.000000       -0.185621         4    ;  uncertainty k = 0.075834
        11         5         4        14     9        0.000000        0.893616         1    ;  uncertainty k = 0.950885
        11         5         4        14     9      180.000000        4.019364         2    ;  uncertainty k = 0.518252
        11         5         4        14     9        0.000000        1.140273         3    ;  uncertainty k = 0.275006
        11         5         4        14     9      180.000000        0.252619         4    ;  uncertainty k = 0.094608
        11        10         9        40     9        0.000000       -0.493419         1    ;  uncertainty k = 0.248639
        11        10         9        40     9      180.000000       -0.717372         2    ;  uncertainty k = 0.190838
        11        10         9        40     9        0.000000       -0.027738         3    ;  uncertainty k = 0.072348
        11        10         9        40     9      180.000000       -0.010183         4    ;  uncertainty k = 0.107963
        11        10         9        41     9        0.000000       -0.493419         1    ;  uncertainty k = 0.248639
        11        10         9        41     9      180.000000       -0.717372         2    ;  uncertainty k = 0.190838
        11        10         9        41     9        0.000000       -0.027738         3    ;  uncertainty k = 0.072348
        11        10         9        41     9      180.000000       -0.010183         4    ;  uncertainty k = 0.107963
        11        10        12        44     9        0.000000       -0.498538         1    ;  uncertainty k = 0.143113
        11        10        12        44     9      180.000000       -0.848272         2    ;  uncertainty k = 0.184454
        11        10        12        44     9        0.000000        0.727630         3    ;  uncertainty k = 0.102120
        11        10        12        44     9      180.000000       -0.161619         4    ;  uncertainty k = 0.028800
        11        10        12        45     9        0.000000       -0.498538         1    ;  uncertainty k = 0.143113
        11        10        12        45     9      180.000000       -0.848272         2    ;  uncertainty k = 0.184454
        11        10        12        45     9        0.000000        0.727630         3    ;  uncertainty k = 0.102120
        11        10        12        45     9      180.000000       -0.161619         4    ;  uncertainty k = 0.028800
        11        10        12        46     9        0.000000       -0.498538         1    ;  uncertainty k = 0.143113
        11        10        12        46     9      180.000000       -0.848272         2    ;  uncertainty k = 0.184454
        11        10        12        46     9        0.000000        0.727630         3    ;  uncertainty k = 0.102120
        11        10        12        46     9      180.000000       -0.161619         4    ;  uncertainty k = 0.028800
        11        10        13        47     9        0.000000       -0.498538         1    ;  uncertainty k = 0.143113
        11        10        13        47     9      180.000000       -0.848272         2    ;  uncertainty k = 0.184454
        11        10        13        47     9        0.000000        0.727630         3    ;  uncertainty k = 0.102120
        11        10        13        47     9      180.000000       -0.161619         4    ;  uncertainty k = 0.028800
        11        10        13        48     9        0.000000       -0.498538         1    ;  uncertainty k = 0.143113
        11        10        13        48     9      180.000000       -0.848272         2    ;  uncertainty k = 0.184454
        11        10        13        48     9        0.000000        0.727630         3    ;  uncertainty k = 0.102120
        11        10        13        48     9      180.000000       -0.161619         4    ;  uncertainty k = 0.028800
        11        10        13        49     9        0.000000       -0.498538         1    ;  uncertainty k = 0.143113
        11        10        13        49     9      180.000000       -0.848272         2    ;  uncertainty k = 0.184454
        11        10        13        49     9        0.000000        0.727630         3    ;  uncertainty k = 0.102120
        11        10        13        49     9      180.000000       -0.161619         4    ;  uncertainty k = 0.028800
        12        10         9        40     9        0.000000       -0.380880         1    ;  uncertainty k = 0.148988
        12        10         9        40     9      180.000000        0.029115         2    ;  uncertainty k = 0.242308
        12        10         9        40     9        0.000000        0.376394         3    ;  uncertainty k = 0.083406
        12        10         9        40     9      180.000000       -0.141551         4    ;  uncertainty k = 0.073708
        12        10         9        41     9        0.000000       -0.380880         1    ;  uncertainty k = 0.148988
        12        10         9        41     9      180.000000        0.029115         2    ;  uncertainty k = 0.242308
        12        10         9        41     9        0.000000        0.376394         3    ;  uncertainty k = 0.083406
        12        10         9        41     9      180.000000       -0.141551         4    ;  uncertainty k = 0.073708
        12        10        11        42     9        0.000000       -0.345053         1    ;  uncertainty k = 0.164726
        12        10        11        42     9      180.000000       -0.042992         2    ;  uncertainty k = 0.303596
        12        10        11        42     9        0.000000        0.449839         3    ;  uncertainty k = 0.094580
        12        10        11        42     9      180.000000       -0.101077         4    ;  uncertainty k = 0.068895
        12        10        11        43     9        0.000000       -0.345053         1    ;  uncertainty k = 0.164726
        12        10        11        43     9      180.000000       -0.042992         2    ;  uncertainty k = 0.303596
        12        10        11        43     9        0.000000        0.449839         3    ;  uncertainty k = 0.094580
        12        10        11        43     9      180.000000       -0.101077         4    ;  uncertainty k = 0.068895
        12        10        13        47     9        0.000000       -1.100690         1    ;  uncertainty k = 0.262906
        12        10        13        47     9      180.000000       -0.104141         2    ;  uncertainty k = 0.144222
        12        10        13        47     9        0.000000        0.812856         3    ;  uncertainty k = 0.036112
        12        10        13        47     9      180.000000       -0.129298         4    ;  uncertainty k = 0.042322
        12        10        13        48     9        0.000000       -1.100690         1    ;  uncertainty k = 0.262906
        12        10        13        48     9      180.000000       -0.104141         2    ;  uncertainty k = 0.144222
        12        10        13        48     9        0.000000        0.812856         3    ;  uncertainty k = 0.036112
        12        10        13        48     9      180.000000       -0.129298         4    ;  uncertainty k = 0.042322
        12        10        13        49     9        0.000000       -1.100690         1    ;  uncertainty k = 0.262906
        12        10        13        49     9      180.000000       -0.104141         2    ;  uncertainty k = 0.144222
        12        10        13        49     9        0.000000        0.812856         3    ;  uncertainty k = 0.036112
        12        10        13        49     9      180.000000       -0.129298         4    ;  uncertainty k = 0.042322
        13        10         9        40     9        0.000000       -0.380880         1    ;  uncertainty k = 0.148988
        13        10         9        40     9      180.000000        0.029115         2    ;  uncertainty k = 0.242308
        13        10         9        40     9        0.000000        0.376394         3    ;  uncertainty k = 0.083406
        13        10         9        40     9      180.000000       -0.141551         4    ;  uncertainty k = 0.073708
        13        10         9        41     9        0.000000       -0.380880         1    ;  uncertainty k = 0.148988
        13        10         9        41     9      180.000000        0.029115         2    ;  uncertainty k = 0.242308
        13        10         9        41     9        0.000000        0.376394         3    ;  uncertainty k = 0.083406
        13        10         9        41     9      180.000000       -0.141551         4    ;  uncertainty k = 0.073708
        13        10        11        42     9        0.000000       -0.345053         1    ;  uncertainty k = 0.164726
        13        10        11        42     9      180.000000       -0.042992         2    ;  uncertainty k = 0.303596
        13        10        11        42     9        0.000000        0.449839         3    ;  uncertainty k = 0.094580
        13        10        11        42     9      180.000000       -0.101077         4    ;  uncertainty k = 0.068895
        13        10        11        43     9        0.000000       -0.345053         1    ;  uncertainty k = 0.164726
        13        10        11        43     9      180.000000       -0.042992         2    ;  uncertainty k = 0.303596
        13        10        11        43     9        0.000000        0.449839         3    ;  uncertainty k = 0.094580
        13        10        11        43     9      180.000000       -0.101077         4    ;  uncertainty k = 0.068895
        13        10        12        44     9        0.000000       -1.100690         1    ;  uncertainty k = 0.262906
        13        10        12        44     9      180.000000       -0.104141         2    ;  uncertainty k = 0.144222
        13        10        12        44     9        0.000000        0.812856         3    ;  uncertainty k = 0.036112
        13        10        12        44     9      180.000000       -0.129298         4    ;  uncertainty k = 0.042322
        13        10        12        45     9        0.000000       -1.100690         1    ;  uncertainty k = 0.262906
        13        10        12        45     9      180.000000       -0.104141         2    ;  uncertainty k = 0.144222
        13        10        12        45     9        0.000000        0.812856         3    ;  uncertainty k = 0.036112
        13        10        12        45     9      180.000000       -0.129298         4    ;  uncertainty k = 0.042322
        13        10        12        46     9        0.000000       -1.100690         1    ;  uncertainty k = 0.262906
        13        10        12        46     9      180.000000       -0.104141         2    ;  uncertainty k = 0.144222
        13        10        12        46     9        0.000000        0.812856         3    ;  uncertainty k = 0.036112
        13        10        12        46     9      180.000000       -0.129298         4    ;  uncertainty k = 0.042322
        14         4         3        26     9        0.000000        0.435181         1    ;  uncertainty k = 0.692629
        14         4         3        26     9      180.000000        3.998866         2    ;  uncertainty k = 0.753425
        14         4         3        26     9        0.000000        1.247114         3    ;  uncertainty k = 0.241200
        14         4         3        26     9      180.000000        0.206925         4    ;  uncertainty k = 0.142902
        14        15        16        17     9        0.000000       -0.106420         1    ;  uncertainty k = 0.283589
        14        15        16        17     9      180.000000       12.324961         2    ;  uncertainty k = 0.370203
        14        15        16        17     9        0.000000       -0.795778         3    ;  uncertainty k = 0.517185
        14        15        16        17     9      180.000000        0.869855         4    ;  uncertainty k = 0.322233
        14        15        16        51     9        0.000000       -0.111324         1    ;  uncertainty k = 0.371913
        14        15        16        51     9      180.000000        8.088319         2    ;  uncertainty k = 0.358997
        14        15        16        51     9        0.000000        1.005365         3    ;  uncertainty k = 0.229771
        14        15        16        51     9      180.000000        1.767343         4    ;  uncertainty k = 0.141766
        14        19        18        17     9        0.000000        0.518325         1    ;  uncertainty k = 0.711360
        14        19        18        17     9      180.000000        5.623392         2    ;  uncertainty k = 0.915465
        14        19        18        17     9        0.000000        0.689225         3    ;  uncertainty k = 0.432383
        14        19        18        17     9      180.000000        1.338585         4    ;  uncertainty k = 0.208675
        14        19        18        20     9        0.000000        0.405431         1    ;  uncertainty k = 0.619456
        14        19        18        20     9      180.000000        9.132500         2    ;  uncertainty k = 0.350831
        14        19        18        20     9        0.000000        0.791706         3    ;  uncertainty k = 0.228836
        14        19        18        20     9      180.000000        1.606107         4    ;  uncertainty k = 0.253430
        15        14        19        18     9        0.000000        0.205484         1    ;  uncertainty k = 0.153552
        15        14        19        18     9      180.000000        9.720768         2    ;  uncertainty k = 0.558990
        15        14        19        18     9        0.000000       -0.002176         3    ;  uncertainty k = 0.369946
        15        14        19        18     9      180.000000        1.150073         4    ;  uncertainty k = 0.247801
        15        14        19        52     9        0.000000        0.266326         1    ;  uncertainty k = 0.272762
        15        14        19        52     9      180.000000        7.526698         2    ;  uncertainty k = 0.604425
        15        14        19        52     9        0.000000        1.355189         3    ;  uncertainty k = 0.409749
        15        14        19        52     9      180.000000        1.554641         4    ;  uncertainty k = 0.240595
        15        16        17        18     9        0.000000       -0.015645         1    ;  uncertainty k = 0.359595
        15        16        17        18     9      180.000000       10.068128         2    ;  uncertainty k = 0.154729
        15        16        17        18     9        0.000000       -0.232680         3    ;  uncertainty k = 0.560187
        15        16        17        18     9      180.000000        1.149529         4    ;  uncertainty k = 0.278410
        15        16        17        34     9        0.000000        0.101845         1    ;  uncertainty k = 0.557993
        15        16        17        34     9      180.000000        8.798190         2    ;  uncertainty k = 0.882939
        15        16        17        34     9        0.000000        1.443932         3    ;  uncertainty k = 0.469736
        15        16        17        34     9      180.000000        1.760547         4    ;  uncertainty k = 0.402023
        16        15        14        19     9        0.000000       -0.029665         1    ;  uncertainty k = 0.305199
        16        15        14        19     9      180.000000        9.904446         2    ;  uncertainty k = 0.496920
        16        15        14        19     9        0.000000       -0.163325         3    ;  uncertainty k = 0.315174
        16        15        14        19     9      180.000000        1.129351         4    ;  uncertainty k = 0.245876
        16        17        18        19     9        0.000000       -0.014696         1    ;  uncertainty k = 1.012979
        16        17        18        19     9      180.000000        4.804509         2    ;  uncertainty k = 0.706351
        16        17        18        19     9        0.000000        0.475645         3    ;  uncertainty k = 0.382445
        16        17        18        19     9      180.000000        1.471777         4    ;  uncertainty k = 0.348853
        16        17        18        20     9        0.000000       -0.055347         1    ;  uncertainty k = 0.843240
        16        17        18        20     9      180.000000        6.509005         2    ;  uncertainty k = 0.499226
        16        17        18        20     9        0.000000        0.947527         3    ;  uncertainty k = 0.371315
        16        17        18        20     9      180.000000        1.514176         4    ;  uncertainty k = 0.271049
        16        17        34        35     9        0.000000       -2.595932         1    ;  uncertainty k = 1.208800
        16        17        34        35     9      180.000000        4.057817         2    ;  uncertainty k = 0.812776
        16        17        34        35     9        0.000000        0.686371         3    ;  uncertainty k = 0.261441
        16        17        34        35     9      180.000000        0.284317         4    ;  uncertainty k = 0.206593
        16        17        34        36     9        0.000000        0.305328         1    ;  uncertainty k = 0.415604
        16        17        34        36     9      180.000000        4.331986         2    ;  uncertainty k = 0.243884
        16        17        34        36     9        0.000000        0.344150         3    ;  uncertainty k = 0.263599
        16        17        34        36     9      180.000000        0.048440         4    ;  uncertainty k = 0.204233
        17        16        15        50     9        0.000000       -0.158872         1    ;  uncertainty k = 0.274849
        17        16        15        50     9      180.000000        8.031418         2    ;  uncertainty k = 0.496181
        17        16        15        50     9        0.000000        1.215723         3    ;  uncertainty k = 0.359263
        17        16        15        50     9      180.000000        1.704879         4    ;  uncertainty k = 0.155881
        17        18        19        52     9        0.000000        0.616801         1    ;  uncertainty k = 0.874418
        17        18        19        52     9      180.000000        5.245773         2    ;  uncertainty k = 0.712197
        17        18        19        52     9        0.000000        1.322840         3    ;  uncertainty k = 0.298848
        17        18        19        52     9      180.000000        1.395567         4    ;  uncertainty k = 0.252267
        17        18        20        21     9        0.000000        3.326441         1    ;  uncertainty k = 0.459353
        17        18        20        21     9      180.000000       10.011346         2    ;  uncertainty k = 0.344999
        17        18        20        21     9        0.000000        0.442665         3    ;  uncertainty k = 0.269862
        17        18        20        21     9      180.000000       -0.091111         4    ;  uncertainty k = 0.236084
        17        18        20        53     9        0.000000        7.167551         1    ;  uncertainty k = 0.936518
        17        18        20        53     9      180.000000        5.887174         2    ;  uncertainty k = 0.471802
        17        18        20        53     9        0.000000        0.747505         3    ;  uncertainty k = 0.321949
        17        18        20        53     9      180.000000       -0.182772         4    ;  uncertainty k = 0.104451
        17        34        36        74     9        0.000000        3.531769         1    ;  uncertainty k = 1.191650
        17        34        36        74     9      180.000000        7.207763         2    ;  uncertainty k = 0.635624
        17        34        36        74     9        0.000000        2.736817         3    ;  uncertainty k = 0.502566
        17        34        36        74     9      180.000000       -0.259577         4    ;  uncertainty k = 0.307052
        17        34        36        75     9        0.000000        3.531769         1    ;  uncertainty k = 1.191650
        17        34        36        75     9      180.000000        7.207763         2    ;  uncertainty k = 0.635624
        17        34        36        75     9        0.000000        2.736817         3    ;  uncertainty k = 0.502566
        17        34        36        75     9      180.000000       -0.259577         4    ;  uncertainty k = 0.307052
        18        17        16        51     9        0.000000        0.265388         1    ;  uncertainty k = 0.289320
        18        17        16        51     9      180.000000        8.213309         2    ;  uncertainty k = 0.595318
        18        17        16        51     9        0.000000        1.083212         3    ;  uncertainty k = 0.309539
        18        17        16        51     9      180.000000        1.474489         4    ;  uncertainty k = 0.318033
        18        17        34        35     9        0.000000       -1.993606         1    ;  uncertainty k = 1.450004
        18        17        34        35     9      180.000000        3.364247         2    ;  uncertainty k = 0.771829
        18        17        34        35     9        0.000000        0.884921         3    ;  uncertainty k = 0.409083
        18        17        34        35     9      180.000000        0.336462         4    ;  uncertainty k = 0.165666
        18        17        34        36     9        0.000000        0.111832         1    ;  uncertainty k = 1.358436
        18        17        34        36     9      180.000000        5.315325         2    ;  uncertainty k = 0.331741
        18        17        34        36     9        0.000000        0.426660         3    ;  uncertainty k = 0.343786
        18        17        34        36     9      180.000000        0.152795         4    ;  uncertainty k = 0.290195
        18        20        21        22     9        0.000000       -0.078095         1    ;  uncertainty k = 0.342727
        18        20        21        22     9      180.000000       -0.469416         2    ;  uncertainty k = 0.313995
        18        20        21        22     9        0.000000        0.523281         3    ;  uncertainty k = 0.280717
        18        20        21        22     9      180.000000        0.280144         4    ;  uncertainty k = 0.090222
        18        20        21        33     9        0.000000       -0.562462         1    ;  uncertainty k = 0.346239
        18        20        21        33     9      180.000000       -0.031950         2    ;  uncertainty k = 0.270006
        18        20        21        33     9        0.000000        0.711943         3    ;  uncertainty k = 0.225263
        18        20        21        33     9      180.000000        0.299195         4    ;  uncertainty k = 0.062275
        18        20        21        54     9        0.000000       -0.658413         1    ;  uncertainty k = 0.565910
        18        20        21        54     9      180.000000       -1.553539         2    ;  uncertainty k = 0.163608
        18        20        21        54     9        0.000000        0.454394         3    ;  uncertainty k = 0.163895
        18        20        21        54     9      180.000000        0.386180         4    ;  uncertainty k = 0.113782
        19        14        15        50     9        0.000000        0.105655         1    ;  uncertainty k = 0.229364
        19        14        15        50     9      180.000000        6.669802         2    ;  uncertainty k = 0.977794
        19        14        15        50     9        0.000000        1.275936         3    ;  uncertainty k = 0.370425
        19        14        15        50     9      180.000000        1.558847         4    ;  uncertainty k = 0.299554
        19        18        17        34     9        0.000000        0.599151         1    ;  uncertainty k = 1.503879
        19        18        17        34     9      180.000000        4.970028         2    ;  uncertainty k = 0.551160
        19        18        17        34     9        0.000000        1.106811         3    ;  uncertainty k = 0.371387
        19        18        17        34     9      180.000000        1.662416         4    ;  uncertainty k = 0.133394
        19        18        20        21     9        0.000000        2.254988         1    ;  uncertainty k = 1.306463
        19        18        20        21     9      180.000000        8.367919         2    ;  uncertainty k = 0.203281
        19        18        20        21     9        0.000000       -0.056309         3    ;  uncertainty k = 0.176846
        19        18        20        21     9      180.000000       -0.077284         4    ;  uncertainty k = 0.175831
        19        18        20        53     9        0.000000        2.296744         1    ;  uncertainty k = 1.978340
        19        18        20        53     9      180.000000        6.590058         2    ;  uncertainty k = 0.275628
        19        18        20        53     9        0.000000        0.769515         3    ;  uncertainty k = 0.172615
        19        18        20        53     9      180.000000       -0.386602         4    ;  uncertainty k = 0.091420
        20        18        17        34     9        0.000000       -0.505869         1    ;  uncertainty k = 0.979598
        20        18        17        34     9      180.000000        7.547224         2    ;  uncertainty k = 0.954852
        20        18        17        34     9        0.000000        1.284467         3    ;  uncertainty k = 0.426929
        20        18        17        34     9      180.000000        1.539260         4    ;  uncertainty k = 0.357375
        20        18        19        52     9        0.000000       -0.191205         1    ;  uncertainty k = 0.291117
        20        18        19        52     9      180.000000        7.772014         2    ;  uncertainty k = 0.728490
        20        18        19        52     9        0.000000        0.751112         3    ;  uncertainty k = 0.163895
        20        18        19        52     9      180.000000        1.117940         4    ;  uncertainty k = 0.380675
        20        21        22        23     9        0.000000       -3.941243         1    ;  uncertainty k = 0.778072
        20        21        22        23     9      180.000000       -0.673212         2    ;  uncertainty k = 0.366491
        20        21        22        23     9        0.000000        1.436103         3    ;  uncertainty k = 0.269129
        20        21        22        23     9      180.000000       -0.498522         4    ;  uncertainty k = 0.082519
        20        21        22        32     9        0.000000       -2.668808         1    ;  uncertainty k = 0.311307
        20        21        22        32     9      180.000000        0.044682         2    ;  uncertainty k = 0.331113
        20        21        22        32     9        0.000000        1.581196         3    ;  uncertainty k = 0.296953
        20        21        22        32     9      180.000000       -0.411965         4    ;  uncertainty k = 0.066254
        20        21        22        55     9        0.000000        0.001600         1    ;  uncertainty k = 0.289145
        20        21        22        55     9      180.000000       -1.298975         2    ;  uncertainty k = 0.299575
        20        21        22        55     9        0.000000        0.670623         3    ;  uncertainty k = 0.136864
        20        21        22        55     9      180.000000       -0.057189         4    ;  uncertainty k = 0.096837
        20        21        33        71     9        0.000000       -1.329698         1    ;  uncertainty k = 0.466717
        20        21        33        71     9      180.000000       -0.564442         2    ;  uncertainty k = 0.156573
        20        21        33        71     9        0.000000        1.237439         3    ;  uncertainty k = 0.182705
        20        21        33        71     9      180.000000       -0.272430         4    ;  uncertainty k = 0.116260
        20        21        33        72     9        0.000000       -1.329698         1    ;  uncertainty k = 0.466717
        20        21        33        72     9      180.000000       -0.564442         2    ;  uncertainty k = 0.156573
        20        21        33        72     9        0.000000        1.237439         3    ;  uncertainty k = 0.182705
        20        21        33        72     9      180.000000       -0.272430         4    ;  uncertainty k = 0.116260
        20        21        33        73     9        0.000000       -1.329698         1    ;  uncertainty k = 0.466717
        20        21        33        73     9      180.000000       -0.564442         2    ;  uncertainty k = 0.156573
        20        21        33        73     9        0.000000        1.237439         3    ;  uncertainty k = 0.182705
        20        21        33        73     9      180.000000       -0.272430         4    ;  uncertainty k = 0.116260
        21        22        23        24     9        0.000000       -2.801819         1    ;  uncertainty k = 1.791085
        21        22        23        24     9      180.000000       -2.266941         2    ;  uncertainty k = 0.600291
        21        22        23        24     9        0.000000        1.350208         3    ;  uncertainty k = 0.264486
        21        22        23        24     9      180.000000       -0.294859         4    ;  uncertainty k = 0.205270
        21        22        23        56     9        0.000000       -0.932226         1    ;  uncertainty k = 0.943565
        21        22        23        56     9      180.000000       -0.272238         2    ;  uncertainty k = 0.295213
        21        22        23        56     9        0.000000        0.440744         3    ;  uncertainty k = 0.123953
        21        22        23        56     9      180.000000       -0.411309         4    ;  uncertainty k = 0.126021
        21        22        23        57     9        0.000000       -0.932226         1    ;  uncertainty k = 0.943565
        21        22        23        57     9      180.000000       -0.272238         2    ;  uncertainty k = 0.295213
        21        22        23        57     9        0.000000        0.440744         3    ;  uncertainty k = 0.123953
        21        22        23        57     9      180.000000       -0.411309         4    ;  uncertainty k = 0.126021
        21        22        32        68     9        0.000000       -0.847716         1    ;  uncertainty k = 0.215737
        21        22        32        68     9      180.000000       -1.094621         2    ;  uncertainty k = 0.128145
        21        22        32        68     9        0.000000        0.916894         3    ;  uncertainty k = 0.033434
        21        22        32        68     9      180.000000       -0.349920         4    ;  uncertainty k = 0.052320
        21        22        32        69     9        0.000000       -0.847716         1    ;  uncertainty k = 0.215737
        21        22        32        69     9      180.000000       -1.094621         2    ;  uncertainty k = 0.128145
        21        22        32        69     9        0.000000        0.916894         3    ;  uncertainty k = 0.033434
        21        22        32        69     9      180.000000       -0.349920         4    ;  uncertainty k = 0.052320
        21        22        32        70     9        0.000000       -0.847716         1    ;  uncertainty k = 0.215737
        21        22        32        70     9      180.000000       -1.094621         2    ;  uncertainty k = 0.128145
        21        22        32        70     9        0.000000        0.916894         3    ;  uncertainty k = 0.033434
        21        22        32        70     9      180.000000       -0.349920         4    ;  uncertainty k = 0.052320
        22        21        20        53     9        0.000000        4.114826         1    ;  uncertainty k = 0.847255
        22        21        20        53     9      180.000000       -2.813207         2    ;  uncertainty k = 0.476723
        22        21        20        53     9        0.000000        0.382364         3    ;  uncertainty k = 0.110956
        22        21        20        53     9      180.000000        0.088270         4    ;  uncertainty k = 0.114097
        22        21        33        71     9        0.000000       -1.074757         1    ;  uncertainty k = 0.157602
        22        21        33        71     9      180.000000       -0.800128         2    ;  uncertainty k = 0.196530
        22        21        33        71     9        0.000000        0.870785         3    ;  uncertainty k = 0.112174
        22        21        33        71     9      180.000000       -0.284569         4    ;  uncertainty k = 0.036462
        22        21        33        72     9        0.000000       -1.074757         1    ;  uncertainty k = 0.157602
        22        21        33        72     9      180.000000       -0.800128         2    ;  uncertainty k = 0.196530
        22        21        33        72     9        0.000000        0.870785         3    ;  uncertainty k = 0.112174
        22        21        33        72     9      180.000000       -0.284569         4    ;  uncertainty k = 0.036462
        22        21        33        73     9        0.000000       -1.074757         1    ;  uncertainty k = 0.157602
        22        21        33        73     9      180.000000       -0.800128         2    ;  uncertainty k = 0.196530
        22        21        33        73     9        0.000000        0.870785         3    ;  uncertainty k = 0.112174
        22        21        33        73     9      180.000000       -0.284569         4    ;  uncertainty k = 0.036462
        22        23        24        25     9        0.000000        1.472488         1    ;  uncertainty k = 0.685535
        22        23        24        25     9      180.000000       -0.894755         2    ;  uncertainty k = 0.460884
        22        23        24        25     9        0.000000        0.949529         3    ;  uncertainty k = 0.205290
        22        23        24        25     9      180.000000        0.177427         4    ;  uncertainty k = 0.115526
        22        23        24        27     9        0.000000        0.957198         1    ;  uncertainty k = 0.752466
        22        23        24        27     9      180.000000        0.150522         2    ;  uncertainty k = 0.614584
        22        23        24        27     9        0.000000       -0.012500         3    ;  uncertainty k = 0.178005
        22        23        24        27     9      180.000000        0.549279         4    ;  uncertainty k = 0.146899
        23        22        21        33     9        0.000000       -3.726396         1    ;  uncertainty k = 0.717731
        23        22        21        33     9      180.000000        0.191190         2    ;  uncertainty k = 0.160637
        23        22        21        33     9        0.000000        0.898784         3    ;  uncertainty k = 0.120688
        23        22        21        33     9      180.000000       -0.445761         4    ;  uncertainty k = 0.089441
        23        22        21        54     9        0.000000       -1.287762         1    ;  uncertainty k = 0.341121
        23        22        21        54     9      180.000000       -1.099453         2    ;  uncertainty k = 0.207987
        23        22        21        54     9        0.000000        0.238338         3    ;  uncertainty k = 0.122289
        23        22        21        54     9      180.000000       -0.273562         4    ;  uncertainty k = 0.122018
        23        22        32        68     9        0.000000       -1.292799         1    ;  uncertainty k = 0.265017
        23        22        32        68     9      180.000000       -1.028419         2    ;  uncertainty k = 0.192962
        23        22        32        68     9        0.000000        0.866117         3    ;  uncertainty k = 0.055771
        23        22        32        68     9      180.000000       -0.350335         4    ;  uncertainty k = 0.090321
        23        22        32        69     9        0.000000       -1.292799         1    ;  uncertainty k = 0.265017
        23        22        32        69     9      180.000000       -1.028419         2    ;  uncertainty k = 0.192962
        23        22        32        69     9        0.000000        0.866117         3    ;  uncertainty k = 0.055771
        23        22        32        69     9      180.000000       -0.350335         4    ;  uncertainty k = 0.090321
        23        22        32        70     9        0.000000       -1.292799         1    ;  uncertainty k = 0.265017
        23        22        32        70     9      180.000000       -1.028419         2    ;  uncertainty k = 0.192962
        23        22        32        70     9        0.000000        0.866117         3    ;  uncertainty k = 0.055771
        23        22        32        70     9      180.000000       -0.350335         4    ;  uncertainty k = 0.090321
        23        24        25        26     9        0.000000        0.222245         1    ;  uncertainty k = 0.140824
        23        24        25        26     9      180.000000       -1.429443         2    ;  uncertainty k = 0.367624
        23        24        25        26     9        0.000000        1.058658         3    ;  uncertainty k = 0.087882
        23        24        25        26     9      180.000000        0.156078         4    ;  uncertainty k = 0.143156
        23        24        25        58     9        0.000000       -1.589742         1    ;  uncertainty k = 0.524579
        23        24        25        58     9      180.000000        0.038480         2    ;  uncertainty k = 0.288434
        23        24        25        58     9        0.000000        0.881420         3    ;  uncertainty k = 0.091632
        23        24        25        58     9      180.000000        0.200557         4    ;  uncertainty k = 0.087873
        23        24        25        59     9        0.000000       -1.589742         1    ;  uncertainty k = 0.524579
        23        24        25        59     9      180.000000        0.038480         2    ;  uncertainty k = 0.288434
        23        24        25        59     9        0.000000        0.881420         3    ;  uncertainty k = 0.091632
        23        24        25        59     9      180.000000        0.200557         4    ;  uncertainty k = 0.087873
        23        24        27        28     9        0.000000        6.294011         1    ;  uncertainty k = 1.498254
        23        24        27        28     9      180.000000       20.032635         2    ;  uncertainty k = 0.564610
        23        24        27        28     9        0.000000        0.339554         3    ;  uncertainty k = 0.450415
        23        24        27        28     9      180.000000       -1.025423         4    ;  uncertainty k = 0.700254
        23        24        27        29     9        0.000000        7.546237         1    ;  uncertainty k = 1.180994
        23        24        27        29     9      180.000000        9.198106         2    ;  uncertainty k = 0.562159
        23        24        27        29     9        0.000000        1.518240         3    ;  uncertainty k = 0.346184
        23        24        27        29     9      180.000000       -0.130666         4    ;  uncertainty k = 0.259153
        24        23        22        32     9        0.000000       -1.956417         1    ;  uncertainty k = 0.961040
        24        23        22        32     9      180.000000       -0.761444         2    ;  uncertainty k = 0.382564
        24        23        22        32     9        0.000000        1.478143         3    ;  uncertainty k = 0.224834
        24        23        22        32     9      180.000000       -0.315956         4    ;  uncertainty k = 0.085337
        24        23        22        55     9        0.000000        1.579620         1    ;  uncertainty k = 0.913108
        24        23        22        55     9      180.000000       -2.809898         2    ;  uncertainty k = 0.207413
        24        23        22        55     9        0.000000        0.896271         3    ;  uncertainty k = 0.221460
        24        23        22        55     9      180.000000       -0.040755         4    ;  uncertainty k = 0.043345
        24        25        26        60     9        0.000000        0.465927         1    ;  uncertainty k = 0.934388
        24        25        26        60     9      180.000000       -1.903017         2    ;  uncertainty k = 0.605919
        24        25        26        60     9        0.000000        1.169571         3    ;  uncertainty k = 0.153574
        24        25        26        60     9      180.000000       -0.121472         4    ;  uncertainty k = 0.061386
        24        25        26        61     9        0.000000        0.465927         1    ;  uncertainty k = 0.934388
        24        25        26        61     9      180.000000       -1.903017         2    ;  uncertainty k = 0.605919
        24        25        26        61     9        0.000000        1.169571         3    ;  uncertainty k = 0.153574
        24        25        26        61     9      180.000000       -0.121472         4    ;  uncertainty k = 0.061386
        24        27        29        30     9        0.000000       -3.067975         1    ;  uncertainty k = 0.450160
        24        27        29        30     9      180.000000        2.577677         2    ;  uncertainty k = 0.882931
        24        27        29        30     9        0.000000        0.573177         3    ;  uncertainty k = 0.294843
        24        27        29        30     9      180.000000        0.041833         4    ;  uncertainty k = 0.069256
        24        27        29        31     9        0.000000        3.976254         1    ;  uncertainty k = 2.190799
        24        27        29        31     9      180.000000        5.559069         2    ;  uncertainty k = 0.539516
        24        27        29        31     9        0.000000        1.223802         3    ;  uncertainty k = 0.477888
        24        27        29        31     9      180.000000       -0.018114         4    ;  uncertainty k = 0.273696
        24        27        29        62     9        0.000000        0.079312         1    ;  uncertainty k = 1.103206
        24        27        29        62     9      180.000000        1.998744         2    ;  uncertainty k = 0.364580
        24        27        29        62     9        0.000000        0.180249         3    ;  uncertainty k = 0.433620
        24        27        29        62     9      180.000000        0.118740         4    ;  uncertainty k = 0.141927
        25        24        23        56     9        0.000000       -2.050131         1    ;  uncertainty k = 0.489946
        25        24        23        56     9      180.000000        0.000232         2    ;  uncertainty k = 0.366363
        25        24        23        56     9        0.000000        0.887450         3    ;  uncertainty k = 0.103727
        25        24        23        56     9      180.000000        0.204017         4    ;  uncertainty k = 0.111278
        25        24        23        57     9        0.000000       -2.050131         1    ;  uncertainty k = 0.489946
        25        24        23        57     9      180.000000        0.000232         2    ;  uncertainty k = 0.366363
        25        24        23        57     9        0.000000        0.887450         3    ;  uncertainty k = 0.103727
        25        24        23        57     9      180.000000        0.204017         4    ;  uncertainty k = 0.111278
        25        24        27        28     9        0.000000        6.695103         1    ;  uncertainty k = 1.371605
        25        24        27        28     9      180.000000       20.027267         2    ;  uncertainty k = 0.531148
        25        24        27        28     9        0.000000        0.287509         3    ;  uncertainty k = 0.400932
        25        24        27        28     9      180.000000       -0.955820         4    ;  uncertainty k = 0.630731
        25        24        27        29     9        0.000000        7.725127         1    ;  uncertainty k = 1.128370
        25        24        27        29     9      180.000000        9.239946         2    ;  uncertainty k = 0.663430
        25        24        27        29     9        0.000000        1.520217         3    ;  uncertainty k = 0.436199
        25        24        27        29     9      180.000000       -0.121970         4    ;  uncertainty k = 0.276877
        26        25        24        27     9        0.000000        1.130539         1    ;  uncertainty k = 0.513341
        26        25        24        27     9      180.000000       -0.373171         2    ;  uncertainty k = 0.643686
        26        25        24        27     9        0.000000        0.240408         3    ;  uncertainty k = 0.225883
        26        25        24        27     9      180.000000        0.547618         4    ;  uncertainty k = 0.199502
        27        24        23        56     9        0.000000        0.338252         1    ;  uncertainty k = 0.513344
        27        24        23        56     9      180.000000        0.147889         2    ;  uncertainty k = 0.427646
        27        24        23        56     9        0.000000       -0.001728         3    ;  uncertainty k = 0.213112
        27        24        23        56     9      180.000000        0.276704         4    ;  uncertainty k = 0.049947
        27        24        23        57     9        0.000000        0.338252         1    ;  uncertainty k = 0.513344
        27        24        23        57     9      180.000000        0.147889         2    ;  uncertainty k = 0.427646
        27        24        23        57     9        0.000000       -0.001728         3    ;  uncertainty k = 0.213112
        27        24        23        57     9      180.000000        0.276704         4    ;  uncertainty k = 0.049947
        27        24        25        58     9        0.000000        0.513343         1    ;  uncertainty k = 0.647495
        27        24        25        58     9      180.000000        0.185955         2    ;  uncertainty k = 0.339061
        27        24        25        58     9        0.000000        0.094654         3    ;  uncertainty k = 0.216127
        27        24        25        58     9      180.000000        0.283219         4    ;  uncertainty k = 0.065787
        27        24        25        59     9        0.000000        0.513343         1    ;  uncertainty k = 0.647495
        27        24        25        59     9      180.000000        0.185955         2    ;  uncertainty k = 0.339061
        27        24        25        59     9        0.000000        0.094654         3    ;  uncertainty k = 0.216127
        27        24        25        59     9      180.000000        0.283219         4    ;  uncertainty k = 0.065787
        27        29        30        63     9        0.000000        0.756165         1    ;  uncertainty k = 0.518520
        27        29        30        63     9      180.000000       -1.098994         2    ;  uncertainty k = 0.416272
        27        29        30        63     9        0.000000        0.656298         3    ;  uncertainty k = 0.183529
        27        29        30        63     9      180.000000       -0.126635         4    ;  uncertainty k = 0.128030
        27        29        30        64     9        0.000000        0.756165         1    ;  uncertainty k = 0.518520
        27        29        30        64     9      180.000000       -1.098994         2    ;  uncertainty k = 0.416272
        27        29        30        64     9        0.000000        0.656298         3    ;  uncertainty k = 0.183529
        27        29        30        64     9      180.000000       -0.126635         4    ;  uncertainty k = 0.128030
        27        29        30        65     9        0.000000        0.756165         1    ;  uncertainty k = 0.518520
        27        29        30        65     9      180.000000       -1.098994         2    ;  uncertainty k = 0.416272
        27        29        30        65     9        0.000000        0.656298         3    ;  uncertainty k = 0.183529
        27        29        30        65     9      180.000000       -0.126635         4    ;  uncertainty k = 0.128030
        27        29        31        66     9        0.000000        6.030148         1    ;  uncertainty k = 1.531555
        27        29        31        66     9      180.000000       -0.933471         2    ;  uncertainty k = 0.877711
        27        29        31        66     9        0.000000        0.409036         3    ;  uncertainty k = 0.123285
        27        29        31        66     9      180.000000        0.130827         4    ;  uncertainty k = 0.152988
        27        29        31        67     9        0.000000        6.030148         1    ;  uncertainty k = 1.531555
        27        29        31        67     9      180.000000       -0.933471         2    ;  uncertainty k = 0.877711
        27        29        31        67     9        0.000000        0.409036         3    ;  uncertainty k = 0.123285
        27        29        31        67     9      180.000000        0.130827         4    ;  uncertainty k = 0.152988
        27        29        31        76     9        0.000000        6.030148         1    ;  uncertainty k = 1.531555
        27        29        31        76     9      180.000000       -0.933471         2    ;  uncertainty k = 0.877711
        27        29        31        76     9        0.000000        0.409036         3    ;  uncertainty k = 0.123285
        27        29        31        76     9      180.000000        0.130827         4    ;  uncertainty k = 0.152988
        28        27        29        30     9        0.000000       -2.308406         1    ;  uncertainty k = 1.269114
        28        27        29        30     9      180.000000        3.578818         2    ;  uncertainty k = 0.453755
        28        27        29        30     9        0.000000        1.227150         3    ;  uncertainty k = 0.214844
        28        27        29        30     9      180.000000        0.349580         4    ;  uncertainty k = 0.133138
        28        27        29        31     9        0.000000        6.856554         1    ;  uncertainty k = 1.035900
        28        27        29        31     9      180.000000        6.495282         2    ;  uncertainty k = 0.373566
        28        27        29        31     9        0.000000        0.628542         3    ;  uncertainty k = 0.259959
        28        27        29        31     9      180.000000       -0.045164         4    ;  uncertainty k = 0.364355
        28        27        29        62     9        0.000000       -3.164357         1    ;  uncertainty k = 0.918652
        28        27        29        62     9      180.000000        3.135119         2    ;  uncertainty k = 0.790725
        28        27        29        62     9        0.000000        0.869247         3    ;  uncertainty k = 0.177732
        28        27        29        62     9      180.000000        0.113652         4    ;  uncertainty k = 0.127336
        30        29        31        66     9        0.000000       -0.103123         1    ;  uncertainty k = 1.126897
        30        29        31        66     9      180.000000        0.243241         2    ;  uncertainty k = 0.557791
        30        29        31        66     9        0.000000        0.822128         3    ;  uncertainty k = 0.093310
        30        29        31        66     9      180.000000        0.042044         4    ;  uncertainty k = 0.136612
        30        29        31        67     9        0.000000       -0.103123         1    ;  uncertainty k = 1.126897
        30        29        31        67     9      180.000000        0.243241         2    ;  uncertainty k = 0.557791
        30        29        31        67     9        0.000000        0.822128         3    ;  uncertainty k = 0.093310
        30        29        31        67     9      180.000000        0.042044         4    ;  uncertainty k = 0.136612
        30        29        31        76     9        0.000000       -0.103123         1    ;  uncertainty k = 1.126897
        30        29        31        76     9      180.000000        0.243241         2    ;  uncertainty k = 0.557791
        30        29        31        76     9        0.000000        0.822128         3    ;  uncertainty k = 0.093310
        30        29        31        76     9      180.000000        0.042044         4    ;  uncertainty k = 0.136612
        31        29        30        63     9        0.000000       -1.339619         1    ;  uncertainty k = 1.150715
        31        29        30        63     9      180.000000       -2.479874         2    ;  uncertainty k = 0.661753
        31        29        30        63     9        0.000000        1.147118         3    ;  uncertainty k = 0.128794
        31        29        30        63     9      180.000000       -0.236089         4    ;  uncertainty k = 0.102402
        31        29        30        64     9        0.000000       -1.339619         1    ;  uncertainty k = 1.150715
        31        29        30        64     9      180.000000       -2.479874         2    ;  uncertainty k = 0.661753
        31        29        30        64     9        0.000000        1.147118         3    ;  uncertainty k = 0.128794
        31        29        30        64     9      180.000000       -0.236089         4    ;  uncertainty k = 0.102402
        31        29        30        65     9        0.000000       -1.339619         1    ;  uncertainty k = 1.150715
        31        29        30        65     9      180.000000       -2.479874         2    ;  uncertainty k = 0.661753
        31        29        30        65     9        0.000000        1.147118         3    ;  uncertainty k = 0.128794
        31        29        30        65     9      180.000000       -0.236089         4    ;  uncertainty k = 0.102402
        32        22        21        33     9        0.000000       -3.876177         1    ;  uncertainty k = 0.527745
        32        22        21        33     9      180.000000        0.892564         2    ;  uncertainty k = 0.180573
        32        22        21        33     9        0.000000        0.926831         3    ;  uncertainty k = 0.065198
        32        22        21        33     9      180.000000       -0.366395         4    ;  uncertainty k = 0.087620
        32        22        21        54     9        0.000000       -1.274608         1    ;  uncertainty k = 0.359805
        32        22        21        54     9      180.000000       -0.349265         2    ;  uncertainty k = 0.179938
        32        22        21        54     9        0.000000        0.371657         3    ;  uncertainty k = 0.141953
        32        22        21        54     9      180.000000       -0.142705         4    ;  uncertainty k = 0.055132
        32        22        23        56     9        0.000000       -1.739933         1    ;  uncertainty k = 0.558734
        32        22        23        56     9      180.000000        0.139359         2    ;  uncertainty k = 0.210143
        32        22        23        56     9        0.000000        0.528843         3    ;  uncertainty k = 0.105052
        32        22        23        56     9      180.000000       -0.267254         4    ;  uncertainty k = 0.102647
        32        22        23        57     9        0.000000       -1.739933         1    ;  uncertainty k = 0.558734
        32        22        23        57     9      180.000000        0.139359         2    ;  uncertainty k = 0.210143
        32        22        23        57     9        0.000000        0.528843         3    ;  uncertainty k = 0.105052
        32        22        23        57     9      180.000000       -0.267254         4    ;  uncertainty k = 0.102647
        33        21        20        53     9        0.000000        2.433996         1    ;  uncertainty k = 0.576998
        33        21        20        53     9      180.000000       -1.568935         2    ;  uncertainty k = 0.339095
        33        21        20        53     9        0.000000        0.401679         3    ;  uncertainty k = 0.050327
        33        21        20        53     9      180.000000        0.164986         4    ;  uncertainty k = 0.106993
        33        21        22        55     9        0.000000       -1.136777         1    ;  uncertainty k = 0.254742
        33        21        22        55     9      180.000000       -0.353062         2    ;  uncertainty k = 0.214024
        33        21        22        55     9        0.000000        0.182590         3    ;  uncertainty k = 0.148903
        33        21        22        55     9      180.000000       -0.088337         4    ;  uncertainty k = 0.065827
        34        17        16        51     9        0.000000       -0.133102         1    ;  uncertainty k = 0.397787
        34        17        16        51     9      180.000000        8.487981         2    ;  uncertainty k = 0.517805
        34        17        16        51     9        0.000000        1.064602         3    ;  uncertainty k = 0.204946
        34        17        16        51     9      180.000000        1.226506         4    ;  uncertainty k = 0.294497
        35        34        36        74     9        0.000000        4.288276         1    ;  uncertainty k = 0.786448
        35        34        36        74     9      180.000000       11.499128         2    ;  uncertainty k = 0.403751
        35        34        36        74     9        0.000000        2.102366         3    ;  uncertainty k = 0.130475
        35        34        36        74     9      180.000000        0.313822         4    ;  uncertainty k = 0.325036
        35        34        36        75     9        0.000000        4.288276         1    ;  uncertainty k = 0.786448
        35        34        36        75     9      180.000000       11.499128         2    ;  uncertainty k = 0.403751
        35        34        36        75     9        0.000000        2.102366         3    ;  uncertainty k = 0.130475
        35        34        36        75     9      180.000000        0.313822         4    ;  uncertainty k = 0.325036
        50        15        16        51     9        0.000000       -0.161456         1    ;  uncertainty k = 0.314301
        50        15        16        51     9      180.000000        7.599374         2    ;  uncertainty k = 0.529226
        50        15        16        51     9        0.000000       -0.373990         3    ;  uncertainty k = 0.212621
        50        15        16        51     9      180.000000        0.361659         4    ;  uncertainty k = 0.257633
        53        20        21        54     9        0.000000        2.221820         1    ;  uncertainty k = 0.739059
        53        20        21        54     9      180.000000       -2.265136         2    ;  uncertainty k = 0.300609
        53        20        21        54     9        0.000000        0.053515         3    ;  uncertainty k = 0.136662
        53        20        21        54     9      180.000000        0.070717         4    ;  uncertainty k = 0.089160
        54        21        22        55     9        0.000000        1.622118         1    ;  uncertainty k = 0.288160
        54        21        22        55     9      180.000000       -1.076509         2    ;  uncertainty k = 0.185520
        54        21        22        55     9        0.000000       -0.439201         3    ;  uncertainty k = 0.102704
        54        21        22        55     9      180.000000       -0.292506         4    ;  uncertainty k = 0.056935
        54        21        33        71     9        0.000000        0.945145         1    ;  uncertainty k = 0.353214
        54        21        33        71     9      180.000000       -1.150643         2    ;  uncertainty k = 0.182802
        54        21        33        71     9        0.000000        0.288433         3    ;  uncertainty k = 0.055741
        54        21        33        71     9      180.000000       -0.057613         4    ;  uncertainty k = 0.040913
        54        21        33        72     9        0.000000        0.945145         1    ;  uncertainty k = 0.353214
        54        21        33        72     9      180.000000       -1.150643         2    ;  uncertainty k = 0.182802
        54        21        33        72     9        0.000000        0.288433         3    ;  uncertainty k = 0.055741
        54        21        33        72     9      180.000000       -0.057613         4    ;  uncertainty k = 0.040913
        54        21        33        73     9        0.000000        0.945145         1    ;  uncertainty k = 0.353214
        54        21        33        73     9      180.000000       -1.150643         2    ;  uncertainty k = 0.182802
        54        21        33        73     9        0.000000        0.288433         3    ;  uncertainty k = 0.055741
        54        21        33        73     9      180.000000       -0.057613         4    ;  uncertainty k = 0.040913
        55        22        23        56     9        0.000000        1.333061         1    ;  uncertainty k = 0.223132
        55        22        23        56     9      180.000000       -0.712319         2    ;  uncertainty k = 0.192756
        55        22        23        56     9        0.000000       -0.222346         3    ;  uncertainty k = 0.119857
        55        22        23        56     9      180.000000       -0.103711         4    ;  uncertainty k = 0.057161
        55        22        23        57     9        0.000000        1.333061         1    ;  uncertainty k = 0.223132
        55        22        23        57     9      180.000000       -0.712319         2    ;  uncertainty k = 0.192756
        55        22        23        57     9        0.000000       -0.222346         3    ;  uncertainty k = 0.119857
        55        22        23        57     9      180.000000       -0.103711         4    ;  uncertainty k = 0.057161
        55        22        32        68     9        0.000000        1.450666         1    ;  uncertainty k = 0.323175
        55        22        32        68     9      180.000000       -1.150956         2    ;  uncertainty k = 0.095699
        55        22        32        68     9        0.000000        0.256790         3    ;  uncertainty k = 0.055866
        55        22        32        68     9      180.000000       -0.016836         4    ;  uncertainty k = 0.061682
        55        22        32        69     9        0.000000        1.450666         1    ;  uncertainty k = 0.323175
        55        22        32        69     9      180.000000       -1.150956         2    ;  uncertainty k = 0.095699
        55        22        32        69     9        0.000000        0.256790         3    ;  uncertainty k = 0.055866
        55        22        32        69     9      180.000000       -0.016836         4    ;  uncertainty k = 0.061682
        55        22        32        70     9        0.000000        1.450666         1    ;  uncertainty k = 0.323175
        55        22        32        70     9      180.000000       -1.150956         2    ;  uncertainty k = 0.095699
        55        22        32        70     9        0.000000        0.256790         3    ;  uncertainty k = 0.055866
        55        22        32        70     9      180.000000       -0.016836         4    ;  uncertainty k = 0.061682
        58        25        26        60     9        0.000000        0.460368         1    ;  uncertainty k = 0.301945
        58        25        26        60     9      180.000000       -0.388196         2    ;  uncertainty k = 0.160653
        58        25        26        60     9        0.000000        0.263660         3    ;  uncertainty k = 0.048943
        58        25        26        60     9      180.000000        0.057107         4    ;  uncertainty k = 0.080487
        58        25        26        61     9        0.000000        0.460368         1    ;  uncertainty k = 0.301945
        58        25        26        61     9      180.000000       -0.388196         2    ;  uncertainty k = 0.160653
        58        25        26        61     9        0.000000        0.263660         3    ;  uncertainty k = 0.048943
        58        25        26        61     9      180.000000        0.057107         4    ;  uncertainty k = 0.080487
        59        25        26        60     9        0.000000        0.460368         1    ;  uncertainty k = 0.301945
        59        25        26        60     9      180.000000       -0.388196         2    ;  uncertainty k = 0.160653
        59        25        26        60     9        0.000000        0.263660         3    ;  uncertainty k = 0.048943
        59        25        26        60     9      180.000000        0.057107         4    ;  uncertainty k = 0.080487
        59        25        26        61     9        0.000000        0.460368         1    ;  uncertainty k = 0.301945
        59        25        26        61     9      180.000000       -0.388196         2    ;  uncertainty k = 0.160653
        59        25        26        61     9        0.000000        0.263660         3    ;  uncertainty k = 0.048943
        59        25        26        61     9      180.000000        0.057107         4    ;  uncertainty k = 0.080487
        62        29        30        63     9        0.000000        0.302093         1    ;  uncertainty k = 0.425222
        62        29        30        63     9      180.000000       -0.558170         2    ;  uncertainty k = 0.588629
        62        29        30        63     9        0.000000        0.326690         3    ;  uncertainty k = 0.224104
        62        29        30        63     9      180.000000       -0.012645         4    ;  uncertainty k = 0.127325
        62        29        30        64     9        0.000000        0.302093         1    ;  uncertainty k = 0.425222
        62        29        30        64     9      180.000000       -0.558170         2    ;  uncertainty k = 0.588629
        62        29        30        64     9        0.000000        0.326690         3    ;  uncertainty k = 0.224104
        62        29        30        64     9      180.000000       -0.012645         4    ;  uncertainty k = 0.127325
        62        29        30        65     9        0.000000        0.302093         1    ;  uncertainty k = 0.425222
        62        29        30        65     9      180.000000       -0.558170         2    ;  uncertainty k = 0.588629
        62        29        30        65     9        0.000000        0.326690         3    ;  uncertainty k = 0.224104
        62        29        30        65     9      180.000000       -0.012645         4    ;  uncertainty k = 0.127325
        62        29        31        66     9        0.000000        0.135243         1    ;  uncertainty k = 0.479403
        62        29        31        66     9      180.000000       -0.470172         2    ;  uncertainty k = 0.421334
        62        29        31        66     9        0.000000        0.259330         3    ;  uncertainty k = 0.062556
        62        29        31        66     9      180.000000        0.020808         4    ;  uncertainty k = 0.125463
        62        29        31        67     9        0.000000        0.135243         1    ;  uncertainty k = 0.479403
        62        29        31        67     9      180.000000       -0.470172         2    ;  uncertainty k = 0.421334
        62        29        31        67     9        0.000000        0.259330         3    ;  uncertainty k = 0.062556
        62        29        31        67     9      180.000000        0.020808         4    ;  uncertainty k = 0.125463
        62        29        31        76     9        0.000000        0.135243         1    ;  uncertainty k = 0.479403
        62        29        31        76     9      180.000000       -0.470172         2    ;  uncertainty k = 0.421334
        62        29        31        76     9        0.000000        0.259330         3    ;  uncertainty k = 0.062556
        62        29        31        76     9      180.000000        0.020808         4    ;  uncertainty k = 0.125463

[ dihedrals ] ; impropers
;       ai        aj        ak        al funct           phase               k        pn
         2         1         3         6     4      180.000000        6.510725         2    ;  uncertainty k = 0.209371
         2         3         6         1     4      180.000000        6.510725         2    ;  uncertainty k = 0.209371
         2         6         1         3     4      180.000000        6.510725         2    ;  uncertainty k = 0.209371
         3         2         4        26     4      180.000000        3.420475         2    ;  uncertainty k = 0.296217
         3         4        26         2     4      180.000000        3.420475         2    ;  uncertainty k = 0.296217
         3        26         2         4     4      180.000000        3.420475         2    ;  uncertainty k = 0.296217
         4         3         5        14     4      180.000000        1.607232         2    ;  uncertainty k = 1.153893
         4         5        14         3     4      180.000000        1.607232         2    ;  uncertainty k = 1.153893
         4        14         3         5     4      180.000000        1.607232         2    ;  uncertainty k = 1.153893
         5         4         6        11     4      180.000000        6.724634         2    ;  uncertainty k = 0.207720
         5         6        11         4     4      180.000000        6.724634         2    ;  uncertainty k = 0.207720
         5        11         4         6     4      180.000000        6.724634         2    ;  uncertainty k = 0.207720
         7         6         8         9     4      180.000000       55.461398         2    ;  uncertainty k = 0.044608
         7         8         9         6     4      180.000000       55.461398         2    ;  uncertainty k = 0.044608
         7         9         6         8     4      180.000000       55.461398         2    ;  uncertainty k = 0.044608
        14         4        15        19     4      180.000000       17.332181         2    ;  uncertainty k = 0.029020
        14        15        19         4     4      180.000000       17.332181         2    ;  uncertainty k = 0.029020
        14        19         4        15     4      180.000000       17.332181         2    ;  uncertainty k = 0.029020
        15        14        16        50     4      180.000000        1.764888         2    ;  uncertainty k = 0.320934
        15        16        50        14     4      180.000000        1.764888         2    ;  uncertainty k = 0.320934
        15        50        14        16     4      180.000000        1.764888         2    ;  uncertainty k = 0.320934
        16        15        17        51     4      180.000000        4.683357         2    ;  uncertainty k = 0.302417
        16        17        51        15     4      180.000000        4.683357         2    ;  uncertainty k = 0.302417
        16        51        15        17     4      180.000000        4.683357         2    ;  uncertainty k = 0.302417
        17        16        18        34     4      180.000000        6.654381         2    ;  uncertainty k = 0.326304
        17        18        34        16     4      180.000000        6.654381         2    ;  uncertainty k = 0.326304
        17        34        16        18     4      180.000000        6.654381         2    ;  uncertainty k = 0.326304
        18        17        19        20     4      180.000000       25.218776         2    ;  uncertainty k = 0.108191
        18        19        20        17     4      180.000000       25.218776         2    ;  uncertainty k = 0.108191
        18        20        17        19     4      180.000000       25.218776         2    ;  uncertainty k = 0.108191
        19        14        18        52     4      180.000000        1.958089         2    ;  uncertainty k = 0.523536
        19        18        52        14     4      180.000000        1.958089         2    ;  uncertainty k = 0.523536
        19        52        14        18     4      180.000000        1.958089         2    ;  uncertainty k = 0.523536
        20        18        21        53     4      180.000000        0.241697         2    ;  uncertainty k = 0.540451
        20        21        53        18     4      180.000000        0.241697         2    ;  uncertainty k = 0.540451
        20        53        18        21     4      180.000000        0.241697         2    ;  uncertainty k = 0.540451
        27        24        28        29     4      180.000000       47.842168         2    ;  uncertainty k = 0.085730
        27        28        29        24     4      180.000000       47.842168         2    ;  uncertainty k = 0.085730
        27        29        24        28     4      180.000000       47.842168         2    ;  uncertainty k = 0.085730
        34        17        35        36     4      180.000000       54.206420         2    ;  uncertainty k = 0.049320
        34        35        36        17     4      180.000000       54.206420         2    ;  uncertainty k = 0.049320
        34        36        17        35     4      180.000000       54.206420         2    ;  uncertainty k = 0.049320

[ pairs ]
;       ai        aj funct
         1         4     1
         1         5     1
         1         7     1
         1        26     1
         2         8     1
         2         9     1
         2        11     1
         2        14     1
         2        25     1
         2        60     1
         2        61     1
         3         7     1
         3        11     1
         3        15     1
         3        19     1
         3        24     1
         3        37     1
         3        38     1
         3        39     1
         3        58     1
         3        59     1
         4         7     1
         4        10     1
         4        16     1
         4        18     1
         4        25     1
         4        42     1
         4        43     1
         4        50     1
         4        52     1
         4        60     1
         4        61     1
         5         8     1
         5         9     1
         5        12     1
         5        13     1
         5        15     1
         5        19     1
         5        26     1
         6        10     1
         6        14     1
         6        26     1
         6        37     1
         6        38     1
         6        39     1
         6        40     1
         6        41     1
         6        42     1
         6        43     1
         7        11     1
         7        12     1
         7        13     1
         8        10     1
         8        40     1
         8        41     1
         9        42     1
         9        43     1
         9        44     1
         9        45     1
         9        46     1
         9        47     1
         9        48     1
         9        49     1
        11        14     1
        11        40     1
        11        41     1
        11        44     1
        11        45     1
        11        46     1
        11        47     1
        11        48     1
        11        49     1
        12        40     1
        12        41     1
        12        42     1
        12        43     1
        12        47     1
        12        48     1
        12        49     1
        13        40     1
        13        41     1
        13        42     1
        13        43     1
        13        44     1
        13        45     1
        13        46     1
        14        17     1
        14        20     1
        14        26     1
        14        51     1
        15        18     1
        15        34     1
        15        52     1
        16        19     1
        16        20     1
        16        35     1
        16        36     1
        17        21     1
        17        50     1
        17        52     1
        17        53     1
        17        74     1
        17        75     1
        18        22     1
        18        33     1
        18        35     1
        18        36     1
        18        51     1
        18        54     1
        19        21     1
        19        34     1
        19        50     1
        19        53     1
        20        23     1
        20        32     1
        20        34     1
        20        52     1
        20        55     1
        20        71     1
        20        72     1
        20        73     1
        21        24     1
        21        56     1
        21        57     1
        21        68     1
        21        69     1
        21        70     1
        22        25     1
        22        27     1
        22        53     1
        22        71     1
        22        72     1
        22        73     1
        23        26     1
        23        28     1
        23        29     1
        23        33     1
        23        54     1
        23        58     1
        23        59     1
        23        68     1
        23        69     1
        23        70     1
        24        30     1
        24        31     1
        24        32     1
        24        55     1
        24        60     1
        24        61     1
        24        62     1
        25        28     1
        25        29     1
        25        56     1
        25        57     1
        26        27     1
        27        56     1
        27        57     1
        27        58     1
        27        59     1
        27        63     1
        27        64     1
        27        65     1
        27        66     1
        27        67     1
        27        76     1
        28        30     1
        28        31     1
        28        62     1
        30        66     1
        30        67     1
        30        76     1
        31        63     1
        31        64     1
        31        65     1
        32        33     1
        32        54     1
        32        56     1
        32        57     1
        33        53     1
        33        55     1
        34        51     1
        35        74     1
        35        75     1
        50        51     1
        53        54     1
        54        55     1
        54        71     1
        54        72     1
        54        73     1
        55        56     1
        55        57     1
        55        68     1
        55        69     1
        55        70     1
        58        60     1
        58        61     1
        59        60     1
        59        61     1
        62        63     1
        62        64     1
        62        65     1
        62        66     1
        62        67     1
        62        76     1
