; ITP file created by ByteFF-joint-25, 2025-07-14 11:32:31.483920

[ atomtypes ]
;name           bonded.type        at.num        mass        charge   ptype           sigma         epsilon
 c0bf                                   6      0.0000       0.00000       A     3.39775e-01     4.50957e-01    ;  uncertainty sigma = 0.000006, epsilon = 0.000694
 c1bf                                   6      0.0000       0.00000       A     3.39750e-01     4.50946e-01    ;  uncertainty sigma = 0.000019, epsilon = 0.000458
 c2bf                                   6      0.0000       0.00000       A     3.39821e-01     4.51235e-01    ;  uncertainty sigma = 0.000017, epsilon = 0.000311
 n3bf                                   7      0.0000       0.00000       A     3.18071e-01     6.84153e-01    ;  uncertainty sigma = 0.000047, epsilon = 0.003983
 c4bf                                   6      0.0000       0.00000       A     3.39791e-01     4.50721e-01    ;  uncertainty sigma = 0.000010, epsilon = 0.000749
 c5bf                                   6      0.0000       0.00000       A     3.39740e-01     4.50742e-01    ;  uncertainty sigma = 0.000013, epsilon = 0.000978
 c6bf                                   6      0.0000       0.00000       A     3.31519e-01     4.13466e-01    ;  uncertainty sigma = 0.000005, epsilon = 0.000517
 c7bf                                   6      0.0000       0.00000       A     3.31511e-01     4.12792e-01    ;  uncertainty sigma = 0.000007, epsilon = 0.000910
 c8bf                                   6      0.0000       0.00000       A     3.39771e-01     4.50975e-01    ;  uncertainty sigma = 0.000006, epsilon = 0.000758
 c9bf                                   6      0.0000       0.00000       A     3.31525e-01     4.12979e-01    ;  uncertainty sigma = 0.000017, epsilon = 0.000933
 c10bf                                  6      0.0000       0.00000       A     3.31491e-01     4.12753e-01    ;  uncertainty sigma = 0.000011, epsilon = 0.001565
 c11bf                                  6      0.0000       0.00000       A     3.39763e-01     4.50525e-01    ;  uncertainty sigma = 0.000013, epsilon = 0.000866
 c12bf                                  6      0.0000       0.00000       A     3.39757e-01     4.49586e-01    ;  uncertainty sigma = 0.000020, epsilon = 0.001126
 c13bf                                  6      0.0000       0.00000       A     3.39753e-01     4.50877e-01    ;  uncertainty sigma = 0.000007, epsilon = 0.000776
 c14bf                                  6      0.0000       0.00000       A     3.39753e-01     4.50877e-01    ;  uncertainty sigma = 0.000007, epsilon = 0.000776
 c15bf                                  6      0.0000       0.00000       A     3.39794e-01     4.50514e-01    ;  uncertainty sigma = 0.000014, epsilon = 0.001647
 c16bf                                  6      0.0000       0.00000       A     3.31520e-01     4.13800e-01    ;  uncertainty sigma = 0.000012, epsilon = 0.000860
 o17bf                                  8      0.0000       0.00000       A     3.04813e-01     6.11403e-01    ;  uncertainty sigma = 0.000026, epsilon = 0.002112
 n18bf                                  7      0.0000       0.00000       A     3.20644e-01     8.55647e-01    ;  uncertainty sigma = 0.000044, epsilon = 0.001497
 c19bf                                  6      0.0000       0.00000       A     3.31548e-01     4.13199e-01    ;  uncertainty sigma = 0.000012, epsilon = 0.001174
 c20bf                                  6      0.0000       0.00000       A     3.31527e-01     4.13249e-01    ;  uncertainty sigma = 0.000006, epsilon = 0.000602
 c21bf                                  6      0.0000       0.00000       A     3.31513e-01     4.13571e-01    ;  uncertainty sigma = 0.000004, epsilon = 0.001064
 c22bf                                  6      0.0000       0.00000       A     3.31512e-01     4.12996e-01    ;  uncertainty sigma = 0.000021, epsilon = 0.002020
 c23bf                                  6      0.0000       0.00000       A     3.31599e-01     4.13238e-01    ;  uncertainty sigma = 0.000040, epsilon = 0.000628
 n24bf                                  7      0.0000       0.00000       A     3.36058e-01     3.53914e-01    ;  uncertainty sigma = 0.000035, epsilon = 0.002199
 o25bf                                  8      0.0000       0.00000       A     3.04824e-01     6.12665e-01    ;  uncertainty sigma = 0.000020, epsilon = 0.001529
 c26bf                                  6      0.0000       0.00000       A     3.31530e-01     4.13439e-01    ;  uncertainty sigma = 0.000016, epsilon = 0.001095
 n27bf                                  7      0.0000       0.00000       A     3.27878e-01     6.43494e-01    ;  uncertainty sigma = 0.000040, epsilon = 0.002915
 c28bf                                  6      0.0000       0.00000       A     3.39770e-01     4.50806e-01    ;  uncertainty sigma = 0.000007, epsilon = 0.000909
 c29bf                                  6      0.0000       0.00000       A     3.39765e-01     4.50834e-01    ;  uncertainty sigma = 0.000011, epsilon = 0.000533
 c30bf                                  6      0.0000       0.00000       A     3.31530e-01     4.13517e-01    ;  uncertainty sigma = 0.000013, epsilon = 0.001250
 c31bf                                  6      0.0000       0.00000       A     3.31533e-01     4.12340e-01    ;  uncertainty sigma = 0.000031, epsilon = 0.002176
 o32bf                                  8      0.0000       0.00000       A     3.04790e-01     6.12436e-01    ;  uncertainty sigma = 0.000026, epsilon = 0.001261
 c33bf                                  6      0.0000       0.00000       A     3.39729e-01     4.50230e-01    ;  uncertainty sigma = 0.000010, epsilon = 0.001531
 c34bf                                  6      0.0000       0.00000       A     3.39752e-01     4.50430e-01    ;  uncertainty sigma = 0.000015, epsilon = 0.000900
 c35bf                                  6      0.0000       0.00000       A     3.39797e-01     4.51009e-01    ;  uncertainty sigma = 0.000026, epsilon = 0.000979
 c36bf                                  6      0.0000       0.00000       A     3.39808e-01     4.50495e-01    ;  uncertainty sigma = 0.000012, epsilon = 0.000661
 n37bf                                  7      0.0000       0.00000       A     2.67883e-01     7.09165e+00    ;  uncertainty sigma = 0.000103, epsilon = 0.005351
 h38bf                                  1      0.0000       0.00000       A     2.60037e-01     8.66366e-02    ;  uncertainty sigma = 0.000011, epsilon = 0.000457
 h39bf                                  1      0.0000       0.00000       A     2.60037e-01     8.66366e-02    ;  uncertainty sigma = 0.000011, epsilon = 0.000457
 h40bf                                  1      0.0000       0.00000       A     2.60037e-01     8.66366e-02    ;  uncertainty sigma = 0.000011, epsilon = 0.000457
 h41bf                                  1      0.0000       0.00000       A     2.60058e-01     8.61926e-02    ;  uncertainty sigma = 0.000036, epsilon = 0.001018
 h42bf                                  1      0.0000       0.00000       A     2.42237e-01     8.69492e-02    ;  uncertainty sigma = 0.000017, epsilon = 0.000368
 h43bf                                  1      0.0000       0.00000       A     2.42237e-01     8.69492e-02    ;  uncertainty sigma = 0.000017, epsilon = 0.000368
 h44bf                                  1      0.0000       0.00000       A     2.42253e-01     8.71111e-02    ;  uncertainty sigma = 0.000027, epsilon = 0.000787
 h45bf                                  1      0.0000       0.00000       A     2.42253e-01     8.71111e-02    ;  uncertainty sigma = 0.000027, epsilon = 0.000787
 h46bf                                  1      0.0000       0.00000       A     2.60031e-01     8.67139e-02    ;  uncertainty sigma = 0.000024, epsilon = 0.000632
 h47bf                                  1      0.0000       0.00000       A     2.60031e-01     8.67139e-02    ;  uncertainty sigma = 0.000024, epsilon = 0.000632
 h48bf                                  1      0.0000       0.00000       A     2.60040e-01     8.67373e-02    ;  uncertainty sigma = 0.000006, epsilon = 0.000499
 h49bf                                  1      0.0000       0.00000       A     2.60040e-01     8.67373e-02    ;  uncertainty sigma = 0.000006, epsilon = 0.000499
 h50bf                                  1      0.0000       0.00000       A     2.60040e-01     8.67373e-02    ;  uncertainty sigma = 0.000006, epsilon = 0.000499
 h51bf                                  1      0.0000       0.00000       A     2.60047e-01     8.64227e-02    ;  uncertainty sigma = 0.000017, epsilon = 0.000968
 h52bf                                  1      0.0000       0.00000       A     2.60047e-01     8.64227e-02    ;  uncertainty sigma = 0.000017, epsilon = 0.000968
 h53bf                                  1      0.0000       0.00000       A     2.60029e-01     8.67428e-02    ;  uncertainty sigma = 0.000008, epsilon = 0.000383
 h54bf                                  1      0.0000       0.00000       A     2.60029e-01     8.67428e-02    ;  uncertainty sigma = 0.000008, epsilon = 0.000383
 h55bf                                  1      0.0000       0.00000       A     2.60029e-01     8.67428e-02    ;  uncertainty sigma = 0.000008, epsilon = 0.000383
 h56bf                                  1      0.0000       0.00000       A     2.60029e-01     8.67428e-02    ;  uncertainty sigma = 0.000008, epsilon = 0.000383
 h57bf                                  1      0.0000       0.00000       A     2.60029e-01     8.67428e-02    ;  uncertainty sigma = 0.000008, epsilon = 0.000383
 h58bf                                  1      0.0000       0.00000       A     2.60029e-01     8.67428e-02    ;  uncertainty sigma = 0.000008, epsilon = 0.000383
 h59bf                                  1      0.0000       0.00000       A     2.60008e-01     8.64859e-02    ;  uncertainty sigma = 0.000016, epsilon = 0.000907
 h60bf                                  1      0.0000       0.00000       A     2.60008e-01     8.64859e-02    ;  uncertainty sigma = 0.000016, epsilon = 0.000907
 h61bf                                  1      0.0000       0.00000       A     2.62564e-01     6.71433e-02    ;  uncertainty sigma = 0.000012, epsilon = 0.000557
 h62bf                                  1      0.0000       0.00000       A     2.62564e-01     6.72866e-02    ;  uncertainty sigma = 0.000007, epsilon = 0.000873
 h63bf                                  1      0.0000       0.00000       A     1.10644e-01     4.14127e-02    ;  uncertainty sigma = 0.000051, epsilon = 0.000340
 h64bf                                  1      0.0000       0.00000       A     1.10644e-01     4.14127e-02    ;  uncertainty sigma = 0.000051, epsilon = 0.000340
 h65bf                                  1      0.0000       0.00000       A     1.10605e-01     4.11789e-02    ;  uncertainty sigma = 0.000070, epsilon = 0.001030
 h66bf                                  1      0.0000       0.00000       A     2.42178e-01     8.71651e-02    ;  uncertainty sigma = 0.000038, epsilon = 0.001084
 h67bf                                  1      0.0000       0.00000       A     2.60037e-01     8.68959e-02    ;  uncertainty sigma = 0.000007, epsilon = 0.000356
 h68bf                                  1      0.0000       0.00000       A     2.60037e-01     8.68959e-02    ;  uncertainty sigma = 0.000007, epsilon = 0.000356
 h69bf                                  1      0.0000       0.00000       A     2.60037e-01     8.68959e-02    ;  uncertainty sigma = 0.000007, epsilon = 0.000356
 h70bf                                  1      0.0000       0.00000       A     2.62548e-01     6.72475e-02    ;  uncertainty sigma = 0.000011, epsilon = 0.000587
 h71bf                                  1      0.0000       0.00000       A     1.88736e-01     8.60772e-02    ;  uncertainty sigma = 0.000155, epsilon = 0.001773
 h72bf                                  1      0.0000       0.00000       A     2.60004e-01     8.68787e-02    ;  uncertainty sigma = 0.000031, epsilon = 0.000803
 h73bf                                  1      0.0000       0.00000       A     2.60004e-01     8.68787e-02    ;  uncertainty sigma = 0.000031, epsilon = 0.000803
 h74bf                                  1      0.0000       0.00000       A     2.60025e-01     8.68186e-02    ;  uncertainty sigma = 0.000017, epsilon = 0.000653
 h75bf                                  1      0.0000       0.00000       A     2.60025e-01     8.68186e-02    ;  uncertainty sigma = 0.000017, epsilon = 0.000653
 h76bf                                  1      0.0000       0.00000       A     1.88788e-01     8.60400e-02    ;  uncertainty sigma = 0.000083, epsilon = 0.000919
 h77bf                                  1      0.0000       0.00000       A     1.88788e-01     8.60400e-02    ;  uncertainty sigma = 0.000083, epsilon = 0.000919
 h78bf                                  1      0.0000       0.00000       A     1.10594e-01     4.17808e-02    ;  uncertainty sigma = 0.000127, epsilon = 0.000632
 h79bf                                  1      0.0000       0.00000       A     1.10594e-01     4.17808e-02    ;  uncertainty sigma = 0.000127, epsilon = 0.000632

[ moleculetype ]
;name             nrexcl
 MOL                   3

[ atoms ]
;       nr            type      resi   res      atom      cgnr      charge          mass ; qtot
         1            c0bf         1   UNL        c0         1    -0.08828       12.0110 ; qtot   -0.088
         2            c1bf         1   UNL        c1         2    -0.09058       12.0110 ; qtot   -0.179
         3            c2bf         1   UNL        c2         3     0.10115       12.0110 ; qtot   -0.078
         4            n3bf         1   UNL        n3         4    -0.43223       14.0070 ; qtot   -0.510
         5            c4bf         1   UNL        c4         5     0.10242       12.0110 ; qtot   -0.408
         6            c5bf         1   UNL        c5         6    -0.03310       12.0110 ; qtot   -0.441
         7            c6bf         1   UNL        c6         7    -0.11484       12.0110 ; qtot   -0.555
         8            c7bf         1   UNL        c7         8    -0.05601       12.0110 ; qtot   -0.611
         9            c8bf         1   UNL        c8         9    -0.02468       12.0110 ; qtot   -0.636
        10            c9bf         1   UNL        c9        10    -0.25568       12.0110 ; qtot   -0.892
        11           c10bf         1   UNL       c10        11    -0.03107       12.0110 ; qtot   -0.923
        12           c11bf         1   UNL       c11        12    -0.01611       12.0110 ; qtot   -0.939
        13           c12bf         1   UNL       c12        13    -0.03637       12.0110 ; qtot   -0.975
        14           c13bf         1   UNL       c13        14    -0.09136       12.0110 ; qtot   -1.067
        15           c14bf         1   UNL       c14        15    -0.09136       12.0110 ; qtot   -1.158
        16           c15bf         1   UNL       c15        16    -0.16833       12.0110 ; qtot   -1.326
        17           c16bf         1   UNL       c16        17     0.61468       12.0110 ; qtot   -0.712
        18           o17bf         1   UNL       o17        18    -0.54925       15.9990 ; qtot   -1.261
        19           n18bf         1   UNL       n18        19     0.01405       14.0070 ; qtot   -1.247
        20           c19bf         1   UNL       c19        20     0.05025       12.0110 ; qtot   -1.197
        21           c20bf         1   UNL       c20        21    -0.17072       12.0110 ; qtot   -1.367
        22           c21bf         1   UNL       c21        22    -0.03376       12.0110 ; qtot   -1.401
        23           c22bf         1   UNL       c22        23    -0.25431       12.0110 ; qtot   -1.655
        24           c23bf         1   UNL       c23        24     0.67240       12.0110 ; qtot   -0.983
        25           n24bf         1   UNL       n24        25    -0.64971       14.0070 ; qtot   -1.633
        26           o25bf         1   UNL       o25        26    -0.62602       15.9990 ; qtot   -2.259
        27           c26bf         1   UNL       c26        27     0.26244       12.0110 ; qtot   -1.996
        28           n27bf         1   UNL       n27        28    -0.77302       14.0070 ; qtot   -2.769
        29           c28bf         1   UNL       c28        29     0.22857       12.0110 ; qtot   -2.541
        30           c29bf         1   UNL       c29        30    -0.10853       12.0110 ; qtot   -2.649
        31           c30bf         1   UNL       c30        31    -0.22931       12.0110 ; qtot   -2.879
        32           c31bf         1   UNL       c31        32     0.66571       12.0110 ; qtot   -2.213
        33           o32bf         1   UNL       o32        33    -0.59970       15.9990 ; qtot   -2.813
        34           c33bf         1   UNL       c33        34     0.05368       12.0110 ; qtot   -2.759
        35           c34bf         1   UNL       c34        35    -0.08441       12.0110 ; qtot   -2.843
        36           c35bf         1   UNL       c35        36    -0.09971       12.0110 ; qtot   -2.943
        37           c36bf         1   UNL       c36        37     0.14537       12.0110 ; qtot   -2.798
        38           n37bf         1   UNL       n37        38    -0.81306       14.0070 ; qtot   -3.611
        39           h38bf         1   UNL       h38        39     0.03755        1.0080 ; qtot   -3.573
        40           h39bf         1   UNL       h39        40     0.03755        1.0080 ; qtot   -3.536
        41           h40bf         1   UNL       h40        41     0.03755        1.0080 ; qtot   -3.498
        42           h41bf         1   UNL       h41        42     0.05970        1.0080 ; qtot   -3.438
        43           h42bf         1   UNL       h42        43     0.06466        1.0080 ; qtot   -3.374
        44           h43bf         1   UNL       h43        44     0.06466        1.0080 ; qtot   -3.309
        45           h44bf         1   UNL       h44        45     0.06866        1.0080 ; qtot   -3.240
        46           h45bf         1   UNL       h45        46     0.06866        1.0080 ; qtot   -3.172
        47           h46bf         1   UNL       h46        47     0.06360        1.0080 ; qtot   -3.108
        48           h47bf         1   UNL       h47        48     0.06360        1.0080 ; qtot   -3.045
        49           h48bf         1   UNL       h48        49     0.04765        1.0080 ; qtot   -2.997
        50           h49bf         1   UNL       h49        50     0.04765        1.0080 ; qtot   -2.949
        51           h50bf         1   UNL       h50        51     0.04765        1.0080 ; qtot   -2.902
        52           h51bf         1   UNL       h51        52     0.06082        1.0080 ; qtot   -2.841
        53           h52bf         1   UNL       h52        53     0.06082        1.0080 ; qtot   -2.780
        54           h53bf         1   UNL       h53        54     0.03873        1.0080 ; qtot   -2.741
        55           h54bf         1   UNL       h54        55     0.03873        1.0080 ; qtot   -2.703
        56           h55bf         1   UNL       h55        56     0.03873        1.0080 ; qtot   -2.664
        57           h56bf         1   UNL       h56        57     0.03873        1.0080 ; qtot   -2.625
        58           h57bf         1   UNL       h57        58     0.03873        1.0080 ; qtot   -2.586
        59           h58bf         1   UNL       h58        59     0.03873        1.0080 ; qtot   -2.548
        60           h59bf         1   UNL       h59        60     0.06783        1.0080 ; qtot   -2.480
        61           h60bf         1   UNL       h60        61     0.06783        1.0080 ; qtot   -2.412
        62           h61bf         1   UNL       h61        62     0.15359        1.0080 ; qtot   -2.258
        63           h62bf         1   UNL       h62        63     0.14524        1.0080 ; qtot   -2.113
        64           h63bf         1   UNL       h63        64     0.31237        1.0080 ; qtot   -1.801
        65           h64bf         1   UNL       h64        65     0.31237        1.0080 ; qtot   -1.488
        66           h65bf         1   UNL       h65        66     0.44571        1.0080 ; qtot   -1.043
        67           h66bf         1   UNL       h66        67     0.05462        1.0080 ; qtot   -0.988
        68           h67bf         1   UNL       h67        68     0.04155        1.0080 ; qtot   -0.947
        69           h68bf         1   UNL       h68        69     0.04155        1.0080 ; qtot   -0.905
        70           h69bf         1   UNL       h69        70     0.04155        1.0080 ; qtot   -0.863
        71           h70bf         1   UNL       h70        71     0.15219        1.0080 ; qtot   -0.711
        72           h71bf         1   UNL       h71        72     0.12442        1.0080 ; qtot   -0.587
        73           h72bf         1   UNL       h72        73     0.10117        1.0080 ; qtot   -0.486
        74           h73bf         1   UNL       h73        74     0.10117        1.0080 ; qtot   -0.384
        75           h74bf         1   UNL       h74        75     0.10517        1.0080 ; qtot   -0.279
        76           h75bf         1   UNL       h75        76     0.10517        1.0080 ; qtot   -0.174
        77           h76bf         1   UNL       h76        77     0.10920        1.0080 ; qtot   -0.065
        78           h77bf         1   UNL       h77        78     0.10920        1.0080 ; qtot    0.044
        79           h78bf         1   UNL       h78        79     0.47785        1.0080 ; qtot    0.522
        80           h79bf         1   UNL       h79        80     0.47788        1.0080 ; qtot    1.000

[ bonds ]
;       ai        aj funct               r               k
         1         2     1        0.152916   205004.112476    ;  uncertainty r = 0.000057, k = 2.541408
         1        39     1        0.109611   310804.905664    ;  uncertainty r = 0.000009, k = 1.747520
         1        40     1        0.109611   310804.905664    ;  uncertainty r = 0.000009, k = 1.747520
         1        41     1        0.109611   310804.905664    ;  uncertainty r = 0.000009, k = 1.747520
         2         3     1        0.152593   189233.019385    ;  uncertainty r = 0.000125, k = 11.436371
         2        29     1        0.152784   187733.710156    ;  uncertainty r = 0.000150, k = 2.498585
         2        42     1        0.109775   304486.360840    ;  uncertainty r = 0.000032, k = 2.179615
         3         4     1        0.145254   222069.196436    ;  uncertainty r = 0.000149, k = 4.773024
         3        43     1        0.109374   306545.469043    ;  uncertainty r = 0.000035, k = 1.924289
         3        44     1        0.109374   306545.469043    ;  uncertainty r = 0.000035, k = 1.924289
         4         5     1        0.145264   224021.304150    ;  uncertainty r = 0.000139, k = 5.367361
         4        32     1        0.134258   281861.452344    ;  uncertainty r = 0.000221, k = 17.004295
         5         6     1        0.154223   203066.829053    ;  uncertainty r = 0.000070, k = 9.905020
         5        45     1        0.109314   307870.768408    ;  uncertainty r = 0.000034, k = 3.140286
         5        46     1        0.109314   307870.768408    ;  uncertainty r = 0.000034, k = 3.140286
         6         7     1        0.149398   231797.481641    ;  uncertainty r = 0.000023, k = 7.963888
         6        47     1        0.109605   311136.453955    ;  uncertainty r = 0.000045, k = 1.781398
         6        48     1        0.109605   311136.453955    ;  uncertainty r = 0.000045, k = 1.781398
         7         8     1        0.138002   387804.551074    ;  uncertainty r = 0.000129, k = 12.754290
         7        19     1        0.141026   283197.579443    ;  uncertainty r = 0.000158, k = 14.203178
         8         9     1        0.150099   244565.014844    ;  uncertainty r = 0.000052, k = 7.651432
         8        10     1        0.143986   267369.934424    ;  uncertainty r = 0.000063, k = 10.489089
         9        49     1        0.109466   309551.110205    ;  uncertainty r = 0.000011, k = 1.937722
         9        50     1        0.109466   309551.110205    ;  uncertainty r = 0.000011, k = 1.937722
         9        51     1        0.109466   309551.110205    ;  uncertainty r = 0.000011, k = 1.937722
        10        11     1        0.139070   410963.389453    ;  uncertainty r = 0.000129, k = 17.219607
        10        17     1        0.145392   263265.176074    ;  uncertainty r = 0.000115, k = 15.598368
        11        12     1        0.149169   235354.417920    ;  uncertainty r = 0.000099, k = 6.241968
        11        19     1        0.137314   279309.375781    ;  uncertainty r = 0.000163, k = 13.853949
        12        13     1        0.153828   192201.516821    ;  uncertainty r = 0.000093, k = 11.625786
        12        52     1        0.109905   308723.707861    ;  uncertainty r = 0.000021, k = 4.306951
        12        53     1        0.109905   308723.707861    ;  uncertainty r = 0.000021, k = 4.306951
        13        14     1        0.153195   201193.401172    ;  uncertainty r = 0.000053, k = 1.853482
        13        15     1        0.153195   201193.401172    ;  uncertainty r = 0.000053, k = 1.853482
        13        16     1        0.153646   191935.037085    ;  uncertainty r = 0.000135, k = 7.651953
        14        54     1        0.109670   309289.303760    ;  uncertainty r = 0.000025, k = 1.119521
        14        55     1        0.109670   309289.303760    ;  uncertainty r = 0.000025, k = 1.119521
        14        56     1        0.109670   309289.303760    ;  uncertainty r = 0.000025, k = 1.119521
        15        57     1        0.109670   309289.303760    ;  uncertainty r = 0.000025, k = 1.119521
        15        58     1        0.109670   309289.303760    ;  uncertainty r = 0.000025, k = 1.119521
        15        59     1        0.109670   309289.303760    ;  uncertainty r = 0.000025, k = 1.119521
        16        17     1        0.152729   192523.169482    ;  uncertainty r = 0.000075, k = 8.399159
        16        60     1        0.109748   308934.720996    ;  uncertainty r = 0.000015, k = 1.839182
        16        61     1        0.109748   308934.720996    ;  uncertainty r = 0.000015, k = 1.839182
        17        18     1        0.123654   721934.337402    ;  uncertainty r = 0.000050, k = 5.105336
        19        20     1        0.142348   337453.722021    ;  uncertainty r = 0.000093, k = 7.307896
        20        21     1        0.139640   354214.467480    ;  uncertainty r = 0.000116, k = 4.634625
        20        31     1        0.138787   352811.228857    ;  uncertainty r = 0.000114, k = 7.644282
        21        22     1        0.138792   364930.145020    ;  uncertainty r = 0.000067, k = 5.150949
        21        62     1        0.108792   333924.799951    ;  uncertainty r = 0.000009, k = 1.293407
        22        23     1        0.140167   353845.941455    ;  uncertainty r = 0.000105, k = 10.643310
        22        63     1        0.108604   330520.703271    ;  uncertainty r = 0.000050, k = 2.529917
        23        24     1        0.148282   260240.892822    ;  uncertainty r = 0.000134, k = 25.345371
        23        27     1        0.142703   329342.906250    ;  uncertainty r = 0.000124, k = 10.582527
        24        25     1        0.139029   503817.442773    ;  uncertainty r = 0.000155, k = 20.650957
        24        26     1        0.124820   823639.603906    ;  uncertainty r = 0.000051, k = 16.500559
        25        64     1        0.101653   427755.290186    ;  uncertainty r = 0.000052, k = 3.050478
        25        65     1        0.101653   427755.290186    ;  uncertainty r = 0.000052, k = 3.050478
        27        28     1        0.138707   320710.392871    ;  uncertainty r = 0.000431, k = 13.852340
        27        31     1        0.141179   354482.504980    ;  uncertainty r = 0.000043, k = 15.622420
        28        29     1        0.146047   216882.405225    ;  uncertainty r = 0.000151, k = 12.268097
        28        66     1        0.101252   418844.141406    ;  uncertainty r = 0.000108, k = 5.492941
        29        30     1        0.153478   212514.538037    ;  uncertainty r = 0.000040, k = 5.848763
        29        67     1        0.109650   302642.530469    ;  uncertainty r = 0.000040, k = 1.811731
        30        68     1        0.109601   311293.711475    ;  uncertainty r = 0.000008, k = 1.522047
        30        69     1        0.109601   311293.711475    ;  uncertainty r = 0.000008, k = 1.522047
        30        70     1        0.109601   311293.711475    ;  uncertainty r = 0.000008, k = 1.522047
        31        71     1        0.108864   337997.585840    ;  uncertainty r = 0.000031, k = 2.781361
        32        33     1        0.124097   653559.442090    ;  uncertainty r = 0.000238, k = 8.593785
        32        34     1        0.153752   210730.528345    ;  uncertainty r = 0.000358, k = 27.865790
        34        35     1        0.154429   211336.600562    ;  uncertainty r = 0.000075, k = 13.648241
        34        38     1        0.151452   213686.640283    ;  uncertainty r = 0.000208, k = 20.870089
        34        72     1        0.109132   317546.957910    ;  uncertainty r = 0.000047, k = 7.407235
        35        36     1        0.153983   234097.174951    ;  uncertainty r = 0.000095, k = 11.508005
        35        73     1        0.109172   311961.685645    ;  uncertainty r = 0.000034, k = 2.676402
        35        74     1        0.109172   311961.685645    ;  uncertainty r = 0.000034, k = 2.676402
        36        37     1        0.153198   230756.384766    ;  uncertainty r = 0.000088, k = 9.557780
        36        75     1        0.109184   312468.060986    ;  uncertainty r = 0.000029, k = 3.712353
        36        76     1        0.109184   312468.060986    ;  uncertainty r = 0.000029, k = 3.712353
        37        38     1        0.152343   226519.931543    ;  uncertainty r = 0.000187, k = 28.880538
        37        77     1        0.108994   317069.286279    ;  uncertainty r = 0.000032, k = 3.270107
        37        78     1        0.108994   317069.286279    ;  uncertainty r = 0.000032, k = 3.270107
        38        79     1        0.103163   367175.418750    ;  uncertainty r = 0.000197, k = 13.605766
        38        80     1        0.103163   367175.418750    ;  uncertainty r = 0.000197, k = 13.605766

[ angles ]
;       ai        aj        ak funct           theta             cth
         1         2         3     1      108.609818      553.759704    ;  uncertainty theta = 0.003235, k = 0.062494
         1         2        29     1      108.903099      555.522658    ;  uncertainty theta = 0.002661, k = 0.026661
         1         2        42     1      107.627342      405.148666    ;  uncertainty theta = 0.004090, k = 0.024308
         2         1        39     1      107.715599      384.949228    ;  uncertainty theta = 0.001109, k = 0.028780
         2         1        40     1      107.715599      384.949228    ;  uncertainty theta = 0.001109, k = 0.028780
         2         1        41     1      107.715599      384.949228    ;  uncertainty theta = 0.001109, k = 0.028780
         2         3         4     1      110.748550      612.237705    ;  uncertainty theta = 0.002394, k = 0.143800
         2         3        43     1      107.786659      394.039098    ;  uncertainty theta = 0.001561, k = 0.035893
         2         3        44     1      107.786659      394.039098    ;  uncertainty theta = 0.001561, k = 0.035893
         2        29        28     1      109.135475      597.832796    ;  uncertainty theta = 0.003034, k = 0.139461
         2        29        30     1      109.264755      561.499235    ;  uncertainty theta = 0.001427, k = 0.057065
         2        29        67     1      105.924759      379.793413    ;  uncertainty theta = 0.002332, k = 0.089354
         3         2        29     1      107.375351      506.055362    ;  uncertainty theta = 0.004629, k = 0.099654
         3         2        42     1      105.536255      380.640000    ;  uncertainty theta = 0.002627, k = 0.061742
         3         4         5     1      117.033836      421.426914    ;  uncertainty theta = 0.005138, k = 0.165998
         3         4        32     1      114.308067      369.973373    ;  uncertainty theta = 0.006509, k = 0.185567
         4         3        43     1      105.282227      443.548498    ;  uncertainty theta = 0.001338, k = 0.074673
         4         3        44     1      105.282227      443.548498    ;  uncertainty theta = 0.001338, k = 0.074673
         4         5         6     1      111.103249      619.240683    ;  uncertainty theta = 0.001105, k = 0.099649
         4         5        45     1      105.702957      438.304325    ;  uncertainty theta = 0.001619, k = 0.044657
         4         5        46     1      105.702957      438.304325    ;  uncertainty theta = 0.001619, k = 0.044657
         4        32        33     1      125.115463      726.517482    ;  uncertainty theta = 0.005373, k = 0.155860
         4        32        34     1      112.798584      383.945811    ;  uncertainty theta = 0.011847, k = 0.164065
         5         4        32     1      114.012794      372.100359    ;  uncertainty theta = 0.007244, k = 0.233569
         5         6         7     1      110.912491      529.466411    ;  uncertainty theta = 0.001060, k = 0.117754
         5         6        47     1      107.099777      401.405948    ;  uncertainty theta = 0.002017, k = 0.046762
         5         6        48     1      107.099777      401.405948    ;  uncertainty theta = 0.002017, k = 0.046762
         6         5        45     1      108.315468      406.520296    ;  uncertainty theta = 0.002569, k = 0.052563
         6         5        46     1      108.315468      406.520296    ;  uncertainty theta = 0.002569, k = 0.052563
         6         7         8     1      128.765396      343.648156    ;  uncertainty theta = 0.001812, k = 0.286353
         6         7        19     1      116.985634      383.277856    ;  uncertainty theta = 0.003664, k = 0.110477
         7         6        47     1      107.391663      404.603289    ;  uncertainty theta = 0.002477, k = 0.041717
         7         6        48     1      107.391663      404.603289    ;  uncertainty theta = 0.002477, k = 0.041717
         7         8         9     1      124.929214      352.852178    ;  uncertainty theta = 0.006036, k = 0.225884
         7         8        10     1      107.556862      704.556718    ;  uncertainty theta = 0.005587, k = 0.153434
         7        19        11     1      109.574051      834.804339    ;  uncertainty theta = 0.003376, k = 0.186653
         7        19        20     1      120.506943      382.481226    ;  uncertainty theta = 0.003019, k = 0.119297
         8         7        19     1      110.449989      702.996592    ;  uncertainty theta = 0.002482, k = 0.135747
         8         9        49     1      109.671814      411.821545    ;  uncertainty theta = 0.000565, k = 0.078540
         8         9        50     1      109.671814      411.821545    ;  uncertainty theta = 0.000565, k = 0.078540
         8         9        51     1      109.671814      411.821545    ;  uncertainty theta = 0.000565, k = 0.078540
         8        10        11     1      109.054428      679.507622    ;  uncertainty theta = 0.004883, k = 0.117758
         8        10        17     1      126.157997      344.738591    ;  uncertainty theta = 0.003544, k = 0.278404
         9         8        10     1      124.433372      352.740038    ;  uncertainty theta = 0.005246, k = 0.228128
        10        11        12     1      125.882568      344.070221    ;  uncertainty theta = 0.005185, k = 0.237698
        10        11        19     1      109.742416      695.636094    ;  uncertainty theta = 0.004795, k = 0.201237
        10        17        16     1      113.848488      368.483442    ;  uncertainty theta = 0.006481, k = 0.230108
        10        17        18     1      124.446182      604.140207    ;  uncertainty theta = 0.001677, k = 0.050464
        11        10        17     1      119.070312      390.807600    ;  uncertainty theta = 0.007694, k = 0.349986
        11        12        13     1      107.805740      556.659251    ;  uncertainty theta = 0.002237, k = 0.143667
        11        12        52     1      108.916275      396.622623    ;  uncertainty theta = 0.001410, k = 0.056158
        11        12        53     1      108.916275      396.622623    ;  uncertainty theta = 0.001410, k = 0.056158
        11        19        20     1      120.569298      387.035482    ;  uncertainty theta = 0.004714, k = 0.158420
        12        11        19     1      122.460144      371.004498    ;  uncertainty theta = 0.003459, k = 0.170673
        12        13        14     1      108.014572      557.325067    ;  uncertainty theta = 0.003069, k = 0.098920
        12        13        15     1      108.014572      557.325067    ;  uncertainty theta = 0.003069, k = 0.098920
        12        13        16     1      109.706261      569.691668    ;  uncertainty theta = 0.001851, k = 0.067169
        13        12        52     1      107.544716      382.761081    ;  uncertainty theta = 0.002760, k = 0.048647
        13        12        53     1      107.544716      382.761081    ;  uncertainty theta = 0.002760, k = 0.048647
        13        14        54     1      107.996109      384.058844    ;  uncertainty theta = 0.001498, k = 0.017817
        13        14        55     1      107.996109      384.058844    ;  uncertainty theta = 0.001498, k = 0.017817
        13        14        56     1      107.996109      384.058844    ;  uncertainty theta = 0.001498, k = 0.017817
        13        15        57     1      107.996109      384.058844    ;  uncertainty theta = 0.001498, k = 0.017817
        13        15        58     1      107.996109      384.058844    ;  uncertainty theta = 0.001498, k = 0.017817
        13        15        59     1      107.996109      384.058844    ;  uncertainty theta = 0.001498, k = 0.017817
        13        16        17     1      112.816551      505.116777    ;  uncertainty theta = 0.003504, k = 0.066766
        13        16        60     1      107.687546      371.394737    ;  uncertainty theta = 0.002109, k = 0.101948
        13        16        61     1      107.687546      371.394737    ;  uncertainty theta = 0.002109, k = 0.101948
        14        13        15     1      108.956375      585.520334    ;  uncertainty theta = 0.001841, k = 0.057908
        14        13        16     1      108.306870      576.022062    ;  uncertainty theta = 0.001816, k = 0.099148
        15        13        16     1      108.306870      576.022062    ;  uncertainty theta = 0.001816, k = 0.099148
        16        17        18     1      123.307533      565.969123    ;  uncertainty theta = 0.003559, k = 0.147200
        17        16        60     1      106.614479      370.407312    ;  uncertainty theta = 0.001342, k = 0.076110
        17        16        61     1      106.614479      370.407312    ;  uncertainty theta = 0.001342, k = 0.076110
        19        20        21     1      121.250839      463.202305    ;  uncertainty theta = 0.004290, k = 0.214013
        19        20        31     1      120.226944      453.445788    ;  uncertainty theta = 0.004115, k = 0.105203
        20        21        22     1      118.153793      518.808850    ;  uncertainty theta = 0.004297, k = 0.176784
        20        21        62     1      120.426636      280.185343    ;  uncertainty theta = 0.001430, k = 0.071764
        20        31        27     1      120.758751      512.516506    ;  uncertainty theta = 0.002278, k = 0.126084
        20        31        71     1      120.050308      284.720447    ;  uncertainty theta = 0.002585, k = 0.099265
        21        20        31     1      120.030495      376.841547    ;  uncertainty theta = 0.005121, k = 0.220650
        21        22        23     1      124.840576      519.794678    ;  uncertainty theta = 0.004799, k = 0.206169
        21        22        63     1      119.540184      280.403909    ;  uncertainty theta = 0.002726, k = 0.067893
        22        21        62     1      121.318527      289.287376    ;  uncertainty theta = 0.001766, k = 0.086166
        22        23        24     1      117.687866      394.289330    ;  uncertainty theta = 0.003347, k = 0.224997
        22        23        27     1      122.820724      415.108841    ;  uncertainty theta = 0.004118, k = 0.658876
        23        22        63     1      117.224319      261.365595    ;  uncertainty theta = 0.005141, k = 0.120235
        23        24        25     1      116.011520      478.303100    ;  uncertainty theta = 0.003603, k = 0.253368
        23        24        26     1      125.266724      538.192026    ;  uncertainty theta = 0.004512, k = 0.205424
        23        27        28     1      122.613464      551.301693    ;  uncertainty theta = 0.005288, k = 0.302742
        23        27        31     1      121.638695      405.484415    ;  uncertainty theta = 0.004490, k = 0.179957
        24        23        27     1      117.762985      394.720651    ;  uncertainty theta = 0.006536, k = 0.313462
        24        25        64     1      116.963905      310.801018    ;  uncertainty theta = 0.002022, k = 0.091105
        24        25        65     1      116.963905      310.801018    ;  uncertainty theta = 0.002022, k = 0.091105
        25        24        26     1      126.517166      889.988500    ;  uncertainty theta = 0.004387, k = 0.046999
        27        28        29     1      113.762161      427.826832    ;  uncertainty theta = 0.009162, k = 0.111307
        27        28        66     1      114.039383      381.905747    ;  uncertainty theta = 0.004288, k = 0.074524
        27        31        71     1      119.387436      264.054637    ;  uncertainty theta = 0.002327, k = 0.062241
        28        27        31     1      120.485519      551.495456    ;  uncertainty theta = 0.004427, k = 0.338062
        28        29        30     1      110.086227      646.085803    ;  uncertainty theta = 0.002089, k = 0.093059
        28        29        67     1      104.611008      448.263702    ;  uncertainty theta = 0.003832, k = 0.124682
        29         2        42     1      105.225037      376.873851    ;  uncertainty theta = 0.001464, k = 0.071656
        29        28        66     1      111.384293      338.528445    ;  uncertainty theta = 0.004543, k = 0.211630
        29        30        68     1      107.638573      389.959130    ;  uncertainty theta = 0.001309, k = 0.024649
        29        30        69     1      107.638573      389.959130    ;  uncertainty theta = 0.001309, k = 0.024649
        29        30        70     1      107.638573      389.959130    ;  uncertainty theta = 0.001309, k = 0.024649
        30        29        67     1      107.156860      413.507505    ;  uncertainty theta = 0.001672, k = 0.061719
        32        34        35     1      111.956932      487.685689    ;  uncertainty theta = 0.006952, k = 0.269140
        32        34        38     1      102.935547      533.382112    ;  uncertainty theta = 0.010524, k = 0.372913
        32        34        72     1      111.256393      368.764127    ;  uncertainty theta = 0.004164, k = 0.286761
        33        32        34     1      124.334335      491.054608    ;  uncertainty theta = 0.007485, k = 0.391702
        34        35        36     1      106.961044      689.652303    ;  uncertainty theta = 0.002287, k = 0.141636
        34        35        73     1      107.828835      396.666005    ;  uncertainty theta = 0.002131, k = 0.069985
        34        35        74     1      107.828835      396.666005    ;  uncertainty theta = 0.002131, k = 0.069985
        34        38        37     1      112.453003      713.306817    ;  uncertainty theta = 0.008335, k = 0.169674
        34        38        79     1      109.644958      418.175944    ;  uncertainty theta = 0.006515, k = 0.152166
        34        38        80     1      109.644958      418.175944    ;  uncertainty theta = 0.006515, k = 0.152166
        35        34        38     1      108.714706      814.200105    ;  uncertainty theta = 0.006311, k = 0.163164
        35        34        72     1      110.564713      390.390707    ;  uncertainty theta = 0.002122, k = 0.083972
        35        36        37     1      105.334618      723.574714    ;  uncertainty theta = 0.004847, k = 0.093857
        35        36        75     1      109.848854      406.521477    ;  uncertainty theta = 0.002277, k = 0.060965
        35        36        76     1      109.848854      406.521477    ;  uncertainty theta = 0.002277, k = 0.060965
        36        35        73     1      110.164108      414.856407    ;  uncertainty theta = 0.002132, k = 0.108263
        36        35        74     1      110.164108      414.856407    ;  uncertainty theta = 0.002132, k = 0.108263
        36        37        38     1      107.455460      843.596702    ;  uncertainty theta = 0.005207, k = 0.055796
        36        37        77     1      111.611732      409.830129    ;  uncertainty theta = 0.000450, k = 0.071342
        36        37        78     1      111.611732      409.830129    ;  uncertainty theta = 0.000450, k = 0.071342
        37        36        75     1      108.646439      421.565101    ;  uncertainty theta = 0.001907, k = 0.054109
        37        36        76     1      108.646439      421.565133    ;  uncertainty theta = 0.001907, k = 0.054109
        37        38        79     1      109.627785      439.140155    ;  uncertainty theta = 0.002681, k = 0.191004
        37        38        80     1      109.627785      439.140155    ;  uncertainty theta = 0.002681, k = 0.191004
        38        34        72     1      106.032837      459.737334    ;  uncertainty theta = 0.003642, k = 0.187160
        38        37        77     1      106.935974      470.315571    ;  uncertainty theta = 0.003881, k = 0.124388
        38        37        78     1      106.935974      470.315571    ;  uncertainty theta = 0.003881, k = 0.124388
        39         1        40     1      105.086327      319.598520    ;  uncertainty theta = 0.001402, k = 0.019870
        39         1        41     1      105.086327      319.598520    ;  uncertainty theta = 0.001402, k = 0.019870
        40         1        41     1      105.086327      319.598520    ;  uncertainty theta = 0.001402, k = 0.019870
        43         3        44     1      106.301308      321.558333    ;  uncertainty theta = 0.001729, k = 0.057278
        45         5        46     1      106.398399      319.343181    ;  uncertainty theta = 0.002019, k = 0.037277
        47         6        48     1      104.937241      317.367279    ;  uncertainty theta = 0.001487, k = 0.040791
        49         9        50     1      106.599655      315.928231    ;  uncertainty theta = 0.001025, k = 0.007338
        49         9        51     1      106.599655      315.928231    ;  uncertainty theta = 0.001025, k = 0.007338
        50         9        51     1      106.599655      315.928231    ;  uncertainty theta = 0.001025, k = 0.007338
        52        12        53     1      105.093704      313.682082    ;  uncertainty theta = 0.001625, k = 0.026383
        54        14        55     1      105.574768      318.349181    ;  uncertainty theta = 0.001227, k = 0.028951
        54        14        56     1      105.574768      318.349181    ;  uncertainty theta = 0.001227, k = 0.028951
        55        14        56     1      105.574768      318.349181    ;  uncertainty theta = 0.001227, k = 0.028951
        57        15        58     1      105.574768      318.349181    ;  uncertainty theta = 0.001227, k = 0.028951
        57        15        59     1      105.574768      318.349181    ;  uncertainty theta = 0.001227, k = 0.028951
        58        15        59     1      105.574768      318.349181    ;  uncertainty theta = 0.001227, k = 0.028951
        60        16        61     1      106.125870      305.443843    ;  uncertainty theta = 0.001540, k = 0.048439
        64        25        65     1      109.834618      265.993462    ;  uncertainty theta = 0.001915, k = 0.057416
        68        30        69     1      105.251572      316.672254    ;  uncertainty theta = 0.001112, k = 0.020477
        68        30        70     1      105.251572      316.672254    ;  uncertainty theta = 0.001112, k = 0.020477
        69        30        70     1      105.251572      316.672254    ;  uncertainty theta = 0.001112, k = 0.020477
        73        35        74     1      105.732193      317.144883    ;  uncertainty theta = 0.002993, k = 0.076136
        75        36        76     1      105.531998      312.133289    ;  uncertainty theta = 0.001291, k = 0.045589
        77        37        78     1      108.199509      321.988825    ;  uncertainty theta = 0.002594, k = 0.101758
        79        38        80     1      108.427818      372.231779    ;  uncertainty theta = 0.005922, k = 0.186924

[ dihedrals ] ; propers for gromacs 4.5 or higher, use funct 9
;       ai        aj        ak        al funct           phase               k        pn
         1         2         3         4     9        0.000000       -2.006597         1    ;  uncertainty k = 0.765351
         1         2         3         4     9      180.000000       -0.656552         2    ;  uncertainty k = 0.278581
         1         2         3         4     9        0.000000        1.452200         3    ;  uncertainty k = 0.223364
         1         2         3         4     9      180.000000       -0.301691         4    ;  uncertainty k = 0.089157
         1         2         3        43     9        0.000000       -1.730454         1    ;  uncertainty k = 0.549189
         1         2         3        43     9      180.000000        0.135346         2    ;  uncertainty k = 0.211921
         1         2         3        43     9        0.000000        0.531764         3    ;  uncertainty k = 0.101457
         1         2         3        43     9      180.000000       -0.270022         4    ;  uncertainty k = 0.101875
         1         2         3        44     9        0.000000       -1.730454         1    ;  uncertainty k = 0.549189
         1         2         3        44     9      180.000000        0.135346         2    ;  uncertainty k = 0.211921
         1         2         3        44     9        0.000000        0.531764         3    ;  uncertainty k = 0.101457
         1         2         3        44     9      180.000000       -0.270022         4    ;  uncertainty k = 0.101875
         1         2        29        28     9        0.000000       -2.671286         1    ;  uncertainty k = 0.306921
         1         2        29        28     9      180.000000        0.045513         2    ;  uncertainty k = 0.329420
         1         2        29        28     9        0.000000        1.581450         3    ;  uncertainty k = 0.298244
         1         2        29        28     9      180.000000       -0.412154         4    ;  uncertainty k = 0.066466
         1         2        29        30     9        0.000000       -3.874581         1    ;  uncertainty k = 0.532988
         1         2        29        30     9      180.000000        0.893721         2    ;  uncertainty k = 0.179673
         1         2        29        30     9        0.000000        0.925865         3    ;  uncertainty k = 0.064439
         1         2        29        30     9      180.000000       -0.365906         4    ;  uncertainty k = 0.087394
         1         2        29        67     9        0.000000       -1.276386         1    ;  uncertainty k = 0.358579
         1         2        29        67     9      180.000000       -0.350742         2    ;  uncertainty k = 0.177588
         1         2        29        67     9        0.000000        0.371155         3    ;  uncertainty k = 0.140708
         1         2        29        67     9      180.000000       -0.143108         4    ;  uncertainty k = 0.055775
         2         3         4         5     9        0.000000        1.394201         1    ;  uncertainty k = 0.693636
         2         3         4         5     9      180.000000       -0.837576         2    ;  uncertainty k = 0.488524
         2         3         4         5     9        0.000000        0.971069         3    ;  uncertainty k = 0.208478
         2         3         4         5     9      180.000000        0.167012         4    ;  uncertainty k = 0.111143
         2         3         4        32     9        0.000000        1.032842         1    ;  uncertainty k = 0.591251
         2         3         4        32     9      180.000000        0.095133         2    ;  uncertainty k = 0.423986
         2         3         4        32     9        0.000000        0.001374         3    ;  uncertainty k = 0.203786
         2         3         4        32     9      180.000000        0.569833         4    ;  uncertainty k = 0.129058
         2        29        28        27     9        0.000000       -0.064627         1    ;  uncertainty k = 0.330683
         2        29        28        27     9      180.000000       -0.472028         2    ;  uncertainty k = 0.322758
         2        29        28        27     9        0.000000        0.522737         3    ;  uncertainty k = 0.281249
         2        29        28        27     9      180.000000        0.279824         4    ;  uncertainty k = 0.090307
         2        29        28        66     9        0.000000        4.102422         1    ;  uncertainty k = 0.831289
         2        29        28        66     9      180.000000       -2.817909         2    ;  uncertainty k = 0.477893
         2        29        28        66     9        0.000000        0.382746         3    ;  uncertainty k = 0.109025
         2        29        28        66     9      180.000000        0.087525         4    ;  uncertainty k = 0.113221
         2        29        30        68     9        0.000000       -1.079508         1    ;  uncertainty k = 0.160035
         2        29        30        68     9      180.000000       -0.798812         2    ;  uncertainty k = 0.193852
         2        29        30        68     9        0.000000        0.871750         3    ;  uncertainty k = 0.112025
         2        29        30        68     9      180.000000       -0.284480         4    ;  uncertainty k = 0.036767
         2        29        30        69     9        0.000000       -1.079508         1    ;  uncertainty k = 0.160035
         2        29        30        69     9      180.000000       -0.798812         2    ;  uncertainty k = 0.193852
         2        29        30        69     9        0.000000        0.871750         3    ;  uncertainty k = 0.112025
         2        29        30        69     9      180.000000       -0.284480         4    ;  uncertainty k = 0.036767
         2        29        30        70     9        0.000000       -1.079508         1    ;  uncertainty k = 0.160035
         2        29        30        70     9      180.000000       -0.798812         2    ;  uncertainty k = 0.193852
         2        29        30        70     9        0.000000        0.871750         3    ;  uncertainty k = 0.112025
         2        29        30        70     9      180.000000       -0.284480         4    ;  uncertainty k = 0.036767
         3         2         1        39     9        0.000000       -1.289471         1    ;  uncertainty k = 0.287400
         3         2         1        39     9      180.000000       -1.019940         2    ;  uncertainty k = 0.163937
         3         2         1        39     9        0.000000        0.870842         3    ;  uncertainty k = 0.056457
         3         2         1        39     9      180.000000       -0.350447         4    ;  uncertainty k = 0.093892
         3         2         1        40     9        0.000000       -1.289471         1    ;  uncertainty k = 0.287400
         3         2         1        40     9      180.000000       -1.019940         2    ;  uncertainty k = 0.163937
         3         2         1        40     9        0.000000        0.870842         3    ;  uncertainty k = 0.056457
         3         2         1        40     9      180.000000       -0.350447         4    ;  uncertainty k = 0.093892
         3         2         1        41     9        0.000000       -1.289471         1    ;  uncertainty k = 0.287400
         3         2         1        41     9      180.000000       -1.019940         2    ;  uncertainty k = 0.163937
         3         2         1        41     9        0.000000        0.870842         3    ;  uncertainty k = 0.056457
         3         2         1        41     9      180.000000       -0.350447         4    ;  uncertainty k = 0.093892
         3         2        29        28     9        0.000000       -3.918569         1    ;  uncertainty k = 0.853574
         3         2        29        28     9      180.000000       -0.687582         2    ;  uncertainty k = 0.385729
         3         2        29        28     9        0.000000        1.440136         3    ;  uncertainty k = 0.273612
         3         2        29        28     9      180.000000       -0.496726         4    ;  uncertainty k = 0.080573
         3         2        29        30     9        0.000000       -3.703290         1    ;  uncertainty k = 0.699264
         3         2        29        30     9      180.000000        0.207009         2    ;  uncertainty k = 0.167063
         3         2        29        30     9        0.000000        0.885220         3    ;  uncertainty k = 0.117325
         3         2        29        30     9      180.000000       -0.445817         4    ;  uncertainty k = 0.090185
         3         2        29        67     9        0.000000       -1.248817         1    ;  uncertainty k = 0.370397
         3         2        29        67     9      180.000000       -1.102292         2    ;  uncertainty k = 0.211707
         3         2        29        67     9        0.000000        0.238672         3    ;  uncertainty k = 0.127271
         3         2        29        67     9      180.000000       -0.273114         4    ;  uncertainty k = 0.120905
         3         4         5         6     9        0.000000        0.207519         1    ;  uncertainty k = 0.275141
         3         4         5         6     9      180.000000       -1.362734         2    ;  uncertainty k = 0.397432
         3         4         5         6     9        0.000000        1.089876         3    ;  uncertainty k = 0.075580
         3         4         5         6     9      180.000000        0.140558         4    ;  uncertainty k = 0.136000
         3         4         5        45     9        0.000000       -1.609384         1    ;  uncertainty k = 0.436558
         3         4         5        45     9      180.000000        0.113070         2    ;  uncertainty k = 0.215347
         3         4         5        45     9        0.000000        0.897896         3    ;  uncertainty k = 0.055743
         3         4         5        45     9      180.000000        0.205168         4    ;  uncertainty k = 0.082952
         3         4         5        46     9        0.000000       -1.609384         1    ;  uncertainty k = 0.436558
         3         4         5        46     9      180.000000        0.113070         2    ;  uncertainty k = 0.215347
         3         4         5        46     9        0.000000        0.897896         3    ;  uncertainty k = 0.055743
         3         4         5        46     9      180.000000        0.205168         4    ;  uncertainty k = 0.082952
         3         4        32        33     9        0.000000        6.437378         1    ;  uncertainty k = 1.315018
         3         4        32        33     9      180.000000       20.427393         2    ;  uncertainty k = 0.426182
         3         4        32        33     9        0.000000        0.302212         3    ;  uncertainty k = 0.326493
         3         4        32        33     9      180.000000       -1.078776         4    ;  uncertainty k = 0.516962
         3         4        32        34     9        0.000000        8.290350         1    ;  uncertainty k = 0.881446
         3         4        32        34     9      180.000000        8.603991         2    ;  uncertainty k = 0.522146
         3         4        32        34     9        0.000000        1.422042         3    ;  uncertainty k = 0.335432
         3         4        32        34     9      180.000000       -0.214838         4    ;  uncertainty k = 0.334475
         4         3         2        29     9        0.000000       -2.778607         1    ;  uncertainty k = 1.632342
         4         3         2        29     9      180.000000       -2.161592         2    ;  uncertainty k = 0.526795
         4         3         2        29     9        0.000000        1.320346         3    ;  uncertainty k = 0.287795
         4         3         2        29     9      180.000000       -0.268264         4    ;  uncertainty k = 0.194104
         4         3         2        42     9        0.000000        1.472808         1    ;  uncertainty k = 0.745235
         4         3         2        42     9      180.000000       -2.746047         2    ;  uncertainty k = 0.203301
         4         3         2        42     9        0.000000        0.909384         3    ;  uncertainty k = 0.202188
         4         3         2        42     9      180.000000       -0.040630         4    ;  uncertainty k = 0.049335
         4         5         6         7     9        0.000000       -1.598702         1    ;  uncertainty k = 0.899576
         4         5         6         7     9      180.000000       -0.630024         2    ;  uncertainty k = 0.479886
         4         5         6         7     9        0.000000        1.671771         3    ;  uncertainty k = 0.198976
         4         5         6         7     9      180.000000        0.071321         4    ;  uncertainty k = 0.138368
         4         5         6        47     9        0.000000        0.406544         1    ;  uncertainty k = 0.710502
         4         5         6        47     9      180.000000       -1.853302         2    ;  uncertainty k = 0.633284
         4         5         6        47     9        0.000000        1.176973         3    ;  uncertainty k = 0.142578
         4         5         6        47     9      180.000000       -0.116682         4    ;  uncertainty k = 0.080448
         4         5         6        48     9        0.000000        0.406544         1    ;  uncertainty k = 0.710502
         4         5         6        48     9      180.000000       -1.853302         2    ;  uncertainty k = 0.633284
         4         5         6        48     9        0.000000        1.176973         3    ;  uncertainty k = 0.142578
         4         5         6        48     9      180.000000       -0.116682         4    ;  uncertainty k = 0.080448
         4        32        34        35     9        0.000000       -1.496106         1    ;  uncertainty k = 0.229006
         4        32        34        35     9      180.000000        2.159925         2    ;  uncertainty k = 0.946067
         4        32        34        35     9        0.000000        0.622859         3    ;  uncertainty k = 0.183866
         4        32        34        35     9      180.000000        0.179381         4    ;  uncertainty k = 0.107817
         4        32        34        38     9        0.000000        5.139131         1    ;  uncertainty k = 1.162019
         4        32        34        38     9      180.000000        5.427865         2    ;  uncertainty k = 0.461354
         4        32        34        38     9        0.000000        0.815987         3    ;  uncertainty k = 0.763806
         4        32        34        38     9      180.000000       -0.034334         4    ;  uncertainty k = 0.163246
         4        32        34        72     9        0.000000        0.012752         1    ;  uncertainty k = 0.568975
         4        32        34        72     9      180.000000        1.751060         2    ;  uncertainty k = 0.580556
         4        32        34        72     9        0.000000        0.212755         3    ;  uncertainty k = 0.240704
         4        32        34        72     9      180.000000        0.107525         4    ;  uncertainty k = 0.063491
         5         4         3        43     9        0.000000       -2.052647         1    ;  uncertainty k = 0.383872
         5         4         3        43     9      180.000000        0.076079         2    ;  uncertainty k = 0.287878
         5         4         3        43     9        0.000000        0.893736         3    ;  uncertainty k = 0.082412
         5         4         3        43     9      180.000000        0.204184         4    ;  uncertainty k = 0.111382
         5         4         3        44     9        0.000000       -2.052647         1    ;  uncertainty k = 0.383872
         5         4         3        44     9      180.000000        0.076079         2    ;  uncertainty k = 0.287878
         5         4         3        44     9        0.000000        0.893736         3    ;  uncertainty k = 0.082412
         5         4         3        44     9      180.000000        0.204184         4    ;  uncertainty k = 0.111382
         5         4        32        33     9        0.000000        6.871978         1    ;  uncertainty k = 1.234217
         5         4        32        33     9      180.000000       20.427804         2    ;  uncertainty k = 0.371998
         5         4        32        33     9        0.000000        0.219528         3    ;  uncertainty k = 0.260053
         5         4        32        33     9      180.000000       -1.008904         4    ;  uncertainty k = 0.439587
         5         4        32        34     9        0.000000        8.528315         1    ;  uncertainty k = 0.812893
         5         4        32        34     9      180.000000        8.620664         2    ;  uncertainty k = 0.608176
         5         4        32        34     9        0.000000        1.433857         3    ;  uncertainty k = 0.253349
         5         4        32        34     9      180.000000       -0.213658         4    ;  uncertainty k = 0.306158
         5         6         7         8     9        0.000000        0.021945         1    ;  uncertainty k = 0.524625
         5         6         7         8     9      180.000000        0.953666         2    ;  uncertainty k = 0.238321
         5         6         7         8     9        0.000000        0.091098         3    ;  uncertainty k = 0.278371
         5         6         7         8     9      180.000000        0.214236         4    ;  uncertainty k = 0.081429
         5         6         7        19     9        0.000000       -0.326138         1    ;  uncertainty k = 0.802056
         5         6         7        19     9      180.000000       -0.024067         2    ;  uncertainty k = 0.673524
         5         6         7        19     9        0.000000        0.729018         3    ;  uncertainty k = 0.370321
         5         6         7        19     9      180.000000        0.163187         4    ;  uncertainty k = 0.093622
         6         5         4        32     9        0.000000        1.116729         1    ;  uncertainty k = 0.307650
         6         5         4        32     9      180.000000       -0.434037         2    ;  uncertainty k = 0.458140
         6         5         4        32     9        0.000000        0.252755         3    ;  uncertainty k = 0.289214
         6         5         4        32     9      180.000000        0.562444         4    ;  uncertainty k = 0.217460
         6         7         8         9     9        0.000000       -0.532497         1    ;  uncertainty k = 0.822019
         6         7         8         9     9      180.000000        8.352401         2    ;  uncertainty k = 0.473326
         6         7         8         9     9        0.000000        1.130130         3    ;  uncertainty k = 0.310646
         6         7         8         9     9      180.000000        0.814164         4    ;  uncertainty k = 0.212368
         6         7         8        10     9        0.000000        0.058451         1    ;  uncertainty k = 0.733642
         6         7         8        10     9      180.000000       13.896848         2    ;  uncertainty k = 0.518303
         6         7         8        10     9        0.000000        2.015317         3    ;  uncertainty k = 0.324798
         6         7         8        10     9      180.000000        0.863481         4    ;  uncertainty k = 0.272510
         6         7        19        11     9        0.000000        0.956224         1    ;  uncertainty k = 0.890953
         6         7        19        11     9      180.000000        7.957181         2    ;  uncertainty k = 0.612089
         6         7        19        11     9        0.000000        1.532369         3    ;  uncertainty k = 0.212113
         6         7        19        11     9      180.000000       -0.000894         4    ;  uncertainty k = 0.149786
         6         7        19        20     9        0.000000        0.441508         1    ;  uncertainty k = 0.680865
         6         7        19        20     9      180.000000        4.006417         2    ;  uncertainty k = 0.743793
         6         7        19        20     9        0.000000        1.247487         3    ;  uncertainty k = 0.243208
         6         7        19        20     9      180.000000        0.206624         4    ;  uncertainty k = 0.142875
         7         6         5        45     9        0.000000        0.436959         1    ;  uncertainty k = 0.601875
         7         6         5        45     9      180.000000       -0.393596         2    ;  uncertainty k = 0.431140
         7         6         5        45     9        0.000000        0.779482         3    ;  uncertainty k = 0.103628
         7         6         5        45     9      180.000000       -0.000855         4    ;  uncertainty k = 0.093918
         7         6         5        46     9        0.000000        0.436959         1    ;  uncertainty k = 0.601875
         7         6         5        46     9      180.000000       -0.393596         2    ;  uncertainty k = 0.431140
         7         6         5        46     9        0.000000        0.779482         3    ;  uncertainty k = 0.103628
         7         6         5        46     9      180.000000       -0.000855         4    ;  uncertainty k = 0.093918
         7         8         9        49     9        0.000000        0.990939         1    ;  uncertainty k = 0.422028
         7         8         9        49     9      180.000000        1.584558         2    ;  uncertainty k = 0.317878
         7         8         9        49     9        0.000000        0.051682         3    ;  uncertainty k = 0.149545
         7         8         9        49     9      180.000000        0.098188         4    ;  uncertainty k = 0.043293
         7         8         9        50     9        0.000000        0.990939         1    ;  uncertainty k = 0.422028
         7         8         9        50     9      180.000000        1.584558         2    ;  uncertainty k = 0.317878
         7         8         9        50     9        0.000000        0.051682         3    ;  uncertainty k = 0.149545
         7         8         9        50     9      180.000000        0.098188         4    ;  uncertainty k = 0.043293
         7         8         9        51     9        0.000000        0.990939         1    ;  uncertainty k = 0.422028
         7         8         9        51     9      180.000000        1.584558         2    ;  uncertainty k = 0.317878
         7         8         9        51     9        0.000000        0.051682         3    ;  uncertainty k = 0.149545
         7         8         9        51     9      180.000000        0.098188         4    ;  uncertainty k = 0.043293
         7         8        10        11     9        0.000000       -0.172736         1    ;  uncertainty k = 0.561524
         7         8        10        11     9      180.000000       12.467393         2    ;  uncertainty k = 0.847452
         7         8        10        11     9        0.000000       -9.668712         3    ;  uncertainty k = 1.413131
         7         8        10        11     9      180.000000        1.884992         4    ;  uncertainty k = 0.363130
         7         8        10        17     9        0.000000        0.916985         1    ;  uncertainty k = 0.838547
         7         8        10        17     9      180.000000        5.249304         2    ;  uncertainty k = 0.833250
         7         8        10        17     9        0.000000        1.468602         3    ;  uncertainty k = 0.124807
         7         8        10        17     9      180.000000        0.667522         4    ;  uncertainty k = 0.234380
         7        19        11        10     9        0.000000        0.016725         1    ;  uncertainty k = 0.750908
         7        19        11        10     9      180.000000       15.980520         2    ;  uncertainty k = 0.696156
         7        19        11        10     9        0.000000       -8.308859         3    ;  uncertainty k = 1.799776
         7        19        11        10     9      180.000000        0.859607         4    ;  uncertainty k = 0.640648
         7        19        11        12     9        0.000000        0.869610         1    ;  uncertainty k = 0.577471
         7        19        11        12     9      180.000000        7.352806         2    ;  uncertainty k = 0.362876
         7        19        11        12     9        0.000000        1.483818         3    ;  uncertainty k = 0.175289
         7        19        11        12     9      180.000000        0.102785         4    ;  uncertainty k = 0.153733
         7        19        20        21     9        0.000000        0.933231         1    ;  uncertainty k = 0.569051
         7        19        20        21     9      180.000000        5.981556         2    ;  uncertainty k = 0.419060
         7        19        20        21     9        0.000000        0.520553         3    ;  uncertainty k = 0.196669
         7        19        20        21     9      180.000000        0.370720         4    ;  uncertainty k = 0.170421
         7        19        20        31     9        0.000000        0.689737         1    ;  uncertainty k = 0.541352
         7        19        20        31     9      180.000000        5.771919         2    ;  uncertainty k = 0.479813
         7        19        20        31     9        0.000000        0.418192         3    ;  uncertainty k = 0.151976
         7        19        20        31     9      180.000000        0.356769         4    ;  uncertainty k = 0.211437
         8         7         6        47     9        0.000000        0.663542         1    ;  uncertainty k = 0.219921
         8         7         6        47     9      180.000000        1.314997         2    ;  uncertainty k = 0.224870
         8         7         6        47     9        0.000000        0.204527         3    ;  uncertainty k = 0.085521
         8         7         6        47     9      180.000000        0.115889         4    ;  uncertainty k = 0.101229
         8         7         6        48     9        0.000000        0.663542         1    ;  uncertainty k = 0.219921
         8         7         6        48     9      180.000000        1.314997         2    ;  uncertainty k = 0.224870
         8         7         6        48     9        0.000000        0.204527         3    ;  uncertainty k = 0.085521
         8         7         6        48     9      180.000000        0.115889         4    ;  uncertainty k = 0.101229
         8         7        19        11     9        0.000000       -0.441965         1    ;  uncertainty k = 0.772671
         8         7        19        11     9      180.000000       12.335777         2    ;  uncertainty k = 0.843286
         8         7        19        11     9        0.000000       -6.363888         3    ;  uncertainty k = 0.826616
         8         7        19        11     9      180.000000        1.097320         4    ;  uncertainty k = 0.495151
         8         7        19        20     9        0.000000        1.785909         1    ;  uncertainty k = 0.600657
         8         7        19        20     9      180.000000        6.869547         2    ;  uncertainty k = 0.696299
         8         7        19        20     9        0.000000        1.913702         3    ;  uncertainty k = 0.303003
         8         7        19        20     9      180.000000        0.117015         4    ;  uncertainty k = 0.277672
         8        10        11        12     9        0.000000        0.098972         1    ;  uncertainty k = 0.129339
         8        10        11        12     9      180.000000       11.363982         2    ;  uncertainty k = 0.461653
         8        10        11        12     9        0.000000        1.096518         3    ;  uncertainty k = 0.310913
         8        10        11        12     9      180.000000        1.161325         4    ;  uncertainty k = 0.306654
         8        10        11        19     9        0.000000       -0.261022         1    ;  uncertainty k = 0.286443
         8        10        11        19     9      180.000000       15.456022         2    ;  uncertainty k = 1.105489
         8        10        11        19     9        0.000000       -4.462924         3    ;  uncertainty k = 0.680181
         8        10        11        19     9      180.000000        1.744412         4    ;  uncertainty k = 0.614654
         8        10        17        16     9        0.000000       -0.925885         1    ;  uncertainty k = 0.290704
         8        10        17        16     9      180.000000        3.203967         2    ;  uncertainty k = 0.294780
         8        10        17        16     9        0.000000        0.628262         3    ;  uncertainty k = 0.134926
         8        10        17        16     9      180.000000        0.390424         4    ;  uncertainty k = 0.058929
         8        10        17        18     9        0.000000       -1.831232         1    ;  uncertainty k = 1.162924
         8        10        17        18     9      180.000000        6.628075         2    ;  uncertainty k = 0.444181
         8        10        17        18     9        0.000000        0.786076         3    ;  uncertainty k = 0.141801
         8        10        17        18     9      180.000000       -0.184769         4    ;  uncertainty k = 0.115399
         9         8         7        19     9        0.000000        0.149681         1    ;  uncertainty k = 0.853971
         9         8         7        19     9      180.000000       14.500450         2    ;  uncertainty k = 0.472561
         9         8         7        19     9        0.000000        2.140183         3    ;  uncertainty k = 0.652814
         9         8         7        19     9      180.000000        0.980842         4    ;  uncertainty k = 0.233977
         9         8        10        11     9        0.000000        0.722068         1    ;  uncertainty k = 1.094424
         9         8        10        11     9      180.000000        9.445072         2    ;  uncertainty k = 0.541993
         9         8        10        11     9        0.000000        1.762339         3    ;  uncertainty k = 0.390908
         9         8        10        11     9      180.000000        0.420561         4    ;  uncertainty k = 0.218799
         9         8        10        17     9        0.000000       -0.455671         1    ;  uncertainty k = 1.403086
         9         8        10        17     9      180.000000        5.300569         2    ;  uncertainty k = 0.722125
         9         8        10        17     9        0.000000        1.718834         3    ;  uncertainty k = 0.191901
         9         8        10        17     9      180.000000        0.212334         4    ;  uncertainty k = 0.155506
        10         8         7        19     9        0.000000       -0.093669         1    ;  uncertainty k = 0.302238
        10         8         7        19     9      180.000000       20.526557         2    ;  uncertainty k = 0.621067
        10         8         7        19     9        0.000000       -4.983412         3    ;  uncertainty k = 0.877913
        10         8         7        19     9      180.000000        1.339367         4    ;  uncertainty k = 0.700581
        10         8         9        49     9        0.000000       -0.317375         1    ;  uncertainty k = 0.324377
        10         8         9        49     9      180.000000        2.311188         2    ;  uncertainty k = 0.314980
        10         8         9        49     9        0.000000        0.541761         3    ;  uncertainty k = 0.090741
        10         8         9        49     9      180.000000        0.204303         4    ;  uncertainty k = 0.098405
        10         8         9        50     9        0.000000       -0.317375         1    ;  uncertainty k = 0.324377
        10         8         9        50     9      180.000000        2.311188         2    ;  uncertainty k = 0.314980
        10         8         9        50     9        0.000000        0.541761         3    ;  uncertainty k = 0.090741
        10         8         9        50     9      180.000000        0.204303         4    ;  uncertainty k = 0.098405
        10         8         9        51     9        0.000000       -0.317375         1    ;  uncertainty k = 0.324377
        10         8         9        51     9      180.000000        2.311188         2    ;  uncertainty k = 0.314980
        10         8         9        51     9        0.000000        0.541761         3    ;  uncertainty k = 0.090741
        10         8         9        51     9      180.000000        0.204303         4    ;  uncertainty k = 0.098405
        10        11        12        13     9        0.000000       -5.743628         1    ;  uncertainty k = 0.992783
        10        11        12        13     9      180.000000        3.423293         2    ;  uncertainty k = 0.718954
        10        11        12        13     9        0.000000       -0.241330         3    ;  uncertainty k = 0.408245
        10        11        12        13     9      180.000000       -0.102577         4    ;  uncertainty k = 0.192591
        10        11        12        52     9        0.000000        0.132938         1    ;  uncertainty k = 0.353731
        10        11        12        52     9      180.000000        1.654254         2    ;  uncertainty k = 0.268579
        10        11        12        52     9        0.000000        0.086088         3    ;  uncertainty k = 0.209389
        10        11        12        52     9      180.000000       -0.010768         4    ;  uncertainty k = 0.059037
        10        11        12        53     9        0.000000        0.132938         1    ;  uncertainty k = 0.353731
        10        11        12        53     9      180.000000        1.654254         2    ;  uncertainty k = 0.268579
        10        11        12        53     9        0.000000        0.086088         3    ;  uncertainty k = 0.209389
        10        11        12        53     9      180.000000       -0.010768         4    ;  uncertainty k = 0.059037
        10        11        19        20     9        0.000000        1.585684         1    ;  uncertainty k = 0.856208
        10        11        19        20     9      180.000000        9.919509         2    ;  uncertainty k = 0.470640
        10        11        19        20     9        0.000000        1.471676         3    ;  uncertainty k = 0.569045
        10        11        19        20     9      180.000000        0.041874         4    ;  uncertainty k = 0.188699
        10        17        16        13     9        0.000000       -1.817000         1    ;  uncertainty k = 1.169014
        10        17        16        13     9      180.000000        1.111718         2    ;  uncertainty k = 0.775325
        10        17        16        13     9        0.000000        0.530190         3    ;  uncertainty k = 0.364969
        10        17        16        13     9      180.000000        0.320394         4    ;  uncertainty k = 0.142560
        10        17        16        60     9        0.000000       -2.829394         1    ;  uncertainty k = 0.709562
        10        17        16        60     9      180.000000        2.442710         2    ;  uncertainty k = 0.465671
        10        17        16        60     9        0.000000        0.611080         3    ;  uncertainty k = 0.177240
        10        17        16        60     9      180.000000        0.073930         4    ;  uncertainty k = 0.113308
        10        17        16        61     9        0.000000       -2.829394         1    ;  uncertainty k = 0.709562
        10        17        16        61     9      180.000000        2.442710         2    ;  uncertainty k = 0.465671
        10        17        16        61     9        0.000000        0.611080         3    ;  uncertainty k = 0.177240
        10        17        16        61     9      180.000000        0.073930         4    ;  uncertainty k = 0.113308
        11        10        17        16     9        0.000000       -0.807205         1    ;  uncertainty k = 1.678479
        11        10        17        16     9      180.000000        3.101736         2    ;  uncertainty k = 0.502700
        11        10        17        16     9        0.000000       -0.584871         3    ;  uncertainty k = 0.363868
        11        10        17        16     9      180.000000        0.407747         4    ;  uncertainty k = 0.104997
        11        10        17        18     9        0.000000        0.267851         1    ;  uncertainty k = 0.434073
        11        10        17        18     9      180.000000        5.596175         2    ;  uncertainty k = 0.479084
        11        10        17        18     9        0.000000        0.525522         3    ;  uncertainty k = 0.209089
        11        10        17        18     9      180.000000       -0.080038         4    ;  uncertainty k = 0.143104
        11        12        13        14     9        0.000000       -2.059378         1    ;  uncertainty k = 0.851926
        11        12        13        14     9      180.000000        0.138692         2    ;  uncertainty k = 0.296506
        11        12        13        14     9        0.000000        0.960865         3    ;  uncertainty k = 0.087683
        11        12        13        14     9      180.000000       -0.140924         4    ;  uncertainty k = 0.099250
        11        12        13        15     9        0.000000       -2.059378         1    ;  uncertainty k = 0.851926
        11        12        13        15     9      180.000000        0.138692         2    ;  uncertainty k = 0.296506
        11        12        13        15     9        0.000000        0.960865         3    ;  uncertainty k = 0.087683
        11        12        13        15     9      180.000000       -0.140924         4    ;  uncertainty k = 0.099250
        11        12        13        16     9        0.000000       -0.779350         1    ;  uncertainty k = 1.271617
        11        12        13        16     9      180.000000       -0.810022         2    ;  uncertainty k = 0.439293
        11        12        13        16     9        0.000000        1.125398         3    ;  uncertainty k = 0.236289
        11        12        13        16     9      180.000000       -0.565116         4    ;  uncertainty k = 0.070459
        11        19        20        21     9        0.000000        1.041477         1    ;  uncertainty k = 1.169445
        11        19        20        21     9      180.000000        5.356958         2    ;  uncertainty k = 0.181907
        11        19        20        21     9        0.000000        0.467791         3    ;  uncertainty k = 0.232204
        11        19        20        21     9      180.000000        0.327393         4    ;  uncertainty k = 0.075326
        11        19        20        31     9        0.000000        0.831319         1    ;  uncertainty k = 0.841738
        11        19        20        31     9      180.000000        5.126210         2    ;  uncertainty k = 0.140717
        11        19        20        31     9        0.000000        0.337124         3    ;  uncertainty k = 0.171458
        11        19        20        31     9      180.000000        0.329271         4    ;  uncertainty k = 0.072831
        12        11        10        17     9        0.000000       -0.297423         1    ;  uncertainty k = 0.377298
        12        11        10        17     9      180.000000        7.571018         2    ;  uncertainty k = 0.845428
        12        11        10        17     9        0.000000        1.304070         3    ;  uncertainty k = 0.246621
        12        11        10        17     9      180.000000        0.870019         4    ;  uncertainty k = 0.242607
        12        11        19        20     9        0.000000        0.893615         1    ;  uncertainty k = 0.950885
        12        11        19        20     9      180.000000        4.019363         2    ;  uncertainty k = 0.518252
        12        11        19        20     9        0.000000        1.140274         3    ;  uncertainty k = 0.275007
        12        11        19        20     9      180.000000        0.252620         4    ;  uncertainty k = 0.094608
        12        13        14        54     9        0.000000       -0.498537         1    ;  uncertainty k = 0.143113
        12        13        14        54     9      180.000000       -0.848272         2    ;  uncertainty k = 0.184455
        12        13        14        54     9        0.000000        0.727631         3    ;  uncertainty k = 0.102120
        12        13        14        54     9      180.000000       -0.161619         4    ;  uncertainty k = 0.028801
        12        13        14        55     9        0.000000       -0.498537         1    ;  uncertainty k = 0.143113
        12        13        14        55     9      180.000000       -0.848272         2    ;  uncertainty k = 0.184455
        12        13        14        55     9        0.000000        0.727631         3    ;  uncertainty k = 0.102120
        12        13        14        55     9      180.000000       -0.161619         4    ;  uncertainty k = 0.028801
        12        13        14        56     9        0.000000       -0.498537         1    ;  uncertainty k = 0.143113
        12        13        14        56     9      180.000000       -0.848272         2    ;  uncertainty k = 0.184455
        12        13        14        56     9        0.000000        0.727631         3    ;  uncertainty k = 0.102120
        12        13        14        56     9      180.000000       -0.161619         4    ;  uncertainty k = 0.028801
        12        13        15        57     9        0.000000       -0.498537         1    ;  uncertainty k = 0.143113
        12        13        15        57     9      180.000000       -0.848272         2    ;  uncertainty k = 0.184455
        12        13        15        57     9        0.000000        0.727631         3    ;  uncertainty k = 0.102120
        12        13        15        57     9      180.000000       -0.161619         4    ;  uncertainty k = 0.028801
        12        13        15        58     9        0.000000       -0.498537         1    ;  uncertainty k = 0.143113
        12        13        15        58     9      180.000000       -0.848272         2    ;  uncertainty k = 0.184455
        12        13        15        58     9        0.000000        0.727631         3    ;  uncertainty k = 0.102120
        12        13        15        58     9      180.000000       -0.161619         4    ;  uncertainty k = 0.028801
        12        13        15        59     9        0.000000       -0.498537         1    ;  uncertainty k = 0.143113
        12        13        15        59     9      180.000000       -0.848272         2    ;  uncertainty k = 0.184455
        12        13        15        59     9        0.000000        0.727631         3    ;  uncertainty k = 0.102120
        12        13        15        59     9      180.000000       -0.161619         4    ;  uncertainty k = 0.028801
        12        13        16        17     9        0.000000        4.426179         1    ;  uncertainty k = 2.123985
        12        13        16        17     9      180.000000       -2.017070         2    ;  uncertainty k = 1.183008
        12        13        16        17     9        0.000000       -0.145894         3    ;  uncertainty k = 0.490514
        12        13        16        17     9      180.000000       -0.170554         4    ;  uncertainty k = 0.458127
        12        13        16        60     9        0.000000       -0.493420         1    ;  uncertainty k = 0.248638
        12        13        16        60     9      180.000000       -0.717373         2    ;  uncertainty k = 0.190837
        12        13        16        60     9        0.000000       -0.027739         3    ;  uncertainty k = 0.072348
        12        13        16        60     9      180.000000       -0.010183         4    ;  uncertainty k = 0.107964
        12        13        16        61     9        0.000000       -0.493420         1    ;  uncertainty k = 0.248638
        12        13        16        61     9      180.000000       -0.717373         2    ;  uncertainty k = 0.190837
        12        13        16        61     9        0.000000       -0.027739         3    ;  uncertainty k = 0.072348
        12        13        16        61     9      180.000000       -0.010183         4    ;  uncertainty k = 0.107964
        13        12        11        19     9        0.000000       -3.162033         1    ;  uncertainty k = 0.746671
        13        12        11        19     9      180.000000        0.251077         2    ;  uncertainty k = 0.542758
        13        12        11        19     9        0.000000        0.211070         3    ;  uncertainty k = 0.151931
        13        12        11        19     9      180.000000        0.181281         4    ;  uncertainty k = 0.055231
        13        16        17        18     9        0.000000       -1.651343         1    ;  uncertainty k = 1.529633
        13        16        17        18     9      180.000000        4.493844         2    ;  uncertainty k = 0.895843
        13        16        17        18     9        0.000000        1.248226         3    ;  uncertainty k = 0.555966
        13        16        17        18     9      180.000000        0.499233         4    ;  uncertainty k = 0.193383
        14        13        12        52     9        0.000000       -0.345053         1    ;  uncertainty k = 0.164726
        14        13        12        52     9      180.000000       -0.042993         2    ;  uncertainty k = 0.303596
        14        13        12        52     9        0.000000        0.449839         3    ;  uncertainty k = 0.094580
        14        13        12        52     9      180.000000       -0.101076         4    ;  uncertainty k = 0.068894
        14        13        12        53     9        0.000000       -0.345053         1    ;  uncertainty k = 0.164726
        14        13        12        53     9      180.000000       -0.042993         2    ;  uncertainty k = 0.303596
        14        13        12        53     9        0.000000        0.449839         3    ;  uncertainty k = 0.094580
        14        13        12        53     9      180.000000       -0.101076         4    ;  uncertainty k = 0.068894
        14        13        15        57     9        0.000000       -1.100690         1    ;  uncertainty k = 0.262907
        14        13        15        57     9      180.000000       -0.104140         2    ;  uncertainty k = 0.144224
        14        13        15        57     9        0.000000        0.812856         3    ;  uncertainty k = 0.036112
        14        13        15        57     9      180.000000       -0.129298         4    ;  uncertainty k = 0.042322
        14        13        15        58     9        0.000000       -1.100690         1    ;  uncertainty k = 0.262907
        14        13        15        58     9      180.000000       -0.104140         2    ;  uncertainty k = 0.144224
        14        13        15        58     9        0.000000        0.812856         3    ;  uncertainty k = 0.036112
        14        13        15        58     9      180.000000       -0.129298         4    ;  uncertainty k = 0.042322
        14        13        15        59     9        0.000000       -1.100690         1    ;  uncertainty k = 0.262907
        14        13        15        59     9      180.000000       -0.104140         2    ;  uncertainty k = 0.144224
        14        13        15        59     9        0.000000        0.812856         3    ;  uncertainty k = 0.036112
        14        13        15        59     9      180.000000       -0.129298         4    ;  uncertainty k = 0.042322
        14        13        16        17     9        0.000000       -3.108040         1    ;  uncertainty k = 1.074985
        14        13        16        17     9      180.000000        0.837403         2    ;  uncertainty k = 0.454398
        14        13        16        17     9        0.000000        0.620633         3    ;  uncertainty k = 0.203582
        14        13        16        17     9      180.000000       -0.175457         4    ;  uncertainty k = 0.135641
        14        13        16        60     9        0.000000       -0.380879         1    ;  uncertainty k = 0.148987
        14        13        16        60     9      180.000000        0.029117         2    ;  uncertainty k = 0.242307
        14        13        16        60     9        0.000000        0.376394         3    ;  uncertainty k = 0.083406
        14        13        16        60     9      180.000000       -0.141551         4    ;  uncertainty k = 0.073708
        14        13        16        61     9        0.000000       -0.380879         1    ;  uncertainty k = 0.148987
        14        13        16        61     9      180.000000        0.029117         2    ;  uncertainty k = 0.242307
        14        13        16        61     9        0.000000        0.376394         3    ;  uncertainty k = 0.083406
        14        13        16        61     9      180.000000       -0.141551         4    ;  uncertainty k = 0.073708
        15        13        12        52     9        0.000000       -0.345053         1    ;  uncertainty k = 0.164726
        15        13        12        52     9      180.000000       -0.042993         2    ;  uncertainty k = 0.303596
        15        13        12        52     9        0.000000        0.449839         3    ;  uncertainty k = 0.094580
        15        13        12        52     9      180.000000       -0.101076         4    ;  uncertainty k = 0.068894
        15        13        12        53     9        0.000000       -0.345053         1    ;  uncertainty k = 0.164726
        15        13        12        53     9      180.000000       -0.042993         2    ;  uncertainty k = 0.303596
        15        13        12        53     9        0.000000        0.449839         3    ;  uncertainty k = 0.094580
        15        13        12        53     9      180.000000       -0.101076         4    ;  uncertainty k = 0.068894
        15        13        14        54     9        0.000000       -1.100690         1    ;  uncertainty k = 0.262907
        15        13        14        54     9      180.000000       -0.104140         2    ;  uncertainty k = 0.144224
        15        13        14        54     9        0.000000        0.812856         3    ;  uncertainty k = 0.036112
        15        13        14        54     9      180.000000       -0.129298         4    ;  uncertainty k = 0.042322
        15        13        14        55     9        0.000000       -1.100690         1    ;  uncertainty k = 0.262907
        15        13        14        55     9      180.000000       -0.104140         2    ;  uncertainty k = 0.144224
        15        13        14        55     9        0.000000        0.812856         3    ;  uncertainty k = 0.036112
        15        13        14        55     9      180.000000       -0.129298         4    ;  uncertainty k = 0.042322
        15        13        14        56     9        0.000000       -1.100690         1    ;  uncertainty k = 0.262907
        15        13        14        56     9      180.000000       -0.104140         2    ;  uncertainty k = 0.144224
        15        13        14        56     9        0.000000        0.812856         3    ;  uncertainty k = 0.036112
        15        13        14        56     9      180.000000       -0.129298         4    ;  uncertainty k = 0.042322
        15        13        16        17     9        0.000000       -3.108040         1    ;  uncertainty k = 1.074985
        15        13        16        17     9      180.000000        0.837403         2    ;  uncertainty k = 0.454398
        15        13        16        17     9        0.000000        0.620633         3    ;  uncertainty k = 0.203582
        15        13        16        17     9      180.000000       -0.175457         4    ;  uncertainty k = 0.135641
        15        13        16        60     9        0.000000       -0.380879         1    ;  uncertainty k = 0.148987
        15        13        16        60     9      180.000000        0.029117         2    ;  uncertainty k = 0.242307
        15        13        16        60     9        0.000000        0.376394         3    ;  uncertainty k = 0.083406
        15        13        16        60     9      180.000000       -0.141551         4    ;  uncertainty k = 0.073708
        15        13        16        61     9        0.000000       -0.380879         1    ;  uncertainty k = 0.148987
        15        13        16        61     9      180.000000        0.029117         2    ;  uncertainty k = 0.242307
        15        13        16        61     9        0.000000        0.376394         3    ;  uncertainty k = 0.083406
        15        13        16        61     9      180.000000       -0.141551         4    ;  uncertainty k = 0.073708
        16        13        12        52     9        0.000000       -0.565078         1    ;  uncertainty k = 0.337931
        16        13        12        52     9      180.000000       -0.552918         2    ;  uncertainty k = 0.313963
        16        13        12        52     9        0.000000        0.111029         3    ;  uncertainty k = 0.061469
        16        13        12        52     9      180.000000        0.013507         4    ;  uncertainty k = 0.088562
        16        13        12        53     9        0.000000       -0.565078         1    ;  uncertainty k = 0.337931
        16        13        12        53     9      180.000000       -0.552918         2    ;  uncertainty k = 0.313963
        16        13        12        53     9        0.000000        0.111029         3    ;  uncertainty k = 0.061469
        16        13        12        53     9      180.000000        0.013507         4    ;  uncertainty k = 0.088562
        16        13        14        54     9        0.000000       -0.849959         1    ;  uncertainty k = 0.267418
        16        13        14        54     9      180.000000       -0.697110         2    ;  uncertainty k = 0.151027
        16        13        14        54     9        0.000000        0.772062         3    ;  uncertainty k = 0.038120
        16        13        14        54     9      180.000000       -0.185621         4    ;  uncertainty k = 0.075834
        16        13        14        55     9        0.000000       -0.849959         1    ;  uncertainty k = 0.267418
        16        13        14        55     9      180.000000       -0.697110         2    ;  uncertainty k = 0.151027
        16        13        14        55     9        0.000000        0.772062         3    ;  uncertainty k = 0.038120
        16        13        14        55     9      180.000000       -0.185621         4    ;  uncertainty k = 0.075834
        16        13        14        56     9        0.000000       -0.849959         1    ;  uncertainty k = 0.267418
        16        13        14        56     9      180.000000       -0.697110         2    ;  uncertainty k = 0.151027
        16        13        14        56     9        0.000000        0.772062         3    ;  uncertainty k = 0.038120
        16        13        14        56     9      180.000000       -0.185621         4    ;  uncertainty k = 0.075834
        16        13        15        57     9        0.000000       -0.849959         1    ;  uncertainty k = 0.267418
        16        13        15        57     9      180.000000       -0.697110         2    ;  uncertainty k = 0.151027
        16        13        15        57     9        0.000000        0.772062         3    ;  uncertainty k = 0.038120
        16        13        15        57     9      180.000000       -0.185621         4    ;  uncertainty k = 0.075834
        16        13        15        58     9        0.000000       -0.849959         1    ;  uncertainty k = 0.267418
        16        13        15        58     9      180.000000       -0.697110         2    ;  uncertainty k = 0.151027
        16        13        15        58     9        0.000000        0.772062         3    ;  uncertainty k = 0.038120
        16        13        15        58     9      180.000000       -0.185621         4    ;  uncertainty k = 0.075834
        16        13        15        59     9        0.000000       -0.849959         1    ;  uncertainty k = 0.267418
        16        13        15        59     9      180.000000       -0.697110         2    ;  uncertainty k = 0.151027
        16        13        15        59     9        0.000000        0.772062         3    ;  uncertainty k = 0.038120
        16        13        15        59     9      180.000000       -0.185621         4    ;  uncertainty k = 0.075834
        17        10        11        19     9        0.000000        0.485689         1    ;  uncertainty k = 1.105406
        17        10        11        19     9      180.000000        8.725445         2    ;  uncertainty k = 0.618605
        17        10        11        19     9        0.000000        0.911705         3    ;  uncertainty k = 0.975743
        17        10        11        19     9      180.000000        1.464473         4    ;  uncertainty k = 0.282868
        18        17        16        60     9        0.000000        1.807907         1    ;  uncertainty k = 0.733951
        18        17        16        60     9      180.000000        4.455564         2    ;  uncertainty k = 0.196116
        18        17        16        60     9        0.000000        0.423864         3    ;  uncertainty k = 0.105725
        18        17        16        60     9      180.000000        0.189424         4    ;  uncertainty k = 0.055096
        18        17        16        61     9        0.000000        1.807907         1    ;  uncertainty k = 0.733951
        18        17        16        61     9      180.000000        4.455564         2    ;  uncertainty k = 0.196116
        18        17        16        61     9        0.000000        0.423864         3    ;  uncertainty k = 0.105725
        18        17        16        61     9      180.000000        0.189424         4    ;  uncertainty k = 0.055096
        19         7         6        47     9        0.000000        0.024739         1    ;  uncertainty k = 0.293134
        19         7         6        47     9      180.000000        1.133225         2    ;  uncertainty k = 0.361229
        19         7         6        47     9        0.000000        0.498705         3    ;  uncertainty k = 0.145579
        19         7         6        47     9      180.000000        0.183599         4    ;  uncertainty k = 0.094397
        19         7         6        48     9        0.000000        0.024739         1    ;  uncertainty k = 0.293134
        19         7         6        48     9      180.000000        1.133225         2    ;  uncertainty k = 0.361229
        19         7         6        48     9        0.000000        0.498705         3    ;  uncertainty k = 0.145579
        19         7         6        48     9      180.000000        0.183599         4    ;  uncertainty k = 0.094397
        19        11        12        52     9        0.000000       -0.136631         1    ;  uncertainty k = 0.479346
        19        11        12        52     9      180.000000        1.416140         2    ;  uncertainty k = 0.555196
        19        11        12        52     9        0.000000        0.508060         3    ;  uncertainty k = 0.196200
        19        11        12        52     9      180.000000        0.157826         4    ;  uncertainty k = 0.035511
        19        11        12        53     9        0.000000       -0.136631         1    ;  uncertainty k = 0.479346
        19        11        12        53     9      180.000000        1.416140         2    ;  uncertainty k = 0.555196
        19        11        12        53     9        0.000000        0.508060         3    ;  uncertainty k = 0.196200
        19        11        12        53     9      180.000000        0.157826         4    ;  uncertainty k = 0.035511
        19        20        21        22     9        0.000000        0.108649         1    ;  uncertainty k = 0.264507
        19        20        21        22     9      180.000000        9.803159         2    ;  uncertainty k = 0.549650
        19        20        21        22     9        0.000000        1.310343         3    ;  uncertainty k = 0.456233
        19        20        21        22     9      180.000000        1.760136         4    ;  uncertainty k = 0.297004
        19        20        21        62     9        0.000000       -0.103918         1    ;  uncertainty k = 0.312798
        19        20        21        62     9      180.000000        7.491605         2    ;  uncertainty k = 0.239677
        19        20        21        62     9        0.000000        0.735167         3    ;  uncertainty k = 0.245837
        19        20        21        62     9      180.000000        1.146010         4    ;  uncertainty k = 0.288730
        19        20        31        27     9        0.000000        0.294602         1    ;  uncertainty k = 0.319669
        19        20        31        27     9      180.000000       10.529793         2    ;  uncertainty k = 0.698381
        19        20        31        27     9        0.000000        1.310734         3    ;  uncertainty k = 0.245593
        19        20        31        27     9      180.000000        1.584519         4    ;  uncertainty k = 0.416269
        19        20        31        71     9        0.000000       -0.148336         1    ;  uncertainty k = 0.354786
        19        20        31        71     9      180.000000        7.935420         2    ;  uncertainty k = 0.311403
        19        20        31        71     9        0.000000        0.705690         3    ;  uncertainty k = 0.217083
        19        20        31        71     9      180.000000        1.225082         4    ;  uncertainty k = 0.272104
        20        21        22        23     9        0.000000       -0.106419         1    ;  uncertainty k = 0.283588
        20        21        22        23     9      180.000000       12.324964         2    ;  uncertainty k = 0.370204
        20        21        22        23     9        0.000000       -0.795778         3    ;  uncertainty k = 0.517186
        20        21        22        23     9      180.000000        0.869855         4    ;  uncertainty k = 0.322233
        20        21        22        63     9        0.000000       -0.111324         1    ;  uncertainty k = 0.371913
        20        21        22        63     9      180.000000        8.088321         2    ;  uncertainty k = 0.358998
        20        21        22        63     9        0.000000        1.005364         3    ;  uncertainty k = 0.229771
        20        21        22        63     9      180.000000        1.767343         4    ;  uncertainty k = 0.141765
        20        31        27        23     9        0.000000        0.518324         1    ;  uncertainty k = 0.711361
        20        31        27        23     9      180.000000        5.623392         2    ;  uncertainty k = 0.915465
        20        31        27        23     9        0.000000        0.689225         3    ;  uncertainty k = 0.432383
        20        31        27        23     9      180.000000        1.338585         4    ;  uncertainty k = 0.208675
        20        31        27        28     9        0.000000        0.405432         1    ;  uncertainty k = 0.619455
        20        31        27        28     9      180.000000        9.132501         2    ;  uncertainty k = 0.350831
        20        31        27        28     9        0.000000        0.791707         3    ;  uncertainty k = 0.228836
        20        31        27        28     9      180.000000        1.606106         4    ;  uncertainty k = 0.253430
        21        20        31        27     9        0.000000        0.205485         1    ;  uncertainty k = 0.153551
        21        20        31        27     9      180.000000        9.720771         2    ;  uncertainty k = 0.558989
        21        20        31        27     9        0.000000       -0.002177         3    ;  uncertainty k = 0.369946
        21        20        31        27     9      180.000000        1.150073         4    ;  uncertainty k = 0.247801
        21        20        31        71     9        0.000000        0.266325         1    ;  uncertainty k = 0.272762
        21        20        31        71     9      180.000000        7.526699         2    ;  uncertainty k = 0.604426
        21        20        31        71     9        0.000000        1.355189         3    ;  uncertainty k = 0.409749
        21        20        31        71     9      180.000000        1.554641         4    ;  uncertainty k = 0.240595
        21        22        23        24     9        0.000000        0.101848         1    ;  uncertainty k = 0.557995
        21        22        23        24     9      180.000000        8.798194         2    ;  uncertainty k = 0.882938
        21        22        23        24     9        0.000000        1.443932         3    ;  uncertainty k = 0.469737
        21        22        23        24     9      180.000000        1.760547         4    ;  uncertainty k = 0.402023
        21        22        23        27     9        0.000000       -0.015645         1    ;  uncertainty k = 0.359594
        21        22        23        27     9      180.000000       10.068129         2    ;  uncertainty k = 0.154730
        21        22        23        27     9        0.000000       -0.232680         3    ;  uncertainty k = 0.560186
        21        22        23        27     9      180.000000        1.149528         4    ;  uncertainty k = 0.278410
        22        21        20        31     9        0.000000       -0.029665         1    ;  uncertainty k = 0.305199
        22        21        20        31     9      180.000000        9.904445         2    ;  uncertainty k = 0.496921
        22        21        20        31     9        0.000000       -0.163324         3    ;  uncertainty k = 0.315174
        22        21        20        31     9      180.000000        1.129351         4    ;  uncertainty k = 0.245877
        22        23        24        25     9        0.000000        0.305327         1    ;  uncertainty k = 0.415605
        22        23        24        25     9      180.000000        4.331985         2    ;  uncertainty k = 0.243883
        22        23        24        25     9        0.000000        0.344149         3    ;  uncertainty k = 0.263598
        22        23        24        25     9      180.000000        0.048439         4    ;  uncertainty k = 0.204233
        22        23        24        26     9        0.000000       -2.595934         1    ;  uncertainty k = 1.208799
        22        23        24        26     9      180.000000        4.057817         2    ;  uncertainty k = 0.812776
        22        23        24        26     9        0.000000        0.686371         3    ;  uncertainty k = 0.261441
        22        23        24        26     9      180.000000        0.284317         4    ;  uncertainty k = 0.206593
        22        23        27        28     9        0.000000       -0.055348         1    ;  uncertainty k = 0.843241
        22        23        27        28     9      180.000000        6.509005         2    ;  uncertainty k = 0.499226
        22        23        27        28     9        0.000000        0.947527         3    ;  uncertainty k = 0.371315
        22        23        27        28     9      180.000000        1.514177         4    ;  uncertainty k = 0.271049
        22        23        27        31     9        0.000000       -0.014695         1    ;  uncertainty k = 1.012978
        22        23        27        31     9      180.000000        4.804509         2    ;  uncertainty k = 0.706352
        22        23        27        31     9        0.000000        0.475645         3    ;  uncertainty k = 0.382445
        22        23        27        31     9      180.000000        1.471776         4    ;  uncertainty k = 0.348853
        23        22        21        62     9        0.000000       -0.158872         1    ;  uncertainty k = 0.274851
        23        22        21        62     9      180.000000        8.031418         2    ;  uncertainty k = 0.496181
        23        22        21        62     9        0.000000        1.215723         3    ;  uncertainty k = 0.359263
        23        22        21        62     9      180.000000        1.704879         4    ;  uncertainty k = 0.155881
        23        24        25        64     9        0.000000        3.531772         1    ;  uncertainty k = 1.191650
        23        24        25        64     9      180.000000        7.207761         2    ;  uncertainty k = 0.635625
        23        24        25        64     9        0.000000        2.736817         3    ;  uncertainty k = 0.502565
        23        24        25        64     9      180.000000       -0.259577         4    ;  uncertainty k = 0.307052
        23        24        25        65     9        0.000000        3.531772         1    ;  uncertainty k = 1.191650
        23        24        25        65     9      180.000000        7.207761         2    ;  uncertainty k = 0.635625
        23        24        25        65     9        0.000000        2.736817         3    ;  uncertainty k = 0.502565
        23        24        25        65     9      180.000000       -0.259577         4    ;  uncertainty k = 0.307052
        23        27        28        29     9        0.000000        3.326444         1    ;  uncertainty k = 0.459357
        23        27        28        29     9      180.000000       10.011343         2    ;  uncertainty k = 0.344998
        23        27        28        29     9        0.000000        0.442665         3    ;  uncertainty k = 0.269863
        23        27        28        29     9      180.000000       -0.091110         4    ;  uncertainty k = 0.236084
        23        27        28        66     9        0.000000        7.167549         1    ;  uncertainty k = 0.936518
        23        27        28        66     9      180.000000        5.887172         2    ;  uncertainty k = 0.471801
        23        27        28        66     9        0.000000        0.747505         3    ;  uncertainty k = 0.321949
        23        27        28        66     9      180.000000       -0.182772         4    ;  uncertainty k = 0.104451
        23        27        31        71     9        0.000000        0.616799         1    ;  uncertainty k = 0.874419
        23        27        31        71     9      180.000000        5.245773         2    ;  uncertainty k = 0.712194
        23        27        31        71     9        0.000000        1.322839         3    ;  uncertainty k = 0.298849
        23        27        31        71     9      180.000000        1.395568         4    ;  uncertainty k = 0.252267
        24        23        22        63     9        0.000000       -0.133101         1    ;  uncertainty k = 0.397786
        24        23        22        63     9      180.000000        8.487982         2    ;  uncertainty k = 0.517806
        24        23        22        63     9        0.000000        1.064603         3    ;  uncertainty k = 0.204946
        24        23        22        63     9      180.000000        1.226506         4    ;  uncertainty k = 0.294498
        24        23        27        28     9        0.000000       -0.505869         1    ;  uncertainty k = 0.979598
        24        23        27        28     9      180.000000        7.547225         2    ;  uncertainty k = 0.954851
        24        23        27        28     9        0.000000        1.284467         3    ;  uncertainty k = 0.426929
        24        23        27        28     9      180.000000        1.539260         4    ;  uncertainty k = 0.357376
        24        23        27        31     9        0.000000        0.599149         1    ;  uncertainty k = 1.503877
        24        23        27        31     9      180.000000        4.970027         2    ;  uncertainty k = 0.551160
        24        23        27        31     9        0.000000        1.106811         3    ;  uncertainty k = 0.371388
        24        23        27        31     9      180.000000        1.662416         4    ;  uncertainty k = 0.133393
        25        24        23        27     9        0.000000        0.111832         1    ;  uncertainty k = 1.358438
        25        24        23        27     9      180.000000        5.315323         2    ;  uncertainty k = 0.331741
        25        24        23        27     9        0.000000        0.426661         3    ;  uncertainty k = 0.343787
        25        24        23        27     9      180.000000        0.152795         4    ;  uncertainty k = 0.290194
        26        24        23        27     9        0.000000       -1.993605         1    ;  uncertainty k = 1.450007
        26        24        23        27     9      180.000000        3.364245         2    ;  uncertainty k = 0.771828
        26        24        23        27     9        0.000000        0.884921         3    ;  uncertainty k = 0.409082
        26        24        23        27     9      180.000000        0.336462         4    ;  uncertainty k = 0.165666
        26        24        25        64     9        0.000000        4.288278         1    ;  uncertainty k = 0.786448
        26        24        25        64     9      180.000000       11.499127         2    ;  uncertainty k = 0.403751
        26        24        25        64     9        0.000000        2.102365         3    ;  uncertainty k = 0.130475
        26        24        25        64     9      180.000000        0.313821         4    ;  uncertainty k = 0.325036
        26        24        25        65     9        0.000000        4.288278         1    ;  uncertainty k = 0.786448
        26        24        25        65     9      180.000000       11.499127         2    ;  uncertainty k = 0.403751
        26        24        25        65     9        0.000000        2.102365         3    ;  uncertainty k = 0.130475
        26        24        25        65     9      180.000000        0.313821         4    ;  uncertainty k = 0.325036
        27        23        22        63     9        0.000000        0.265388         1    ;  uncertainty k = 0.289321
        27        23        22        63     9      180.000000        8.213308         2    ;  uncertainty k = 0.595317
        27        23        22        63     9        0.000000        1.083212         3    ;  uncertainty k = 0.309540
        27        23        22        63     9      180.000000        1.474489         4    ;  uncertainty k = 0.318033
        27        28        29        30     9        0.000000       -0.562461         1    ;  uncertainty k = 0.346238
        27        28        29        30     9      180.000000       -0.031948         2    ;  uncertainty k = 0.270005
        27        28        29        30     9        0.000000        0.711943         3    ;  uncertainty k = 0.225263
        27        28        29        30     9      180.000000        0.299195         4    ;  uncertainty k = 0.062275
        27        28        29        67     9        0.000000       -0.658410         1    ;  uncertainty k = 0.565911
        27        28        29        67     9      180.000000       -1.553539         2    ;  uncertainty k = 0.163608
        27        28        29        67     9        0.000000        0.454394         3    ;  uncertainty k = 0.163895
        27        28        29        67     9      180.000000        0.386179         4    ;  uncertainty k = 0.113783
        28        27        31        71     9        0.000000       -0.191205         1    ;  uncertainty k = 0.291117
        28        27        31        71     9      180.000000        7.772015         2    ;  uncertainty k = 0.728491
        28        27        31        71     9        0.000000        0.751113         3    ;  uncertainty k = 0.163895
        28        27        31        71     9      180.000000        1.117940         4    ;  uncertainty k = 0.380676
        28        29         2        42     9        0.000000        0.006755         1    ;  uncertainty k = 0.289575
        28        29         2        42     9      180.000000       -1.298532         2    ;  uncertainty k = 0.300462
        28        29         2        42     9        0.000000        0.668763         3    ;  uncertainty k = 0.136022
        28        29         2        42     9      180.000000       -0.057119         4    ;  uncertainty k = 0.096396
        28        29        30        68     9        0.000000       -1.329698         1    ;  uncertainty k = 0.466715
        28        29        30        68     9      180.000000       -0.564440         2    ;  uncertainty k = 0.156574
        28        29        30        68     9        0.000000        1.237439         3    ;  uncertainty k = 0.182704
        28        29        30        68     9      180.000000       -0.272430         4    ;  uncertainty k = 0.116260
        28        29        30        69     9        0.000000       -1.329698         1    ;  uncertainty k = 0.466715
        28        29        30        69     9      180.000000       -0.564440         2    ;  uncertainty k = 0.156574
        28        29        30        69     9        0.000000        1.237439         3    ;  uncertainty k = 0.182704
        28        29        30        69     9      180.000000       -0.272430         4    ;  uncertainty k = 0.116260
        28        29        30        70     9        0.000000       -1.329698         1    ;  uncertainty k = 0.466715
        28        29        30        70     9      180.000000       -0.564440         2    ;  uncertainty k = 0.156574
        28        29        30        70     9        0.000000        1.237439         3    ;  uncertainty k = 0.182704
        28        29        30        70     9      180.000000       -0.272430         4    ;  uncertainty k = 0.116260
        29         2         1        39     9        0.000000       -0.848078         1    ;  uncertainty k = 0.214149
        29         2         1        39     9      180.000000       -1.097877         2    ;  uncertainty k = 0.132737
        29         2         1        39     9        0.000000        0.917163         3    ;  uncertainty k = 0.032876
        29         2         1        39     9      180.000000       -0.349620         4    ;  uncertainty k = 0.052457
        29         2         1        40     9        0.000000       -0.848078         1    ;  uncertainty k = 0.214149
        29         2         1        40     9      180.000000       -1.097877         2    ;  uncertainty k = 0.132737
        29         2         1        40     9        0.000000        0.917163         3    ;  uncertainty k = 0.032876
        29         2         1        40     9      180.000000       -0.349620         4    ;  uncertainty k = 0.052457
        29         2         1        41     9        0.000000       -0.848078         1    ;  uncertainty k = 0.214149
        29         2         1        41     9      180.000000       -1.097877         2    ;  uncertainty k = 0.132737
        29         2         1        41     9        0.000000        0.917163         3    ;  uncertainty k = 0.032876
        29         2         1        41     9      180.000000       -0.349620         4    ;  uncertainty k = 0.052457
        29         2         3        43     9        0.000000       -0.900040         1    ;  uncertainty k = 0.939969
        29         2         3        43     9      180.000000       -0.285777         2    ;  uncertainty k = 0.305224
        29         2         3        43     9        0.000000        0.444886         3    ;  uncertainty k = 0.123714
        29         2         3        43     9      180.000000       -0.412786         4    ;  uncertainty k = 0.124074
        29         2         3        44     9        0.000000       -0.900040         1    ;  uncertainty k = 0.939969
        29         2         3        44     9      180.000000       -0.285777         2    ;  uncertainty k = 0.305224
        29         2         3        44     9        0.000000        0.444886         3    ;  uncertainty k = 0.123714
        29         2         3        44     9      180.000000       -0.412786         4    ;  uncertainty k = 0.124074
        29        28        27        31     9        0.000000        2.254987         1    ;  uncertainty k = 1.306463
        29        28        27        31     9      180.000000        8.367920         2    ;  uncertainty k = 0.203281
        29        28        27        31     9        0.000000       -0.056309         3    ;  uncertainty k = 0.176846
        29        28        27        31     9      180.000000       -0.077284         4    ;  uncertainty k = 0.175831
        30        29         2        42     9        0.000000       -1.139205         1    ;  uncertainty k = 0.256496
        30        29         2        42     9      180.000000       -0.352849         2    ;  uncertainty k = 0.213610
        30        29         2        42     9        0.000000        0.180916         3    ;  uncertainty k = 0.148404
        30        29         2        42     9      180.000000       -0.088519         4    ;  uncertainty k = 0.066081
        30        29        28        66     9        0.000000        2.433996         1    ;  uncertainty k = 0.576998
        30        29        28        66     9      180.000000       -1.568934         2    ;  uncertainty k = 0.339094
        30        29        28        66     9        0.000000        0.401679         3    ;  uncertainty k = 0.050327
        30        29        28        66     9      180.000000        0.164986         4    ;  uncertainty k = 0.106993
        31        20        21        62     9        0.000000        0.105656         1    ;  uncertainty k = 0.229364
        31        20        21        62     9      180.000000        6.669801         2    ;  uncertainty k = 0.977795
        31        20        21        62     9        0.000000        1.275937         3    ;  uncertainty k = 0.370425
        31        20        21        62     9      180.000000        1.558847         4    ;  uncertainty k = 0.299554
        31        27        28        66     9        0.000000        2.296744         1    ;  uncertainty k = 1.978338
        31        27        28        66     9      180.000000        6.590057         2    ;  uncertainty k = 0.275629
        31        27        28        66     9        0.000000        0.769515         3    ;  uncertainty k = 0.172614
        31        27        28        66     9      180.000000       -0.386602         4    ;  uncertainty k = 0.091420
        32         4         3        43     9        0.000000        0.343527         1    ;  uncertainty k = 0.320067
        32         4         3        43     9      180.000000        0.061485         2    ;  uncertainty k = 0.445422
        32         4         3        43     9        0.000000       -0.033617         3    ;  uncertainty k = 0.179886
        32         4         3        43     9      180.000000        0.286078         4    ;  uncertainty k = 0.041711
        32         4         3        44     9        0.000000        0.343527         1    ;  uncertainty k = 0.320067
        32         4         3        44     9      180.000000        0.061485         2    ;  uncertainty k = 0.445422
        32         4         3        44     9        0.000000       -0.033617         3    ;  uncertainty k = 0.179886
        32         4         3        44     9      180.000000        0.286078         4    ;  uncertainty k = 0.041711
        32         4         5        45     9        0.000000        0.514877         1    ;  uncertainty k = 0.407201
        32         4         5        45     9      180.000000        0.076234         2    ;  uncertainty k = 0.356655
        32         4         5        45     9        0.000000        0.062782         3    ;  uncertainty k = 0.214287
        32         4         5        45     9      180.000000        0.296187         4    ;  uncertainty k = 0.047883
        32         4         5        46     9        0.000000        0.514877         1    ;  uncertainty k = 0.407201
        32         4         5        46     9      180.000000        0.076234         2    ;  uncertainty k = 0.356655
        32         4         5        46     9        0.000000        0.062782         3    ;  uncertainty k = 0.214287
        32         4         5        46     9      180.000000        0.296187         4    ;  uncertainty k = 0.047883
        32        34        35        36     9        0.000000       -2.306260         1    ;  uncertainty k = 1.992683
        32        34        35        36     9      180.000000        1.039067         2    ;  uncertainty k = 0.371717
        32        34        35        36     9        0.000000        0.675711         3    ;  uncertainty k = 0.285331
        32        34        35        36     9      180.000000        0.061483         4    ;  uncertainty k = 0.175964
        32        34        35        73     9        0.000000        1.263675         1    ;  uncertainty k = 0.497557
        32        34        35        73     9      180.000000       -0.405383         2    ;  uncertainty k = 0.268748
        32        34        35        73     9        0.000000        0.658764         3    ;  uncertainty k = 0.161385
        32        34        35        73     9      180.000000        0.079193         4    ;  uncertainty k = 0.142508
        32        34        35        74     9        0.000000        1.263675         1    ;  uncertainty k = 0.497557
        32        34        35        74     9      180.000000       -0.405383         2    ;  uncertainty k = 0.268748
        32        34        35        74     9        0.000000        0.658764         3    ;  uncertainty k = 0.161385
        32        34        35        74     9      180.000000        0.079193         4    ;  uncertainty k = 0.142508
        32        34        38        37     9        0.000000        3.171087         1    ;  uncertainty k = 1.796659
        32        34        38        37     9      180.000000       -1.441863         2    ;  uncertainty k = 0.459584
        32        34        38        37     9        0.000000        1.147239         3    ;  uncertainty k = 0.344470
        32        34        38        37     9      180.000000        0.415034         4    ;  uncertainty k = 0.475798
        32        34        38        79     9        0.000000        4.157934         1    ;  uncertainty k = 2.448804
        32        34        38        79     9      180.000000       -0.286095         2    ;  uncertainty k = 0.903254
        32        34        38        79     9        0.000000        0.463172         3    ;  uncertainty k = 0.119174
        32        34        38        79     9      180.000000        0.053237         4    ;  uncertainty k = 0.120280
        32        34        38        80     9        0.000000        4.157934         1    ;  uncertainty k = 2.448804
        32        34        38        80     9      180.000000       -0.286095         2    ;  uncertainty k = 0.903254
        32        34        38        80     9        0.000000        0.463172         3    ;  uncertainty k = 0.119174
        32        34        38        80     9      180.000000        0.053237         4    ;  uncertainty k = 0.120280
        33        32        34        35     9        0.000000       -1.544334         1    ;  uncertainty k = 0.717513
        33        32        34        35     9      180.000000        3.668648         2    ;  uncertainty k = 0.438467
        33        32        34        35     9        0.000000        1.230247         3    ;  uncertainty k = 0.250361
        33        32        34        35     9      180.000000        0.498303         4    ;  uncertainty k = 0.128021
        33        32        34        38     9        0.000000        4.229474         1    ;  uncertainty k = 1.204210
        33        32        34        38     9      180.000000        5.116196         2    ;  uncertainty k = 0.755238
        33        32        34        38     9        0.000000        0.640595         3    ;  uncertainty k = 0.367014
        33        32        34        38     9      180.000000        0.108993         4    ;  uncertainty k = 0.257755
        33        32        34        72     9        0.000000       -2.045149         1    ;  uncertainty k = 0.791349
        33        32        34        72     9      180.000000        2.626609         2    ;  uncertainty k = 0.384681
        33        32        34        72     9        0.000000        1.075960         3    ;  uncertainty k = 0.423059
        33        32        34        72     9      180.000000        0.159332         4    ;  uncertainty k = 0.078996
        34        35        36        37     9        0.000000       -1.442853         1    ;  uncertainty k = 0.896500
        34        35        36        37     9      180.000000        4.509240         2    ;  uncertainty k = 1.285603
        34        35        36        37     9        0.000000        0.184187         3    ;  uncertainty k = 0.474597
        34        35        36        37     9      180.000000       -2.036417         4    ;  uncertainty k = 0.649182
        34        35        36        75     9        0.000000       -0.807485         1    ;  uncertainty k = 0.476139
        34        35        36        75     9      180.000000       -0.492314         2    ;  uncertainty k = 0.140478
        34        35        36        75     9        0.000000        0.678361         3    ;  uncertainty k = 0.142796
        34        35        36        75     9      180.000000        0.139563         4    ;  uncertainty k = 0.084645
        34        35        36        76     9        0.000000       -0.807485         1    ;  uncertainty k = 0.476139
        34        35        36        76     9      180.000000       -0.492314         2    ;  uncertainty k = 0.140478
        34        35        36        76     9        0.000000        0.678361         3    ;  uncertainty k = 0.142796
        34        35        36        76     9      180.000000        0.139563         4    ;  uncertainty k = 0.084645
        34        38        37        36     9        0.000000       -2.267014         1    ;  uncertainty k = 1.188382
        34        38        37        36     9      180.000000        3.104665         2    ;  uncertainty k = 1.015040
        34        38        37        36     9        0.000000        0.929810         3    ;  uncertainty k = 0.422123
        34        38        37        36     9      180.000000       -1.084498         4    ;  uncertainty k = 0.553717
        34        38        37        77     9        0.000000       -0.054773         1    ;  uncertainty k = 0.503440
        34        38        37        77     9      180.000000       -0.376200         2    ;  uncertainty k = 0.253117
        34        38        37        77     9        0.000000        0.809873         3    ;  uncertainty k = 0.095797
        34        38        37        77     9      180.000000        0.149090         4    ;  uncertainty k = 0.207942
        34        38        37        78     9        0.000000       -0.054773         1    ;  uncertainty k = 0.503440
        34        38        37        78     9      180.000000       -0.376200         2    ;  uncertainty k = 0.253117
        34        38        37        78     9        0.000000        0.809873         3    ;  uncertainty k = 0.095797
        34        38        37        78     9      180.000000        0.149090         4    ;  uncertainty k = 0.207942
        35        34        38        37     9        0.000000       -1.307100         1    ;  uncertainty k = 1.399514
        35        34        38        37     9      180.000000        1.808796         2    ;  uncertainty k = 1.230234
        35        34        38        37     9        0.000000        1.213770         3    ;  uncertainty k = 0.603866
        35        34        38        37     9      180.000000       -0.531238         4    ;  uncertainty k = 0.545904
        35        34        38        79     9        0.000000       -0.696771         1    ;  uncertainty k = 1.229144
        35        34        38        79     9      180.000000        0.528664         2    ;  uncertainty k = 0.564456
        35        34        38        79     9        0.000000        0.765434         3    ;  uncertainty k = 0.228497
        35        34        38        79     9      180.000000       -0.043651         4    ;  uncertainty k = 0.137435
        35        34        38        80     9        0.000000       -0.696771         1    ;  uncertainty k = 1.229144
        35        34        38        80     9      180.000000        0.528664         2    ;  uncertainty k = 0.564456
        35        34        38        80     9        0.000000        0.765434         3    ;  uncertainty k = 0.228497
        35        34        38        80     9      180.000000       -0.043651         4    ;  uncertainty k = 0.137435
        35        36        37        38     9        0.000000       -1.292036         1    ;  uncertainty k = 0.528616
        35        36        37        38     9      180.000000        1.728000         2    ;  uncertainty k = 1.280159
        35        36        37        38     9        0.000000        1.191671         3    ;  uncertainty k = 0.589920
        35        36        37        38     9      180.000000       -1.857643         4    ;  uncertainty k = 0.120445
        35        36        37        77     9        0.000000       -1.115764         1    ;  uncertainty k = 0.541629
        35        36        37        77     9      180.000000       -0.398858         2    ;  uncertainty k = 0.539466
        35        36        37        77     9        0.000000        0.570011         3    ;  uncertainty k = 0.128769
        35        36        37        77     9      180.000000        0.088772         4    ;  uncertainty k = 0.159097
        35        36        37        78     9        0.000000       -1.115764         1    ;  uncertainty k = 0.541629
        35        36        37        78     9      180.000000       -0.398858         2    ;  uncertainty k = 0.539466
        35        36        37        78     9        0.000000        0.570011         3    ;  uncertainty k = 0.128769
        35        36        37        78     9      180.000000        0.088772         4    ;  uncertainty k = 0.159097
        36        35        34        38     9        0.000000        0.073221         1    ;  uncertainty k = 0.629870
        36        35        34        38     9      180.000000        1.081783         2    ;  uncertainty k = 0.771925
        36        35        34        38     9        0.000000        1.262981         3    ;  uncertainty k = 0.711507
        36        35        34        38     9      180.000000       -1.027759         4    ;  uncertainty k = 0.162414
        36        35        34        72     9        0.000000       -1.645581         1    ;  uncertainty k = 1.054857
        36        35        34        72     9      180.000000        0.543052         2    ;  uncertainty k = 0.221698
        36        35        34        72     9        0.000000        0.628199         3    ;  uncertainty k = 0.132514
        36        35        34        72     9      180.000000        0.033194         4    ;  uncertainty k = 0.032399
        36        37        38        79     9        0.000000       -1.068085         1    ;  uncertainty k = 0.972471
        36        37        38        79     9      180.000000        0.359951         2    ;  uncertainty k = 0.595793
        36        37        38        79     9        0.000000        0.800634         3    ;  uncertainty k = 0.149692
        36        37        38        79     9      180.000000        0.003449         4    ;  uncertainty k = 0.210805
        36        37        38        80     9        0.000000       -1.068085         1    ;  uncertainty k = 0.972471
        36        37        38        80     9      180.000000        0.359951         2    ;  uncertainty k = 0.595793
        36        37        38        80     9        0.000000        0.800634         3    ;  uncertainty k = 0.149692
        36        37        38        80     9      180.000000        0.003449         4    ;  uncertainty k = 0.210805
        37        36        35        73     9        0.000000       -1.413888         1    ;  uncertainty k = 0.537725
        37        36        35        73     9      180.000000       -0.383013         2    ;  uncertainty k = 0.201587
        37        36        35        73     9        0.000000        0.686780         3    ;  uncertainty k = 0.090574
        37        36        35        73     9      180.000000        0.172552         4    ;  uncertainty k = 0.086084
        37        36        35        74     9        0.000000       -1.413888         1    ;  uncertainty k = 0.537725
        37        36        35        74     9      180.000000       -0.383013         2    ;  uncertainty k = 0.201587
        37        36        35        74     9        0.000000        0.686780         3    ;  uncertainty k = 0.090574
        37        36        35        74     9      180.000000        0.172552         4    ;  uncertainty k = 0.086084
        37        38        34        72     9        0.000000       -0.860236         1    ;  uncertainty k = 0.383437
        37        38        34        72     9      180.000000        0.519152         2    ;  uncertainty k = 0.444583
        37        38        34        72     9        0.000000        0.831639         3    ;  uncertainty k = 0.139138
        37        38        34        72     9      180.000000        0.052882         4    ;  uncertainty k = 0.174481
        38        34        35        73     9        0.000000       -1.009703         1    ;  uncertainty k = 0.715600
        38        34        35        73     9      180.000000       -0.491790         2    ;  uncertainty k = 0.679656
        38        34        35        73     9        0.000000        0.931604         3    ;  uncertainty k = 0.079964
        38        34        35        73     9      180.000000       -0.000733         4    ;  uncertainty k = 0.158489
        38        34        35        74     9        0.000000       -1.009703         1    ;  uncertainty k = 0.715600
        38        34        35        74     9      180.000000       -0.491790         2    ;  uncertainty k = 0.679656
        38        34        35        74     9        0.000000        0.931604         3    ;  uncertainty k = 0.079964
        38        34        35        74     9      180.000000       -0.000733         4    ;  uncertainty k = 0.158489
        38        37        36        75     9        0.000000       -1.134087         1    ;  uncertainty k = 0.747346
        38        37        36        75     9      180.000000       -0.973546         2    ;  uncertainty k = 0.721741
        38        37        36        75     9        0.000000        0.967219         3    ;  uncertainty k = 0.132692
        38        37        36        75     9      180.000000        0.027576         4    ;  uncertainty k = 0.098479
        38        37        36        76     9        0.000000       -1.134087         1    ;  uncertainty k = 0.747346
        38        37        36        76     9      180.000000       -0.973546         2    ;  uncertainty k = 0.721741
        38        37        36        76     9        0.000000        0.967219         3    ;  uncertainty k = 0.132692
        38        37        36        76     9      180.000000        0.027576         4    ;  uncertainty k = 0.098479
        39         1         2        42     9        0.000000        1.447816         1    ;  uncertainty k = 0.320959
        39         1         2        42     9      180.000000       -1.150814         2    ;  uncertainty k = 0.093779
        39         1         2        42     9        0.000000        0.257341         3    ;  uncertainty k = 0.058855
        39         1         2        42     9      180.000000       -0.017169         4    ;  uncertainty k = 0.061384
        40         1         2        42     9        0.000000        1.447816         1    ;  uncertainty k = 0.320959
        40         1         2        42     9      180.000000       -1.150814         2    ;  uncertainty k = 0.093779
        40         1         2        42     9        0.000000        0.257341         3    ;  uncertainty k = 0.058855
        40         1         2        42     9      180.000000       -0.017169         4    ;  uncertainty k = 0.061384
        41         1         2        42     9        0.000000        1.447816         1    ;  uncertainty k = 0.320959
        41         1         2        42     9      180.000000       -1.150814         2    ;  uncertainty k = 0.093779
        41         1         2        42     9        0.000000        0.257341         3    ;  uncertainty k = 0.058855
        41         1         2        42     9      180.000000       -0.017169         4    ;  uncertainty k = 0.061384
        42         2         3        43     9        0.000000        1.328704         1    ;  uncertainty k = 0.199558
        42         2         3        43     9      180.000000       -0.711921         2    ;  uncertainty k = 0.192459
        42         2         3        43     9        0.000000       -0.220259         3    ;  uncertainty k = 0.118742
        42         2         3        43     9      180.000000       -0.106717         4    ;  uncertainty k = 0.057505
        42         2         3        44     9        0.000000        1.328704         1    ;  uncertainty k = 0.199558
        42         2         3        44     9      180.000000       -0.711921         2    ;  uncertainty k = 0.192459
        42         2         3        44     9        0.000000       -0.220259         3    ;  uncertainty k = 0.118742
        42         2         3        44     9      180.000000       -0.106717         4    ;  uncertainty k = 0.057505
        42         2        29        67     9        0.000000        1.617735         1    ;  uncertainty k = 0.284782
        42         2        29        67     9      180.000000       -1.077502         2    ;  uncertainty k = 0.182436
        42         2        29        67     9        0.000000       -0.438351         3    ;  uncertainty k = 0.101905
        42         2        29        67     9      180.000000       -0.292175         4    ;  uncertainty k = 0.057461
        45         5         6        47     9        0.000000        0.455188         1    ;  uncertainty k = 0.290090
        45         5         6        47     9      180.000000       -0.393123         2    ;  uncertainty k = 0.152204
        45         5         6        47     9        0.000000        0.268289         3    ;  uncertainty k = 0.042819
        45         5         6        47     9      180.000000        0.057830         4    ;  uncertainty k = 0.080577
        45         5         6        48     9        0.000000        0.455188         1    ;  uncertainty k = 0.290090
        45         5         6        48     9      180.000000       -0.393123         2    ;  uncertainty k = 0.152204
        45         5         6        48     9        0.000000        0.268289         3    ;  uncertainty k = 0.042819
        45         5         6        48     9      180.000000        0.057830         4    ;  uncertainty k = 0.080577
        46         5         6        47     9        0.000000        0.455188         1    ;  uncertainty k = 0.290090
        46         5         6        47     9      180.000000       -0.393123         2    ;  uncertainty k = 0.152204
        46         5         6        47     9        0.000000        0.268289         3    ;  uncertainty k = 0.042819
        46         5         6        47     9      180.000000        0.057830         4    ;  uncertainty k = 0.080577
        46         5         6        48     9        0.000000        0.455188         1    ;  uncertainty k = 0.290090
        46         5         6        48     9      180.000000       -0.393123         2    ;  uncertainty k = 0.152204
        46         5         6        48     9        0.000000        0.268289         3    ;  uncertainty k = 0.042819
        46         5         6        48     9      180.000000        0.057830         4    ;  uncertainty k = 0.080577
        62        21        22        63     9        0.000000       -0.161455         1    ;  uncertainty k = 0.314302
        62        21        22        63     9      180.000000        7.599374         2    ;  uncertainty k = 0.529227
        62        21        22        63     9        0.000000       -0.373991         3    ;  uncertainty k = 0.212622
        62        21        22        63     9      180.000000        0.361659         4    ;  uncertainty k = 0.257633
        66        28        29        67     9        0.000000        2.221821         1    ;  uncertainty k = 0.739057
        66        28        29        67     9      180.000000       -2.265136         2    ;  uncertainty k = 0.300610
        66        28        29        67     9        0.000000        0.053515         3    ;  uncertainty k = 0.136663
        66        28        29        67     9      180.000000        0.070717         4    ;  uncertainty k = 0.089160
        67        29        30        68     9        0.000000        0.945145         1    ;  uncertainty k = 0.353214
        67        29        30        68     9      180.000000       -1.150644         2    ;  uncertainty k = 0.182801
        67        29        30        68     9        0.000000        0.288433         3    ;  uncertainty k = 0.055741
        67        29        30        68     9      180.000000       -0.057613         4    ;  uncertainty k = 0.040913
        67        29        30        69     9        0.000000        0.945145         1    ;  uncertainty k = 0.353214
        67        29        30        69     9      180.000000       -1.150644         2    ;  uncertainty k = 0.182801
        67        29        30        69     9        0.000000        0.288433         3    ;  uncertainty k = 0.055741
        67        29        30        69     9      180.000000       -0.057613         4    ;  uncertainty k = 0.040913
        67        29        30        70     9        0.000000        0.945145         1    ;  uncertainty k = 0.353214
        67        29        30        70     9      180.000000       -1.150644         2    ;  uncertainty k = 0.182801
        67        29        30        70     9        0.000000        0.288433         3    ;  uncertainty k = 0.055741
        67        29        30        70     9      180.000000       -0.057613         4    ;  uncertainty k = 0.040913
        72        34        35        73     9        0.000000        0.664754         1    ;  uncertainty k = 0.925505
        72        34        35        73     9      180.000000       -0.633021         2    ;  uncertainty k = 0.372583
        72        34        35        73     9        0.000000        0.463130         3    ;  uncertainty k = 0.075994
        72        34        35        73     9      180.000000        0.083054         4    ;  uncertainty k = 0.063457
        72        34        35        74     9        0.000000        0.664754         1    ;  uncertainty k = 0.925505
        72        34        35        74     9      180.000000       -0.633021         2    ;  uncertainty k = 0.372583
        72        34        35        74     9        0.000000        0.463130         3    ;  uncertainty k = 0.075994
        72        34        35        74     9      180.000000        0.083054         4    ;  uncertainty k = 0.063457
        72        34        38        79     9        0.000000        0.690383         1    ;  uncertainty k = 0.438114
        72        34        38        79     9      180.000000       -0.492899         2    ;  uncertainty k = 0.310735
        72        34        38        79     9        0.000000        0.401748         3    ;  uncertainty k = 0.069560
        72        34        38        79     9      180.000000        0.191109         4    ;  uncertainty k = 0.065556
        72        34        38        80     9        0.000000        0.690383         1    ;  uncertainty k = 0.438114
        72        34        38        80     9      180.000000       -0.492899         2    ;  uncertainty k = 0.310735
        72        34        38        80     9        0.000000        0.401748         3    ;  uncertainty k = 0.069560
        72        34        38        80     9      180.000000        0.191109         4    ;  uncertainty k = 0.065556
        73        35        36        75     9        0.000000        1.529393         1    ;  uncertainty k = 0.360909
        73        35        36        75     9      180.000000       -0.158969         2    ;  uncertainty k = 0.128836
        73        35        36        75     9        0.000000        0.648734         3    ;  uncertainty k = 0.134473
        73        35        36        75     9      180.000000        0.090393         4    ;  uncertainty k = 0.056129
        73        35        36        76     9        0.000000        1.529393         1    ;  uncertainty k = 0.360909
        73        35        36        76     9      180.000000       -0.158969         2    ;  uncertainty k = 0.128836
        73        35        36        76     9        0.000000        0.648734         3    ;  uncertainty k = 0.134473
        73        35        36        76     9      180.000000        0.090393         4    ;  uncertainty k = 0.056129
        74        35        36        75     9        0.000000        1.529393         1    ;  uncertainty k = 0.360909
        74        35        36        75     9      180.000000       -0.158969         2    ;  uncertainty k = 0.128836
        74        35        36        75     9        0.000000        0.648734         3    ;  uncertainty k = 0.134473
        74        35        36        75     9      180.000000        0.090393         4    ;  uncertainty k = 0.056129
        74        35        36        76     9        0.000000        1.529393         1    ;  uncertainty k = 0.360909
        74        35        36        76     9      180.000000       -0.158969         2    ;  uncertainty k = 0.128836
        74        35        36        76     9        0.000000        0.648734         3    ;  uncertainty k = 0.134473
        74        35        36        76     9      180.000000        0.090393         4    ;  uncertainty k = 0.056129
        75        36        37        77     9        0.000000        0.801494         1    ;  uncertainty k = 0.465336
        75        36        37        77     9      180.000000       -0.296870         2    ;  uncertainty k = 0.266519
        75        36        37        77     9        0.000000        0.560808         3    ;  uncertainty k = 0.122872
        75        36        37        77     9      180.000000        0.107221         4    ;  uncertainty k = 0.097551
        75        36        37        78     9        0.000000        0.801494         1    ;  uncertainty k = 0.465336
        75        36        37        78     9      180.000000       -0.296870         2    ;  uncertainty k = 0.266519
        75        36        37        78     9        0.000000        0.560808         3    ;  uncertainty k = 0.122872
        75        36        37        78     9      180.000000        0.107221         4    ;  uncertainty k = 0.097551
        76        36        37        77     9        0.000000        0.801494         1    ;  uncertainty k = 0.465336
        76        36        37        77     9      180.000000       -0.296870         2    ;  uncertainty k = 0.266519
        76        36        37        77     9        0.000000        0.560808         3    ;  uncertainty k = 0.122872
        76        36        37        77     9      180.000000        0.107221         4    ;  uncertainty k = 0.097551
        76        36        37        78     9        0.000000        0.801494         1    ;  uncertainty k = 0.465336
        76        36        37        78     9      180.000000       -0.296870         2    ;  uncertainty k = 0.266519
        76        36        37        78     9        0.000000        0.560808         3    ;  uncertainty k = 0.122872
        76        36        37        78     9      180.000000        0.107221         4    ;  uncertainty k = 0.097551
        77        37        38        79     9        0.000000        0.166984         1    ;  uncertainty k = 0.430940
        77        37        38        79     9      180.000000       -0.373655         2    ;  uncertainty k = 0.245131
        77        37        38        79     9        0.000000        0.599963         3    ;  uncertainty k = 0.117935
        77        37        38        79     9      180.000000        0.147824         4    ;  uncertainty k = 0.069669
        77        37        38        80     9        0.000000        0.166984         1    ;  uncertainty k = 0.430940
        77        37        38        80     9      180.000000       -0.373655         2    ;  uncertainty k = 0.245131
        77        37        38        80     9        0.000000        0.599963         3    ;  uncertainty k = 0.117935
        77        37        38        80     9      180.000000        0.147824         4    ;  uncertainty k = 0.069669
        78        37        38        79     9        0.000000        0.166984         1    ;  uncertainty k = 0.430940
        78        37        38        79     9      180.000000       -0.373655         2    ;  uncertainty k = 0.245131
        78        37        38        79     9        0.000000        0.599963         3    ;  uncertainty k = 0.117935
        78        37        38        79     9      180.000000        0.147824         4    ;  uncertainty k = 0.069669
        78        37        38        80     9        0.000000        0.166984         1    ;  uncertainty k = 0.430940
        78        37        38        80     9      180.000000       -0.373655         2    ;  uncertainty k = 0.245131
        78        37        38        80     9        0.000000        0.599963         3    ;  uncertainty k = 0.117935
        78        37        38        80     9      180.000000        0.147824         4    ;  uncertainty k = 0.069669

[ dihedrals ] ; impropers
;       ai        aj        ak        al funct           phase               k        pn
         7         6         8        19     4      180.000000        3.400104         2    ;  uncertainty k = 0.292472
         7         8        19         6     4      180.000000        3.400104         2    ;  uncertainty k = 0.292472
         7        19         6         8     4      180.000000        3.400104         2    ;  uncertainty k = 0.292472
         8         7         9        10     4      180.000000        6.510725         2    ;  uncertainty k = 0.209370
         8         9        10         7     4      180.000000        6.510725         2    ;  uncertainty k = 0.209370
         8        10         7         9     4      180.000000        6.510725         2    ;  uncertainty k = 0.209370
        11        10        12        19     4      180.000000        6.724632         2    ;  uncertainty k = 0.207720
        11        12        19        10     4      180.000000        6.724632         2    ;  uncertainty k = 0.207720
        11        19        10        12     4      180.000000        6.724632         2    ;  uncertainty k = 0.207720
        17        10        16        18     4      180.000000       55.461398         2    ;  uncertainty k = 0.044608
        17        16        18        10     4      180.000000       55.461398         2    ;  uncertainty k = 0.044608
        17        18        10        16     4      180.000000       55.461398         2    ;  uncertainty k = 0.044608
        19         7        11        20     4      180.000000        1.607231         2    ;  uncertainty k = 1.153895
        19        11        20         7     4      180.000000        1.607231         2    ;  uncertainty k = 1.153895
        19        20         7        11     4      180.000000        1.607231         2    ;  uncertainty k = 1.153895
        20        19        21        31     4      180.000000       17.332178         2    ;  uncertainty k = 0.029020
        20        21        31        19     4      180.000000       17.332178         2    ;  uncertainty k = 0.029020
        20        31        19        21     4      180.000000       17.332178         2    ;  uncertainty k = 0.029020
        21        20        22        62     4      180.000000        1.764889         2    ;  uncertainty k = 0.320932
        21        22        62        20     4      180.000000        1.764889         2    ;  uncertainty k = 0.320932
        21        62        20        22     4      180.000000        1.764889         2    ;  uncertainty k = 0.320932
        22        21        23        63     4      180.000000        4.683355         2    ;  uncertainty k = 0.302416
        22        23        63        21     4      180.000000        4.683355         2    ;  uncertainty k = 0.302416
        22        63        21        23     4      180.000000        4.683355         2    ;  uncertainty k = 0.302416
        23        22        24        27     4      180.000000        6.654384         2    ;  uncertainty k = 0.326303
        23        24        27        22     4      180.000000        6.654384         2    ;  uncertainty k = 0.326303
        23        27        22        24     4      180.000000        6.654384         2    ;  uncertainty k = 0.326303
        24        23        25        26     4      180.000000       54.206414         2    ;  uncertainty k = 0.049320
        24        25        26        23     4      180.000000       54.206414         2    ;  uncertainty k = 0.049320
        24        26        23        25     4      180.000000       54.206414         2    ;  uncertainty k = 0.049320
        27        23        28        31     4      180.000000       25.218781         2    ;  uncertainty k = 0.108191
        27        28        31        23     4      180.000000       25.218781         2    ;  uncertainty k = 0.108191
        27        31        23        28     4      180.000000       25.218781         2    ;  uncertainty k = 0.108191
        28        27        29        66     4      180.000000        0.241697         2    ;  uncertainty k = 0.540451
        28        29        66        27     4      180.000000        0.241697         2    ;  uncertainty k = 0.540451
        28        66        27        29     4      180.000000        0.241697         2    ;  uncertainty k = 0.540451
        31        20        27        71     4      180.000000        1.958089         2    ;  uncertainty k = 0.523534
        31        27        71        20     4      180.000000        1.958089         2    ;  uncertainty k = 0.523534
        31        71        20        27     4      180.000000        1.958089         2    ;  uncertainty k = 0.523534
        32         4        33        34     4      180.000000       48.285726         2    ;  uncertainty k = 0.060862
        32        33        34         4     4      180.000000       48.285726         2    ;  uncertainty k = 0.060862
        32        34         4        33     4      180.000000       48.285726         2    ;  uncertainty k = 0.060862

[ pairs ]
;       ai        aj funct
         1         4     1
         1        28     1
         1        30     1
         1        43     1
         1        44     1
         1        67     1
         2         5     1
         2        27     1
         2        32     1
         2        66     1
         2        68     1
         2        69     1
         2        70     1
         3         6     1
         3        28     1
         3        30     1
         3        33     1
         3        34     1
         3        39     1
         3        40     1
         3        41     1
         3        45     1
         3        46     1
         3        67     1
         4         7     1
         4        29     1
         4        35     1
         4        38     1
         4        42     1
         4        47     1
         4        48     1
         4        72     1
         5         8     1
         5        19     1
         5        33     1
         5        34     1
         5        43     1
         5        44     1
         6         9     1
         6        10     1
         6        11     1
         6        20     1
         6        32     1
         7        12     1
         7        17     1
         7        21     1
         7        31     1
         7        45     1
         7        46     1
         7        49     1
         7        50     1
         7        51     1
         8        12     1
         8        16     1
         8        18     1
         8        20     1
         8        47     1
         8        48     1
         9        11     1
         9        17     1
         9        19     1
        10        13     1
        10        20     1
        10        49     1
        10        50     1
        10        51     1
        10        52     1
        10        53     1
        10        60     1
        10        61     1
        11        14     1
        11        15     1
        11        16     1
        11        18     1
        11        21     1
        11        31     1
        12        17     1
        12        20     1
        12        54     1
        12        55     1
        12        56     1
        12        57     1
        12        58     1
        12        59     1
        12        60     1
        12        61     1
        13        18     1
        13        19     1
        14        17     1
        14        52     1
        14        53     1
        14        57     1
        14        58     1
        14        59     1
        14        60     1
        14        61     1
        15        17     1
        15        52     1
        15        53     1
        15        54     1
        15        55     1
        15        56     1
        15        60     1
        15        61     1
        16        52     1
        16        53     1
        16        54     1
        16        55     1
        16        56     1
        16        57     1
        16        58     1
        16        59     1
        17        19     1
        18        60     1
        18        61     1
        19        22     1
        19        27     1
        19        47     1
        19        48     1
        19        52     1
        19        53     1
        19        62     1
        19        71     1
        20        23     1
        20        28     1
        20        63     1
        21        24     1
        21        27     1
        21        71     1
        22        25     1
        22        26     1
        22        28     1
        22        31     1
        23        29     1
        23        62     1
        23        64     1
        23        65     1
        23        66     1
        23        71     1
        24        28     1
        24        31     1
        24        63     1
        25        27     1
        26        27     1
        26        64     1
        26        65     1
        27        30     1
        27        63     1
        27        67     1
        28        42     1
        28        68     1
        28        69     1
        28        70     1
        28        71     1
        29        31     1
        29        39     1
        29        40     1
        29        41     1
        29        43     1
        29        44     1
        30        42     1
        30        66     1
        31        62     1
        31        66     1
        32        36     1
        32        37     1
        32        43     1
        32        44     1
        32        45     1
        32        46     1
        32        73     1
        32        74     1
        32        79     1
        32        80     1
        33        35     1
        33        38     1
        33        72     1
        34        75     1
        34        76     1
        34        77     1
        34        78     1
        35        77     1
        35        78     1
        35        79     1
        35        80     1
        36        72     1
        36        79     1
        36        80     1
        37        72     1
        37        73     1
        37        74     1
        38        73     1
        38        74     1
        38        75     1
        38        76     1
        39        42     1
        40        42     1
        41        42     1
        42        43     1
        42        44     1
        42        67     1
        45        47     1
        45        48     1
        46        47     1
        46        48     1
        62        63     1
        66        67     1
        67        68     1
        67        69     1
        67        70     1
        72        73     1
        72        74     1
        72        79     1
        72        80     1
        73        75     1
        73        76     1
        74        75     1
        74        76     1
        75        77     1
        75        78     1
        76        77     1
        76        78     1
        77        79     1
        77        80     1
        78        79     1
        78        80     1
