; ITP file created by ByteFF-joint-25, 2025-07-14 11:32:30.617688

[ atomtypes ]
;name           bonded.type        at.num        mass        charge   ptype           sigma         epsilon
 c0bf                                   6      0.0000       0.00000       A     3.39771e-01     4.50975e-01    ;  uncertainty sigma = 0.000006, epsilon = 0.000758
 c1bf                                   6      0.0000       0.00000       A     3.31511e-01     4.12736e-01    ;  uncertainty sigma = 0.000007, epsilon = 0.000929
 c2bf                                   6      0.0000       0.00000       A     3.31519e-01     4.13686e-01    ;  uncertainty sigma = 0.000011, epsilon = 0.000540
 c3bf                                   6      0.0000       0.00000       A     3.39733e-01     4.50549e-01    ;  uncertainty sigma = 0.000008, epsilon = 0.000969
 c4bf                                   6      0.0000       0.00000       A     3.39772e-01     4.51370e-01    ;  uncertainty sigma = 0.000018, epsilon = 0.000969
 c5bf                                   6      0.0000       0.00000       A     3.39774e-01     4.51188e-01    ;  uncertainty sigma = 0.000015, epsilon = 0.001198
 n6bf                                   7      0.0000       0.00000       A     2.58965e-01     1.06536e+01    ;  uncertainty sigma = 0.000116, epsilon = 0.004425
 c7bf                                   6      0.0000       0.00000       A     3.39793e-01     4.51430e-01    ;  uncertainty sigma = 0.000013, epsilon = 0.001723
 c8bf                                   6      0.0000       0.00000       A     3.39709e-01     4.50583e-01    ;  uncertainty sigma = 0.000008, epsilon = 0.001250
 n9bf                                   7      0.0000       0.00000       A     3.27829e-01     6.43265e-01    ;  uncertainty sigma = 0.000082, epsilon = 0.005095
 c10bf                                  6      0.0000       0.00000       A     3.31574e-01     4.13003e-01    ;  uncertainty sigma = 0.000035, epsilon = 0.000996
 c11bf                                  6      0.0000       0.00000       A     3.31530e-01     4.13517e-01    ;  uncertainty sigma = 0.000013, epsilon = 0.001250
 c12bf                                  6      0.0000       0.00000       A     3.31548e-01     4.13199e-01    ;  uncertainty sigma = 0.000012, epsilon = 0.001174
 c13bf                                  6      0.0000       0.00000       A     3.31527e-01     4.13250e-01    ;  uncertainty sigma = 0.000006, epsilon = 0.000602
 c14bf                                  6      0.0000       0.00000       A     3.31513e-01     4.13571e-01    ;  uncertainty sigma = 0.000004, epsilon = 0.001064
 c15bf                                  6      0.0000       0.00000       A     3.31512e-01     4.12996e-01    ;  uncertainty sigma = 0.000021, epsilon = 0.002020
 c16bf                                  6      0.0000       0.00000       A     3.31599e-01     4.13237e-01    ;  uncertainty sigma = 0.000040, epsilon = 0.000629
 n17bf                                  7      0.0000       0.00000       A     3.36058e-01     3.53914e-01    ;  uncertainty sigma = 0.000035, epsilon = 0.002199
 o18bf                                  8      0.0000       0.00000       A     3.04824e-01     6.12666e-01    ;  uncertainty sigma = 0.000020, epsilon = 0.001529
 n19bf                                  7      0.0000       0.00000       A     3.20640e-01     8.55543e-01    ;  uncertainty sigma = 0.000043, epsilon = 0.001517
 c20bf                                  6      0.0000       0.00000       A     3.31491e-01     4.12753e-01    ;  uncertainty sigma = 0.000011, epsilon = 0.001565
 c21bf                                  6      0.0000       0.00000       A     3.31525e-01     4.12979e-01    ;  uncertainty sigma = 0.000017, epsilon = 0.000933
 c22bf                                  6      0.0000       0.00000       A     3.31520e-01     4.13800e-01    ;  uncertainty sigma = 0.000012, epsilon = 0.000860
 o23bf                                  8      0.0000       0.00000       A     3.04813e-01     6.11403e-01    ;  uncertainty sigma = 0.000026, epsilon = 0.002112
 c24bf                                  6      0.0000       0.00000       A     3.39794e-01     4.50514e-01    ;  uncertainty sigma = 0.000014, epsilon = 0.001647
 c25bf                                  6      0.0000       0.00000       A     3.39757e-01     4.49586e-01    ;  uncertainty sigma = 0.000020, epsilon = 0.001126
 c26bf                                  6      0.0000       0.00000       A     3.39753e-01     4.50877e-01    ;  uncertainty sigma = 0.000007, epsilon = 0.000776
 c27bf                                  6      0.0000       0.00000       A     3.39753e-01     4.50877e-01    ;  uncertainty sigma = 0.000007, epsilon = 0.000776
 c28bf                                  6      0.0000       0.00000       A     3.39763e-01     4.50525e-01    ;  uncertainty sigma = 0.000013, epsilon = 0.000867
 h29bf                                  1      0.0000       0.00000       A     2.60040e-01     8.67373e-02    ;  uncertainty sigma = 0.000006, epsilon = 0.000499
 h30bf                                  1      0.0000       0.00000       A     2.60040e-01     8.67373e-02    ;  uncertainty sigma = 0.000006, epsilon = 0.000499
 h31bf                                  1      0.0000       0.00000       A     2.60040e-01     8.67373e-02    ;  uncertainty sigma = 0.000006, epsilon = 0.000499
 h32bf                                  1      0.0000       0.00000       A     2.59968e-01     8.70554e-02    ;  uncertainty sigma = 0.000036, epsilon = 0.001257
 h33bf                                  1      0.0000       0.00000       A     2.59968e-01     8.70554e-02    ;  uncertainty sigma = 0.000036, epsilon = 0.001257
 h34bf                                  1      0.0000       0.00000       A     2.60056e-01     8.67510e-02    ;  uncertainty sigma = 0.000038, epsilon = 0.000721
 h35bf                                  1      0.0000       0.00000       A     2.60056e-01     8.67510e-02    ;  uncertainty sigma = 0.000038, epsilon = 0.000721
 h36bf                                  1      0.0000       0.00000       A     1.88718e-01     8.61661e-02    ;  uncertainty sigma = 0.000069, epsilon = 0.001024
 h37bf                                  1      0.0000       0.00000       A     1.88718e-01     8.61661e-02    ;  uncertainty sigma = 0.000069, epsilon = 0.001024
 h38bf                                  1      0.0000       0.00000       A     1.88923e-01     8.66960e-02    ;  uncertainty sigma = 0.000145, epsilon = 0.000889
 c39bf                                  6      0.0000       0.00000       A     3.39724e-01     4.50304e-01    ;  uncertainty sigma = 0.000012, epsilon = 0.000776
 h40bf                                  1      0.0000       0.00000       A     2.42347e-01     8.69345e-02    ;  uncertainty sigma = 0.000155, epsilon = 0.000629
 h41bf                                  1      0.0000       0.00000       A     1.10650e-01     4.27116e-02    ;  uncertainty sigma = 0.000099, epsilon = 0.002001
 h42bf                                  1      0.0000       0.00000       A     2.62548e-01     6.72475e-02    ;  uncertainty sigma = 0.000011, epsilon = 0.000588
 h43bf                                  1      0.0000       0.00000       A     2.62564e-01     6.71433e-02    ;  uncertainty sigma = 0.000012, epsilon = 0.000557
 h44bf                                  1      0.0000       0.00000       A     2.62564e-01     6.72868e-02    ;  uncertainty sigma = 0.000007, epsilon = 0.000873
 h45bf                                  1      0.0000       0.00000       A     1.10644e-01     4.14126e-02    ;  uncertainty sigma = 0.000051, epsilon = 0.000340
 h46bf                                  1      0.0000       0.00000       A     1.10644e-01     4.14126e-02    ;  uncertainty sigma = 0.000051, epsilon = 0.000340
 h47bf                                  1      0.0000       0.00000       A     2.60008e-01     8.64859e-02    ;  uncertainty sigma = 0.000016, epsilon = 0.000908
 h48bf                                  1      0.0000       0.00000       A     2.60008e-01     8.64859e-02    ;  uncertainty sigma = 0.000016, epsilon = 0.000908
 h49bf                                  1      0.0000       0.00000       A     2.60029e-01     8.67429e-02    ;  uncertainty sigma = 0.000008, epsilon = 0.000383
 h50bf                                  1      0.0000       0.00000       A     2.60029e-01     8.67429e-02    ;  uncertainty sigma = 0.000008, epsilon = 0.000383
 h51bf                                  1      0.0000       0.00000       A     2.60029e-01     8.67429e-02    ;  uncertainty sigma = 0.000008, epsilon = 0.000383
 h52bf                                  1      0.0000       0.00000       A     2.60029e-01     8.67429e-02    ;  uncertainty sigma = 0.000008, epsilon = 0.000383
 h53bf                                  1      0.0000       0.00000       A     2.60029e-01     8.67429e-02    ;  uncertainty sigma = 0.000008, epsilon = 0.000383
 h54bf                                  1      0.0000       0.00000       A     2.60029e-01     8.67429e-02    ;  uncertainty sigma = 0.000008, epsilon = 0.000383
 h55bf                                  1      0.0000       0.00000       A     2.60047e-01     8.64225e-02    ;  uncertainty sigma = 0.000017, epsilon = 0.000968
 h56bf                                  1      0.0000       0.00000       A     2.60047e-01     8.64225e-02    ;  uncertainty sigma = 0.000017, epsilon = 0.000968
 h57bf                                  1      0.0000       0.00000       A     1.10742e-01     4.17382e-02    ;  uncertainty sigma = 0.000166, epsilon = 0.001532
 c58bf                                  6      0.0000       0.00000       A     3.39764e-01     4.50668e-01    ;  uncertainty sigma = 0.000015, epsilon = 0.000805
 h59bf                                  1      0.0000       0.00000       A     1.88923e-01     8.66960e-02    ;  uncertainty sigma = 0.000145, epsilon = 0.000889
 h60bf                                  1      0.0000       0.00000       A     2.60029e-01     8.70428e-02    ;  uncertainty sigma = 0.000011, epsilon = 0.000664
 h61bf                                  1      0.0000       0.00000       A     2.60029e-01     8.70428e-02    ;  uncertainty sigma = 0.000011, epsilon = 0.000664
 h62bf                                  1      0.0000       0.00000       A     2.60029e-01     8.70428e-02    ;  uncertainty sigma = 0.000011, epsilon = 0.000664
 h63bf                                  1      0.0000       0.00000       A     1.88769e-01     8.64120e-02    ;  uncertainty sigma = 0.000049, epsilon = 0.000466
 h64bf                                  1      0.0000       0.00000       A     1.88769e-01     8.64121e-02    ;  uncertainty sigma = 0.000049, epsilon = 0.000466
 h65bf                                  1      0.0000       0.00000       A     1.88769e-01     8.64120e-02    ;  uncertainty sigma = 0.000049, epsilon = 0.000466

[ moleculetype ]
;name             nrexcl
 MOL                   3

[ atoms ]
;       nr            type      resi   res      atom      cgnr      charge          mass ; qtot
         1            c0bf         1   UNL        c0         1    -0.02470       12.0110 ; qtot   -0.025
         2            c1bf         1   UNL        c1         2    -0.04711       12.0110 ; qtot   -0.072
         3            c2bf         1   UNL        c2         3    -0.13903       12.0110 ; qtot   -0.211
         4            c3bf         1   UNL        c3         4     0.00337       12.0110 ; qtot   -0.207
         5            c4bf         1   UNL        c4         5    -0.08996       12.0110 ; qtot   -0.297
         6            c5bf         1   UNL        c5         6     0.13749       12.0110 ; qtot   -0.160
         7            n6bf         1   UNL        n6         7    -0.71387       14.0070 ; qtot   -0.874
         8            c7bf         1   UNL        c7         8     0.12079       12.0110 ; qtot   -0.753
         9            c8bf         1   UNL        c8         9     0.20513       12.0110 ; qtot   -0.548
        10            n9bf         1   UNL        n9        10    -0.76137       14.0070 ; qtot   -1.309
        11           c10bf         1   UNL       c10        11     0.22288       12.0110 ; qtot   -1.086
        12           c11bf         1   UNL       c11        12    -0.20856       12.0110 ; qtot   -1.295
        13           c12bf         1   UNL       c12        13     0.05010       12.0110 ; qtot   -1.245
        14           c13bf         1   UNL       c13        14    -0.17072       12.0110 ; qtot   -1.416
        15           c14bf         1   UNL       c14        15    -0.03376       12.0110 ; qtot   -1.449
        16           c15bf         1   UNL       c15        16    -0.23091       12.0110 ; qtot   -1.680
        17           c16bf         1   UNL       c16        17     0.67240       12.0110 ; qtot   -1.008
        18           n17bf         1   UNL       n17        18    -0.64971       14.0070 ; qtot   -1.658
        19           o18bf         1   UNL       o18        19    -0.62602       15.9990 ; qtot   -2.284
        20           n19bf         1   UNL       n19        20     0.01551       14.0070 ; qtot   -2.268
        21           c20bf         1   UNL       c20        21    -0.03153       12.0110 ; qtot   -2.300
        22           c21bf         1   UNL       c21        22    -0.25543       12.0110 ; qtot   -2.555
        23           c22bf         1   UNL       c22        23     0.61468       12.0110 ; qtot   -1.940
        24           o23bf         1   UNL       o23        24    -0.54925       15.9990 ; qtot   -2.490
        25           c24bf         1   UNL       c24        25    -0.16833       12.0110 ; qtot   -2.658
        26           c25bf         1   UNL       c25        26    -0.03637       12.0110 ; qtot   -2.694
        27           c26bf         1   UNL       c26        27    -0.09136       12.0110 ; qtot   -2.786
        28           c27bf         1   UNL       c27        28    -0.09136       12.0110 ; qtot   -2.877
        29           c28bf         1   UNL       c28        29    -0.01611       12.0110 ; qtot   -2.893
        30           h29bf         1   UNL       h29        30     0.04765        1.0080 ; qtot   -2.845
        31           h30bf         1   UNL       h30        31     0.04765        1.0080 ; qtot   -2.798
        32           h31bf         1   UNL       h31        32     0.04765        1.0080 ; qtot   -2.750
        33           h32bf         1   UNL       h32        33     0.06753        1.0080 ; qtot   -2.683
        34           h33bf         1   UNL       h33        34     0.06753        1.0080 ; qtot   -2.615
        35           h34bf         1   UNL       h34        35     0.07925        1.0080 ; qtot   -2.536
        36           h35bf         1   UNL       h35        36     0.07925        1.0080 ; qtot   -2.457
        37           h36bf         1   UNL       h36        37     0.10068        1.0080 ; qtot   -2.356
        38           h37bf         1   UNL       h37        38     0.10068        1.0080 ; qtot   -2.255
        39           h38bf         1   UNL       h38        39     0.10477        1.0080 ; qtot   -2.150
        40           c39bf         1   UNL       c39        40    -0.12766       12.0110 ; qtot   -2.278
        41           h40bf         1   UNL       h40        41     0.07529        1.0080 ; qtot   -2.203
        42           h41bf         1   UNL       h41        42     0.44957        1.0080 ; qtot   -1.753
        43           h42bf         1   UNL       h42        43     0.15219        1.0080 ; qtot   -1.601
        44           h43bf         1   UNL       h43        44     0.15359        1.0080 ; qtot   -1.447
        45           h44bf         1   UNL       h44        45     0.14524        1.0080 ; qtot   -1.302
        46           h45bf         1   UNL       h45        46     0.31237        1.0080 ; qtot   -0.990
        47           h46bf         1   UNL       h46        47     0.31237        1.0080 ; qtot   -0.678
        48           h47bf         1   UNL       h47        48     0.06783        1.0080 ; qtot   -0.610
        49           h48bf         1   UNL       h48        49     0.06783        1.0080 ; qtot   -0.542
        50           h49bf         1   UNL       h49        50     0.03873        1.0080 ; qtot   -0.503
        51           h50bf         1   UNL       h50        51     0.03873        1.0080 ; qtot   -0.464
        52           h51bf         1   UNL       h51        52     0.03873        1.0080 ; qtot   -0.426
        53           h52bf         1   UNL       h52        53     0.03873        1.0080 ; qtot   -0.387
        54           h53bf         1   UNL       h53        54     0.03873        1.0080 ; qtot   -0.348
        55           h54bf         1   UNL       h54        55     0.03873        1.0080 ; qtot   -0.309
        56           h55bf         1   UNL       h55        56     0.06082        1.0080 ; qtot   -0.249
        57           h56bf         1   UNL       h56        57     0.06082        1.0080 ; qtot   -0.188
        58           h57bf         1   UNL       h57        58     0.46601        1.0080 ; qtot    0.278
        59           c58bf         1   UNL       c58        59     0.11485       12.0110 ; qtot    0.393
        60           h59bf         1   UNL       h59        60     0.10477        1.0080 ; qtot    0.498
        61           h60bf         1   UNL       h60        61     0.06480        1.0080 ; qtot    0.563
        62           h61bf         1   UNL       h61        62     0.06480        1.0080 ; qtot    0.627
        63           h62bf         1   UNL       h62        63     0.06480        1.0080 ; qtot    0.692
        64           h63bf         1   UNL       h63        64     0.10260        1.0080 ; qtot    0.795
        65           h64bf         1   UNL       h64        65     0.10260        1.0080 ; qtot    0.897
        66           h65bf         1   UNL       h65        66     0.10260        1.0080 ; qtot    1.000

[ bonds ]
;       ai        aj funct               r               k
         1         2     1        0.150105   244661.877100    ;  uncertainty r = 0.000052, k = 7.942595
         1        30     1        0.109466   309551.110205    ;  uncertainty r = 0.000011, k = 1.937725
         1        31     1        0.109466   309551.110205    ;  uncertainty r = 0.000011, k = 1.937725
         1        32     1        0.109466   309551.110205    ;  uncertainty r = 0.000011, k = 1.937725
         2         3     1        0.138033   390103.171826    ;  uncertainty r = 0.000094, k = 10.107610
         2        22     1        0.144028   267588.097949    ;  uncertainty r = 0.000055, k = 11.208518
         3         4     1        0.149543   230440.516260    ;  uncertainty r = 0.000123, k = 5.727770
         3        20     1        0.141079   287719.920605    ;  uncertainty r = 0.000173, k = 18.668760
         4         5     1        0.154008   203934.937549    ;  uncertainty r = 0.000124, k = 13.147062
         4        33     1        0.109613   310716.470654    ;  uncertainty r = 0.000052, k = 3.372461
         4        34     1        0.109613   310716.470654    ;  uncertainty r = 0.000052, k = 3.372461
         5         6     1        0.152764   202422.246875    ;  uncertainty r = 0.000083, k = 11.702067
         5        35     1        0.109524   310879.474023    ;  uncertainty r = 0.000038, k = 1.912867
         5        36     1        0.109524   310879.474023    ;  uncertainty r = 0.000038, k = 1.912867
         6         7     1        0.151482   195686.502295    ;  uncertainty r = 0.000173, k = 18.245467
         6        37     1        0.109098   311632.231396    ;  uncertainty r = 0.000037, k = 1.336360
         6        38     1        0.109098   311632.231396    ;  uncertainty r = 0.000037, k = 1.336360
         7         8     1        0.150960   194216.318140    ;  uncertainty r = 0.000122, k = 29.697114
         7        58     1        0.103219   355115.774219    ;  uncertainty r = 0.000122, k = 18.467019
         7        59     1        0.150053   211016.531201    ;  uncertainty r = 0.000079, k = 10.923216
         8         9     1        0.153856   201739.486719    ;  uncertainty r = 0.000311, k = 11.084908
         8        39     1        0.109091   313321.255811    ;  uncertainty r = 0.000048, k = 3.595225
         8        60     1        0.109091   313321.255811    ;  uncertainty r = 0.000048, k = 3.595225
         9        10     1        0.145630   236683.598926    ;  uncertainty r = 0.000542, k = 13.142372
         9        40     1        0.153490   213633.816772    ;  uncertainty r = 0.000205, k = 17.004668
         9        41     1        0.109581   306621.441943    ;  uncertainty r = 0.000033, k = 8.208518
        10        11     1        0.141047   330173.041064    ;  uncertainty r = 0.000897, k = 14.482738
        10        42     1        0.101338   421114.773486    ;  uncertainty r = 0.000233, k = 8.179903
        11        12     1        0.140742   353454.100049    ;  uncertainty r = 0.000112, k = 11.900801
        11        16     1        0.142194   333373.964502    ;  uncertainty r = 0.000220, k = 9.864768
        12        13     1        0.138787   352811.228857    ;  uncertainty r = 0.000114, k = 7.644297
        12        43     1        0.108864   337997.585840    ;  uncertainty r = 0.000031, k = 2.781363
        13        14     1        0.139640   354214.467480    ;  uncertainty r = 0.000116, k = 4.634588
        13        20     1        0.142348   337500.403857    ;  uncertainty r = 0.000101, k = 7.296129
        14        15     1        0.138792   364930.145020    ;  uncertainty r = 0.000067, k = 5.150934
        14        44     1        0.108792   333924.825488    ;  uncertainty r = 0.000009, k = 1.293387
        15        16     1        0.140167   353845.941455    ;  uncertainty r = 0.000105, k = 10.643313
        15        45     1        0.108604   330520.703271    ;  uncertainty r = 0.000050, k = 2.529878
        16        17     1        0.148282   260240.918359    ;  uncertainty r = 0.000134, k = 25.345378
        17        18     1        0.139029   503817.340625    ;  uncertainty r = 0.000155, k = 20.650933
        17        19     1        0.124820   823639.501758    ;  uncertainty r = 0.000051, k = 16.500721
        18        46     1        0.101653   427755.290186    ;  uncertainty r = 0.000052, k = 3.050537
        18        47     1        0.101653   427755.290186    ;  uncertainty r = 0.000052, k = 3.050537
        20        21     1        0.137342   279523.223535    ;  uncertainty r = 0.000165, k = 14.437678
        21        22     1        0.139070   410963.440527    ;  uncertainty r = 0.000129, k = 17.219581
        21        29     1        0.149169   235354.392383    ;  uncertainty r = 0.000099, k = 6.242030
        22        23     1        0.145392   263265.176074    ;  uncertainty r = 0.000115, k = 15.598358
        23        24     1        0.123654   721934.337402    ;  uncertainty r = 0.000050, k = 5.105366
        23        25     1        0.152729   192523.182251    ;  uncertainty r = 0.000075, k = 8.399189
        25        26     1        0.153646   191935.049854    ;  uncertainty r = 0.000135, k = 7.651961
        25        48     1        0.109748   308934.720996    ;  uncertainty r = 0.000015, k = 1.839172
        25        49     1        0.109748   308934.720996    ;  uncertainty r = 0.000015, k = 1.839172
        26        27     1        0.153195   201193.401172    ;  uncertainty r = 0.000053, k = 1.853520
        26        28     1        0.153195   201193.401172    ;  uncertainty r = 0.000053, k = 1.853520
        26        29     1        0.153828   192201.542358    ;  uncertainty r = 0.000093, k = 11.625831
        27        50     1        0.109670   309289.329297    ;  uncertainty r = 0.000025, k = 1.119538
        27        51     1        0.109670   309289.329297    ;  uncertainty r = 0.000025, k = 1.119538
        27        52     1        0.109670   309289.329297    ;  uncertainty r = 0.000025, k = 1.119538
        28        53     1        0.109670   309289.329297    ;  uncertainty r = 0.000025, k = 1.119538
        28        54     1        0.109670   309289.329297    ;  uncertainty r = 0.000025, k = 1.119538
        28        55     1        0.109670   309289.329297    ;  uncertainty r = 0.000025, k = 1.119538
        29        56     1        0.109905   308723.707861    ;  uncertainty r = 0.000021, k = 4.306944
        29        57     1        0.109905   308723.707861    ;  uncertainty r = 0.000021, k = 4.306944
        40        61     1        0.109472   313193.595801    ;  uncertainty r = 0.000034, k = 0.850299
        40        62     1        0.109472   313193.595801    ;  uncertainty r = 0.000034, k = 0.850299
        40        63     1        0.109472   313193.595801    ;  uncertainty r = 0.000034, k = 0.850299
        59        64     1        0.108962   314541.725342    ;  uncertainty r = 0.000023, k = 1.272833
        59        65     1        0.108962   314541.725342    ;  uncertainty r = 0.000023, k = 1.272833
        59        66     1        0.108962   314541.725342    ;  uncertainty r = 0.000023, k = 1.272838

[ angles ]
;       ai        aj        ak funct           theta             cth
         1         2         3     1      124.971558      355.394556    ;  uncertainty theta = 0.005432, k = 0.247331
         1         2        22     1      124.362526      352.814095    ;  uncertainty theta = 0.004980, k = 0.223858
         2         1        30     1      109.685570      411.713970    ;  uncertainty theta = 0.000600, k = 0.078463
         2         1        31     1      109.685570      411.713970    ;  uncertainty theta = 0.000600, k = 0.078463
         2         1        32     1      109.685570      411.713970    ;  uncertainty theta = 0.000600, k = 0.078463
         2         3         4     1      128.517120      347.329490    ;  uncertainty theta = 0.004033, k = 0.224835
         2         3        20     1      110.532837      707.211683    ;  uncertainty theta = 0.002972, k = 0.149789
         2        22        21     1      109.071350      678.525401    ;  uncertainty theta = 0.004759, k = 0.127634
         2        22        23     1      126.172157      344.436296    ;  uncertainty theta = 0.003526, k = 0.270680
         3         2        22     1      107.599632      701.470941    ;  uncertainty theta = 0.005082, k = 0.187514
         3         4         5     1      111.504013      539.457199    ;  uncertainty theta = 0.002926, k = 0.113937
         3         4        33     1      107.152367      410.874916    ;  uncertainty theta = 0.003168, k = 0.055584
         3         4        34     1      107.152367      410.874916    ;  uncertainty theta = 0.003168, k = 0.055584
         3        20        13     1      120.464859      382.500155    ;  uncertainty theta = 0.003205, k = 0.103967
         3        20        21     1      109.546799      829.740905    ;  uncertainty theta = 0.003352, k = 0.161793
         4         3        20     1      116.966087      383.201851    ;  uncertainty theta = 0.007255, k = 0.129799
         4         5         6     1      110.076759      525.671022    ;  uncertainty theta = 0.003335, k = 0.089870
         4         5        35     1      107.753311      398.177514    ;  uncertainty theta = 0.001882, k = 0.056757
         4         5        36     1      107.753311      398.177514    ;  uncertainty theta = 0.001882, k = 0.056757
         5         4        33     1      107.085938      399.712358    ;  uncertainty theta = 0.002210, k = 0.034717
         5         4        34     1      107.085938      399.712358    ;  uncertainty theta = 0.002210, k = 0.034717
         5         6         7     1      111.210068      668.010305    ;  uncertainty theta = 0.002071, k = 0.201888
         5         6        37     1      109.985794      402.042460    ;  uncertainty theta = 0.001716, k = 0.079079
         5         6        38     1      109.985794      402.042460    ;  uncertainty theta = 0.001716, k = 0.079079
         6         5        35     1      107.004112      399.671276    ;  uncertainty theta = 0.002839, k = 0.068160
         6         5        36     1      107.004112      399.671276    ;  uncertainty theta = 0.002839, k = 0.068160
         6         7         8     1      111.453445      609.706786    ;  uncertainty theta = 0.005814, k = 0.195063
         6         7        58     1      106.700584      442.420460    ;  uncertainty theta = 0.003316, k = 0.081484
         6         7        59     1      111.419601      651.281966    ;  uncertainty theta = 0.002052, k = 0.175916
         7         6        37     1      105.467003      454.303229    ;  uncertainty theta = 0.001318, k = 0.025521
         7         6        38     1      105.467003      454.303229    ;  uncertainty theta = 0.001318, k = 0.025521
         7         8         9     1      110.679642      637.517719    ;  uncertainty theta = 0.002940, k = 0.168047
         7         8        39     1      106.128929      456.058490    ;  uncertainty theta = 0.003087, k = 0.057509
         7         8        60     1      106.128929      456.058490    ;  uncertainty theta = 0.003087, k = 0.057509
         7        59        64     1      107.933754      467.419088    ;  uncertainty theta = 0.002360, k = 0.106712
         7        59        65     1      107.933754      467.419088    ;  uncertainty theta = 0.002360, k = 0.106712
         7        59        66     1      107.933754      467.419088    ;  uncertainty theta = 0.002360, k = 0.106712
         8         7        58     1      106.659752      436.642179    ;  uncertainty theta = 0.004399, k = 0.142403
         8         7        59     1      111.429489      646.376798    ;  uncertainty theta = 0.004394, k = 0.183541
         8         9        10     1      108.998512      581.317245    ;  uncertainty theta = 0.004819, k = 0.203803
         8         9        40     1      110.209793      558.921839    ;  uncertainty theta = 0.001923, k = 0.117271
         8         9        41     1      107.645470      393.276081    ;  uncertainty theta = 0.003834, k = 0.039031
         9         8        39     1      110.156883      393.133488    ;  uncertainty theta = 0.003820, k = 0.078021
         9         8        60     1      110.156883      393.133488    ;  uncertainty theta = 0.003820, k = 0.078021
         9        10        11     1      113.816490      429.590712    ;  uncertainty theta = 0.004843, k = 0.177255
         9        10        42     1      109.757973      355.705503    ;  uncertainty theta = 0.005270, k = 0.112671
         9        40        61     1      107.584312      396.713280    ;  uncertainty theta = 0.001152, k = 0.092646
         9        40        62     1      107.584312      396.713280    ;  uncertainty theta = 0.001152, k = 0.092646
         9        40        63     1      107.584312      396.713280    ;  uncertainty theta = 0.001152, k = 0.092646
        10         9        40     1      111.630264      657.902972    ;  uncertainty theta = 0.004409, k = 0.225876
        10         9        41     1      106.168152      429.824473    ;  uncertainty theta = 0.007106, k = 0.123587
        10        11        12     1      121.739845      550.342519    ;  uncertainty theta = 0.007758, k = 0.299449
        10        11        16     1      123.096054      534.797219    ;  uncertainty theta = 0.007224, k = 0.223867
        11        10        42     1      113.776390      381.410710    ;  uncertainty theta = 0.006792, k = 0.207425
        11        12        13     1      120.493813      512.094952    ;  uncertainty theta = 0.001901, k = 0.102941
        11        12        43     1      119.090714      262.883984    ;  uncertainty theta = 0.001917, k = 0.089365
        11        16        15     1      122.460915      424.552975    ;  uncertainty theta = 0.004377, k = 0.361837
        11        16        17     1      117.699844      394.200461    ;  uncertainty theta = 0.005163, k = 0.343228
        12        11        16     1      122.132278      409.915615    ;  uncertainty theta = 0.005106, k = 0.181859
        12        13        14     1      120.030495      376.841547    ;  uncertainty theta = 0.005121, k = 0.220651
        12        13        20     1      120.238319      454.187545    ;  uncertainty theta = 0.004184, k = 0.112613
        13        12        43     1      120.050293      284.720415    ;  uncertainty theta = 0.002585, k = 0.099265
        13        14        15     1      118.153793      518.808786    ;  uncertainty theta = 0.004297, k = 0.176784
        13        14        44     1      120.426636      280.185311    ;  uncertainty theta = 0.001430, k = 0.071763
        13        20        21     1      120.525497      387.471943    ;  uncertainty theta = 0.004636, k = 0.156380
        14        13        20     1      121.262253      463.255996    ;  uncertainty theta = 0.004444, k = 0.211913
        14        15        16     1      124.840576      519.794742    ;  uncertainty theta = 0.004799, k = 0.206168
        14        15        45     1      119.540184      280.403909    ;  uncertainty theta = 0.002726, k = 0.067893
        15        14        44     1      121.318527      289.287439    ;  uncertainty theta = 0.001766, k = 0.086166
        15        16        17     1      117.687866      394.289330    ;  uncertainty theta = 0.003347, k = 0.224998
        16        15        45     1      117.224304      261.365579    ;  uncertainty theta = 0.005141, k = 0.120235
        16        17        18     1      116.011520      478.303227    ;  uncertainty theta = 0.003603, k = 0.253368
        16        17        19     1      125.266724      538.192090    ;  uncertainty theta = 0.004512, k = 0.205424
        17        18        46     1      116.963905      310.801018    ;  uncertainty theta = 0.002022, k = 0.091105
        17        18        47     1      116.963905      310.801018    ;  uncertainty theta = 0.002022, k = 0.091105
        18        17        19     1      126.517166      889.988691    ;  uncertainty theta = 0.004387, k = 0.046999
        20        21        22     1      109.738441      694.434446    ;  uncertainty theta = 0.004885, k = 0.206526
        20        21        29     1      122.450340      370.896635    ;  uncertainty theta = 0.003573, k = 0.180504
        21        22        23     1      119.070312      390.807568    ;  uncertainty theta = 0.007694, k = 0.349987
        21        29        26     1      107.805740      556.659123    ;  uncertainty theta = 0.002237, k = 0.143666
        21        29        56     1      108.916275      396.622655    ;  uncertainty theta = 0.001410, k = 0.056158
        21        29        57     1      108.916275      396.622655    ;  uncertainty theta = 0.001410, k = 0.056158
        22        21        29     1      125.882568      344.070285    ;  uncertainty theta = 0.005185, k = 0.237699
        22        23        24     1      124.446182      604.140079    ;  uncertainty theta = 0.001677, k = 0.050463
        22        23        25     1      113.848488      368.483538    ;  uncertainty theta = 0.006481, k = 0.230108
        23        25        26     1      112.816551      505.116713    ;  uncertainty theta = 0.003504, k = 0.066766
        23        25        48     1      106.614479      370.407344    ;  uncertainty theta = 0.001342, k = 0.076110
        23        25        49     1      106.614479      370.407344    ;  uncertainty theta = 0.001342, k = 0.076110
        24        23        25     1      123.307533      565.969123    ;  uncertainty theta = 0.003559, k = 0.147201
        25        26        27     1      108.306870      576.022126    ;  uncertainty theta = 0.001816, k = 0.099147
        25        26        28     1      108.306870      576.022126    ;  uncertainty theta = 0.001816, k = 0.099147
        25        26        29     1      109.706276      569.691668    ;  uncertainty theta = 0.001851, k = 0.067169
        26        25        48     1      107.687546      371.394800    ;  uncertainty theta = 0.002109, k = 0.101948
        26        25        49     1      107.687546      371.394800    ;  uncertainty theta = 0.002109, k = 0.101948
        26        27        50     1      107.996109      384.058813    ;  uncertainty theta = 0.001498, k = 0.017817
        26        27        51     1      107.996109      384.058813    ;  uncertainty theta = 0.001498, k = 0.017817
        26        27        52     1      107.996109      384.058813    ;  uncertainty theta = 0.001498, k = 0.017817
        26        28        53     1      107.996109      384.058813    ;  uncertainty theta = 0.001498, k = 0.017817
        26        28        54     1      107.996109      384.058813    ;  uncertainty theta = 0.001498, k = 0.017817
        26        28        55     1      107.996109      384.058813    ;  uncertainty theta = 0.001498, k = 0.017817
        26        29        56     1      107.544724      382.761017    ;  uncertainty theta = 0.002760, k = 0.048647
        26        29        57     1      107.544724      382.761017    ;  uncertainty theta = 0.002760, k = 0.048647
        27        26        28     1      108.956375      585.520334    ;  uncertainty theta = 0.001841, k = 0.057908
        27        26        29     1      108.014572      557.325067    ;  uncertainty theta = 0.003069, k = 0.098919
        28        26        29     1      108.014572      557.325067    ;  uncertainty theta = 0.003069, k = 0.098919
        30         1        31     1      106.599655      315.928263    ;  uncertainty theta = 0.001025, k = 0.007338
        30         1        32     1      106.599655      315.928263    ;  uncertainty theta = 0.001025, k = 0.007338
        31         1        32     1      106.599655      315.928263    ;  uncertainty theta = 0.001025, k = 0.007338
        33         4        34     1      104.768349      318.867807    ;  uncertainty theta = 0.004355, k = 0.031555
        35         5        36     1      105.453773      325.108024    ;  uncertainty theta = 0.003086, k = 0.041948
        37         6        38     1      107.732300      320.491297    ;  uncertainty theta = 0.004304, k = 0.076039
        39         8        60     1      108.131180      324.587960    ;  uncertainty theta = 0.003538, k = 0.079144
        40         9        41     1      108.132263      416.700027    ;  uncertainty theta = 0.001930, k = 0.089911
        46        18        47     1      109.834633      265.993542    ;  uncertainty theta = 0.001915, k = 0.057416
        48        25        49     1      106.125877      305.443843    ;  uncertainty theta = 0.001540, k = 0.048439
        50        27        51     1      105.574768      318.349181    ;  uncertainty theta = 0.001227, k = 0.028952
        50        27        52     1      105.574768      318.349181    ;  uncertainty theta = 0.001227, k = 0.028952
        51        27        52     1      105.574768      318.349181    ;  uncertainty theta = 0.001227, k = 0.028952
        53        28        54     1      105.574768      318.349181    ;  uncertainty theta = 0.001227, k = 0.028952
        53        28        55     1      105.574768      318.349181    ;  uncertainty theta = 0.001227, k = 0.028952
        54        28        55     1      105.574768      318.349181    ;  uncertainty theta = 0.001227, k = 0.028952
        56        29        57     1      105.093704      313.682082    ;  uncertainty theta = 0.001625, k = 0.026383
        58         7        59     1      106.768417      458.743717    ;  uncertainty theta = 0.001714, k = 0.199208
        61        40        62     1      105.363098      318.353267    ;  uncertainty theta = 0.000508, k = 0.035460
        61        40        63     1      105.363098      318.353267    ;  uncertainty theta = 0.000508, k = 0.035460
        62        40        63     1      105.363098      318.353267    ;  uncertainty theta = 0.000508, k = 0.035460
        64        59        65     1      108.470482      320.044462    ;  uncertainty theta = 0.003255, k = 0.037562
        64        59        66     1      108.470482      320.044462    ;  uncertainty theta = 0.003255, k = 0.037562
        65        59        66     1      108.470482      320.044494    ;  uncertainty theta = 0.003255, k = 0.037562

[ dihedrals ] ; propers for gromacs 4.5 or higher, use funct 9
;       ai        aj        ak        al funct           phase               k        pn
         1         2         3         4     9        0.000000       -0.523399         1    ;  uncertainty k = 0.788089
         1         2         3         4     9      180.000000        8.389180         2    ;  uncertainty k = 0.529440
         1         2         3         4     9        0.000000        1.137874         3    ;  uncertainty k = 0.306959
         1         2         3         4     9      180.000000        0.801807         4    ;  uncertainty k = 0.233395
         1         2         3        20     9        0.000000        0.221408         1    ;  uncertainty k = 0.794144
         1         2         3        20     9      180.000000       14.539322         2    ;  uncertainty k = 0.459806
         1         2         3        20     9        0.000000        2.144730         3    ;  uncertainty k = 0.688228
         1         2         3        20     9      180.000000        0.978428         4    ;  uncertainty k = 0.229134
         1         2        22        21     9        0.000000        0.735890         1    ;  uncertainty k = 1.085329
         1         2        22        21     9      180.000000        9.416021         2    ;  uncertainty k = 0.548251
         1         2        22        21     9        0.000000        1.767600         3    ;  uncertainty k = 0.396803
         1         2        22        21     9      180.000000        0.414836         4    ;  uncertainty k = 0.218725
         1         2        22        23     9        0.000000       -0.477193         1    ;  uncertainty k = 1.442375
         1         2        22        23     9      180.000000        5.256570         2    ;  uncertainty k = 0.727055
         1         2        22        23     9        0.000000        1.712487         3    ;  uncertainty k = 0.189360
         1         2        22        23     9      180.000000        0.214289         4    ;  uncertainty k = 0.158595
         2         3         4         5     9        0.000000        0.019984         1    ;  uncertainty k = 0.554355
         2         3         4         5     9      180.000000        1.135454         2    ;  uncertainty k = 0.423323
         2         3         4         5     9        0.000000        0.050660         3    ;  uncertainty k = 0.197203
         2         3         4         5     9      180.000000        0.160857         4    ;  uncertainty k = 0.131298
         2         3         4        33     9        0.000000        0.754624         1    ;  uncertainty k = 0.382516
         2         3         4        33     9      180.000000        1.217908         2    ;  uncertainty k = 0.307781
         2         3         4        33     9        0.000000        0.208732         3    ;  uncertainty k = 0.088650
         2         3         4        33     9      180.000000        0.119235         4    ;  uncertainty k = 0.104987
         2         3         4        34     9        0.000000        0.754624         1    ;  uncertainty k = 0.382516
         2         3         4        34     9      180.000000        1.217908         2    ;  uncertainty k = 0.307781
         2         3         4        34     9        0.000000        0.208732         3    ;  uncertainty k = 0.088650
         2         3         4        34     9      180.000000        0.119235         4    ;  uncertainty k = 0.104987
         2         3        20        13     9        0.000000        1.904932         1    ;  uncertainty k = 0.672469
         2         3        20        13     9      180.000000        6.851178         2    ;  uncertainty k = 0.668727
         2         3        20        13     9        0.000000        1.923123         3    ;  uncertainty k = 0.303303
         2         3        20        13     9      180.000000        0.114115         4    ;  uncertainty k = 0.280151
         2         3        20        21     9        0.000000       -0.519310         1    ;  uncertainty k = 0.764475
         2         3        20        21     9      180.000000       12.421849         2    ;  uncertainty k = 0.827441
         2         3        20        21     9        0.000000       -6.387672         3    ;  uncertainty k = 0.680899
         2         3        20        21     9      180.000000        1.105472         4    ;  uncertainty k = 0.512079
         2        22        21        20     9        0.000000       -0.246290         1    ;  uncertainty k = 0.289961
         2        22        21        20     9      180.000000       15.423100         2    ;  uncertainty k = 1.096923
         2        22        21        20     9        0.000000       -4.447669         3    ;  uncertainty k = 0.651380
         2        22        21        20     9      180.000000        1.748857         4    ;  uncertainty k = 0.611037
         2        22        21        29     9        0.000000        0.109308         1    ;  uncertainty k = 0.124598
         2        22        21        29     9      180.000000       11.372252         2    ;  uncertainty k = 0.471513
         2        22        21        29     9        0.000000        1.088360         3    ;  uncertainty k = 0.305831
         2        22        21        29     9      180.000000        1.161826         4    ;  uncertainty k = 0.302667
         2        22        23        24     9        0.000000       -1.847182         1    ;  uncertainty k = 1.157550
         2        22        23        24     9      180.000000        6.643139         2    ;  uncertainty k = 0.455011
         2        22        23        24     9        0.000000        0.783818         3    ;  uncertainty k = 0.142480
         2        22        23        24     9      180.000000       -0.185187         4    ;  uncertainty k = 0.114437
         2        22        23        25     9        0.000000       -0.926558         1    ;  uncertainty k = 0.295838
         2        22        23        25     9      180.000000        3.213854         2    ;  uncertainty k = 0.305906
         2        22        23        25     9        0.000000        0.621584         3    ;  uncertainty k = 0.127606
         2        22        23        25     9      180.000000        0.389048         4    ;  uncertainty k = 0.061584
         3         2         1        30     9        0.000000        1.057543         1    ;  uncertainty k = 0.401308
         3         2         1        30     9      180.000000        1.620052         2    ;  uncertainty k = 0.331300
         3         2         1        30     9        0.000000        0.032090         3    ;  uncertainty k = 0.111700
         3         2         1        30     9      180.000000        0.095394         4    ;  uncertainty k = 0.043435
         3         2         1        31     9        0.000000        1.057543         1    ;  uncertainty k = 0.401308
         3         2         1        31     9      180.000000        1.620052         2    ;  uncertainty k = 0.331300
         3         2         1        31     9        0.000000        0.032090         3    ;  uncertainty k = 0.111700
         3         2         1        31     9      180.000000        0.095394         4    ;  uncertainty k = 0.043435
         3         2         1        32     9        0.000000        1.057543         1    ;  uncertainty k = 0.401308
         3         2         1        32     9      180.000000        1.620052         2    ;  uncertainty k = 0.331300
         3         2         1        32     9        0.000000        0.032090         3    ;  uncertainty k = 0.111700
         3         2         1        32     9      180.000000        0.095394         4    ;  uncertainty k = 0.043435
         3         2        22        21     9        0.000000       -0.114122         1    ;  uncertainty k = 0.625241
         3         2        22        21     9      180.000000       12.417307         2    ;  uncertainty k = 0.851697
         3         2        22        21     9        0.000000       -9.664476         3    ;  uncertainty k = 1.513114
         3         2        22        21     9      180.000000        1.889687         4    ;  uncertainty k = 0.389182
         3         2        22        23     9        0.000000        0.992140         1    ;  uncertainty k = 0.841646
         3         2        22        23     9      180.000000        5.265594         2    ;  uncertainty k = 0.823329
         3         2        22        23     9        0.000000        1.469218         3    ;  uncertainty k = 0.176719
         3         2        22        23     9      180.000000        0.642631         4    ;  uncertainty k = 0.255292
         3         4         5         6     9        0.000000       -2.007650         1    ;  uncertainty k = 0.798393
         3         4         5         6     9      180.000000       -0.552102         2    ;  uncertainty k = 0.323107
         3         4         5         6     9        0.000000        1.597800         3    ;  uncertainty k = 0.244742
         3         4         5         6     9      180.000000       -0.185153         4    ;  uncertainty k = 0.204832
         3         4         5        35     9        0.000000        0.232680         1    ;  uncertainty k = 0.516495
         3         4         5        35     9      180.000000       -0.115447         2    ;  uncertainty k = 0.344741
         3         4         5        35     9        0.000000        1.093706         3    ;  uncertainty k = 0.138996
         3         4         5        35     9      180.000000        0.040564         4    ;  uncertainty k = 0.054623
         3         4         5        36     9        0.000000        0.232680         1    ;  uncertainty k = 0.516495
         3         4         5        36     9      180.000000       -0.115447         2    ;  uncertainty k = 0.344741
         3         4         5        36     9        0.000000        1.093706         3    ;  uncertainty k = 0.138996
         3         4         5        36     9      180.000000        0.040564         4    ;  uncertainty k = 0.054623
         3        20        13        12     9        0.000000        0.705654         1    ;  uncertainty k = 0.394755
         3        20        13        12     9      180.000000        5.780940         2    ;  uncertainty k = 0.454659
         3        20        13        12     9        0.000000        0.446031         3    ;  uncertainty k = 0.154852
         3        20        13        12     9      180.000000        0.353843         4    ;  uncertainty k = 0.204891
         3        20        13        14     9        0.000000        0.929198         1    ;  uncertainty k = 0.580803
         3        20        13        14     9      180.000000        6.012729         2    ;  uncertainty k = 0.413700
         3        20        13        14     9        0.000000        0.538305         3    ;  uncertainty k = 0.201412
         3        20        13        14     9      180.000000        0.352428         4    ;  uncertainty k = 0.163473
         3        20        21        22     9        0.000000       -0.006747         1    ;  uncertainty k = 0.756310
         3        20        21        22     9      180.000000       15.802425         2    ;  uncertainty k = 0.761344
         3        20        21        22     9        0.000000       -8.394575         3    ;  uncertainty k = 1.713229
         3        20        21        22     9      180.000000        0.880743         4    ;  uncertainty k = 0.667956
         3        20        21        29     9        0.000000        0.905658         1    ;  uncertainty k = 0.614550
         3        20        21        29     9      180.000000        7.492399         2    ;  uncertainty k = 0.341262
         3        20        21        29     9        0.000000        1.475936         3    ;  uncertainty k = 0.195359
         3        20        21        29     9      180.000000        0.093777         4    ;  uncertainty k = 0.147247
         4         3         2        22     9        0.000000       -0.025521         1    ;  uncertainty k = 0.763832
         4         3         2        22     9      180.000000       13.560373         2    ;  uncertainty k = 0.458538
         4         3         2        22     9        0.000000        2.184770         3    ;  uncertainty k = 0.271162
         4         3         2        22     9      180.000000        0.912864         4    ;  uncertainty k = 0.328457
         4         3        20        13     9        0.000000        0.435573         1    ;  uncertainty k = 0.771407
         4         3        20        13     9      180.000000        3.972444         2    ;  uncertainty k = 0.710413
         4         3        20        13     9        0.000000        1.231867         3    ;  uncertainty k = 0.199310
         4         3        20        13     9      180.000000        0.188693         4    ;  uncertainty k = 0.168705
         4         3        20        21     9        0.000000        1.076815         1    ;  uncertainty k = 0.817796
         4         3        20        21     9      180.000000        7.933908         2    ;  uncertainty k = 0.745701
         4         3        20        21     9        0.000000        1.672059         3    ;  uncertainty k = 0.158667
         4         3        20        21     9      180.000000        0.015411         4    ;  uncertainty k = 0.077594
         4         5         6         7     9        0.000000       -2.237339         1    ;  uncertainty k = 1.803523
         4         5         6         7     9      180.000000       -2.701642         2    ;  uncertainty k = 0.560878
         4         5         6         7     9        0.000000        1.988793         3    ;  uncertainty k = 0.179978
         4         5         6         7     9      180.000000       -0.514631         4    ;  uncertainty k = 0.176083
         4         5         6        37     9        0.000000       -1.616521         1    ;  uncertainty k = 0.920159
         4         5         6        37     9      180.000000       -0.179502         2    ;  uncertainty k = 0.344304
         4         5         6        37     9        0.000000        0.896370         3    ;  uncertainty k = 0.036630
         4         5         6        37     9      180.000000       -0.258230         4    ;  uncertainty k = 0.136656
         4         5         6        38     9        0.000000       -1.616521         1    ;  uncertainty k = 0.920159
         4         5         6        38     9      180.000000       -0.179502         2    ;  uncertainty k = 0.344304
         4         5         6        38     9        0.000000        0.896370         3    ;  uncertainty k = 0.036630
         4         5         6        38     9      180.000000       -0.258230         4    ;  uncertainty k = 0.136656
         5         4         3        20     9        0.000000       -0.036050         1    ;  uncertainty k = 0.988556
         5         4         3        20     9      180.000000        0.107621         2    ;  uncertainty k = 0.420419
         5         4         3        20     9        0.000000        0.708499         3    ;  uncertainty k = 0.290430
         5         4         3        20     9      180.000000        0.097406         4    ;  uncertainty k = 0.042303
         5         6         7         8     9        0.000000       -2.109421         1    ;  uncertainty k = 0.471944
         5         6         7         8     9      180.000000        0.301438         2    ;  uncertainty k = 0.661689
         5         6         7         8     9        0.000000        1.058625         3    ;  uncertainty k = 0.211133
         5         6         7         8     9      180.000000       -0.154852         4    ;  uncertainty k = 0.094650
         5         6         7        58     9        0.000000       -0.998877         1    ;  uncertainty k = 0.382492
         5         6         7        58     9      180.000000       -0.332675         2    ;  uncertainty k = 0.443891
         5         6         7        58     9        0.000000        0.449033         3    ;  uncertainty k = 0.128166
         5         6         7        58     9      180.000000       -0.123261         4    ;  uncertainty k = 0.133398
         5         6         7        59     9        0.000000       -1.838205         1    ;  uncertainty k = 0.522292
         5         6         7        59     9      180.000000        0.536696         2    ;  uncertainty k = 0.605486
         5         6         7        59     9        0.000000        1.186489         3    ;  uncertainty k = 0.204963
         5         6         7        59     9      180.000000       -0.146244         4    ;  uncertainty k = 0.096604
         6         5         4        33     9        0.000000       -1.995461         1    ;  uncertainty k = 0.273682
         6         5         4        33     9      180.000000       -0.819377         2    ;  uncertainty k = 0.201175
         6         5         4        33     9        0.000000        1.118926         3    ;  uncertainty k = 0.210143
         6         5         4        33     9      180.000000       -0.313836         4    ;  uncertainty k = 0.116382
         6         5         4        34     9        0.000000       -1.995461         1    ;  uncertainty k = 0.273682
         6         5         4        34     9      180.000000       -0.819377         2    ;  uncertainty k = 0.201175
         6         5         4        34     9        0.000000        1.118926         3    ;  uncertainty k = 0.210143
         6         5         4        34     9      180.000000       -0.313836         4    ;  uncertainty k = 0.116382
         6         7         8         9     9        0.000000       -0.976323         1    ;  uncertainty k = 1.359792
         6         7         8         9     9      180.000000       -0.185496         2    ;  uncertainty k = 0.731463
         6         7         8         9     9        0.000000        0.908607         3    ;  uncertainty k = 0.212661
         6         7         8         9     9      180.000000       -0.170951         4    ;  uncertainty k = 0.137477
         6         7         8        39     9        0.000000       -0.041905         1    ;  uncertainty k = 0.359009
         6         7         8        39     9      180.000000       -0.585223         2    ;  uncertainty k = 0.383329
         6         7         8        39     9        0.000000        0.885116         3    ;  uncertainty k = 0.127791
         6         7         8        39     9      180.000000       -0.038854         4    ;  uncertainty k = 0.120037
         6         7         8        60     9        0.000000       -0.041905         1    ;  uncertainty k = 0.359009
         6         7         8        60     9      180.000000       -0.585223         2    ;  uncertainty k = 0.383329
         6         7         8        60     9        0.000000        0.885116         3    ;  uncertainty k = 0.127791
         6         7         8        60     9      180.000000       -0.038854         4    ;  uncertainty k = 0.120037
         6         7        59        64     9        0.000000       -0.362784         1    ;  uncertainty k = 0.476884
         6         7        59        64     9      180.000000       -1.096131         2    ;  uncertainty k = 0.329506
         6         7        59        64     9        0.000000        1.221508         3    ;  uncertainty k = 0.099748
         6         7        59        64     9      180.000000       -0.029008         4    ;  uncertainty k = 0.107378
         6         7        59        65     9        0.000000       -0.362784         1    ;  uncertainty k = 0.476884
         6         7        59        65     9      180.000000       -1.096131         2    ;  uncertainty k = 0.329506
         6         7        59        65     9        0.000000        1.221508         3    ;  uncertainty k = 0.099748
         6         7        59        65     9      180.000000       -0.029008         4    ;  uncertainty k = 0.107378
         6         7        59        66     9        0.000000       -0.362784         1    ;  uncertainty k = 0.476884
         6         7        59        66     9      180.000000       -1.096131         2    ;  uncertainty k = 0.329506
         6         7        59        66     9        0.000000        1.221508         3    ;  uncertainty k = 0.099748
         6         7        59        66     9      180.000000       -0.029008         4    ;  uncertainty k = 0.107378
         7         6         5        35     9        0.000000        0.720615         1    ;  uncertainty k = 0.688422
         7         6         5        35     9      180.000000       -2.549328         2    ;  uncertainty k = 0.406335
         7         6         5        35     9        0.000000        1.116759         3    ;  uncertainty k = 0.259442
         7         6         5        35     9      180.000000       -0.140077         4    ;  uncertainty k = 0.103748
         7         6         5        36     9        0.000000        0.720615         1    ;  uncertainty k = 0.688422
         7         6         5        36     9      180.000000       -2.549328         2    ;  uncertainty k = 0.406335
         7         6         5        36     9        0.000000        1.116759         3    ;  uncertainty k = 0.259442
         7         6         5        36     9      180.000000       -0.140077         4    ;  uncertainty k = 0.103748
         7         8         9        10     9        0.000000        4.723328         1    ;  uncertainty k = 1.912970
         7         8         9        10     9      180.000000       -2.614737         2    ;  uncertainty k = 1.487229
         7         8         9        10     9        0.000000        1.431159         3    ;  uncertainty k = 0.514985
         7         8         9        10     9      180.000000       -0.423552         4    ;  uncertainty k = 0.096335
         7         8         9        40     9        0.000000       -0.442858         1    ;  uncertainty k = 0.912992
         7         8         9        40     9      180.000000       -0.388334         2    ;  uncertainty k = 0.683793
         7         8         9        40     9        0.000000        1.303323         3    ;  uncertainty k = 0.178788
         7         8         9        40     9      180.000000       -0.327973         4    ;  uncertainty k = 0.089236
         7         8         9        41     9        0.000000       -0.528356         1    ;  uncertainty k = 0.562034
         7         8         9        41     9      180.000000       -3.098529         2    ;  uncertainty k = 0.732208
         7         8         9        41     9        0.000000        0.672612         3    ;  uncertainty k = 0.376964
         7         8         9        41     9      180.000000       -0.120109         4    ;  uncertainty k = 0.128470
         8         7         6        37     9        0.000000        0.357682         1    ;  uncertainty k = 0.432765
         8         7         6        37     9      180.000000       -0.916308         2    ;  uncertainty k = 0.270505
         8         7         6        37     9        0.000000        0.880633         3    ;  uncertainty k = 0.065594
         8         7         6        37     9      180.000000       -0.028919         4    ;  uncertainty k = 0.110898
         8         7         6        38     9        0.000000        0.357682         1    ;  uncertainty k = 0.432765
         8         7         6        38     9      180.000000       -0.916308         2    ;  uncertainty k = 0.270505
         8         7         6        38     9        0.000000        0.880633         3    ;  uncertainty k = 0.065594
         8         7         6        38     9      180.000000       -0.028919         4    ;  uncertainty k = 0.110898
         8         7        59        64     9        0.000000       -0.152005         1    ;  uncertainty k = 0.559430
         8         7        59        64     9      180.000000       -1.211034         2    ;  uncertainty k = 0.405866
         8         7        59        64     9        0.000000        1.172440         3    ;  uncertainty k = 0.127095
         8         7        59        64     9      180.000000       -0.031343         4    ;  uncertainty k = 0.110469
         8         7        59        65     9        0.000000       -0.152005         1    ;  uncertainty k = 0.559430
         8         7        59        65     9      180.000000       -1.211034         2    ;  uncertainty k = 0.405866
         8         7        59        65     9        0.000000        1.172440         3    ;  uncertainty k = 0.127095
         8         7        59        65     9      180.000000       -0.031343         4    ;  uncertainty k = 0.110469
         8         7        59        66     9        0.000000       -0.152005         1    ;  uncertainty k = 0.559430
         8         7        59        66     9      180.000000       -1.211034         2    ;  uncertainty k = 0.405866
         8         7        59        66     9        0.000000        1.172440         3    ;  uncertainty k = 0.127095
         8         7        59        66     9      180.000000       -0.031343         4    ;  uncertainty k = 0.110469
         8         9        10        11     9        0.000000        2.641769         1    ;  uncertainty k = 1.634502
         8         9        10        11     9      180.000000       -1.775126         2    ;  uncertainty k = 0.836307
         8         9        10        11     9        0.000000        0.445278         3    ;  uncertainty k = 0.461700
         8         9        10        11     9      180.000000        0.187090         4    ;  uncertainty k = 0.098145
         8         9        10        42     9        0.000000        2.532133         1    ;  uncertainty k = 1.171933
         8         9        10        42     9      180.000000       -4.276259         2    ;  uncertainty k = 0.856903
         8         9        10        42     9        0.000000        0.106217         3    ;  uncertainty k = 0.295659
         8         9        10        42     9      180.000000        0.098794         4    ;  uncertainty k = 0.126760
         8         9        40        61     9        0.000000       -1.354801         1    ;  uncertainty k = 0.516593
         8         9        40        61     9      180.000000       -1.226441         2    ;  uncertainty k = 0.156677
         8         9        40        61     9        0.000000        0.900980         3    ;  uncertainty k = 0.161418
         8         9        40        61     9      180.000000       -0.341057         4    ;  uncertainty k = 0.074439
         8         9        40        62     9        0.000000       -1.354801         1    ;  uncertainty k = 0.516593
         8         9        40        62     9      180.000000       -1.226441         2    ;  uncertainty k = 0.156677
         8         9        40        62     9        0.000000        0.900980         3    ;  uncertainty k = 0.161418
         8         9        40        62     9      180.000000       -0.341057         4    ;  uncertainty k = 0.074439
         8         9        40        63     9        0.000000       -1.354801         1    ;  uncertainty k = 0.516593
         8         9        40        63     9      180.000000       -1.226441         2    ;  uncertainty k = 0.156677
         8         9        40        63     9        0.000000        0.900980         3    ;  uncertainty k = 0.161418
         8         9        40        63     9      180.000000       -0.341057         4    ;  uncertainty k = 0.074439
         9         8         7        58     9        0.000000        0.748857         1    ;  uncertainty k = 1.026638
         9         8         7        58     9      180.000000       -0.774819         2    ;  uncertainty k = 0.515655
         9         8         7        58     9        0.000000        0.326385         3    ;  uncertainty k = 0.153810
         9         8         7        58     9      180.000000       -0.264427         4    ;  uncertainty k = 0.173366
         9         8         7        59     9        0.000000       -0.870488         1    ;  uncertainty k = 1.041079
         9         8         7        59     9      180.000000        0.009169         2    ;  uncertainty k = 0.715125
         9         8         7        59     9        0.000000        1.039092         3    ;  uncertainty k = 0.186954
         9         8         7        59     9      180.000000       -0.154286         4    ;  uncertainty k = 0.132832
         9        10        11        12     9        0.000000        2.423840         1    ;  uncertainty k = 0.773085
         9        10        11        12     9      180.000000        6.314186         2    ;  uncertainty k = 0.681752
         9        10        11        12     9        0.000000        0.009309         3    ;  uncertainty k = 0.299862
         9        10        11        12     9      180.000000        0.046550         4    ;  uncertainty k = 0.230124
         9        10        11        16     9        0.000000        3.496653         1    ;  uncertainty k = 0.617034
         9        10        11        16     9      180.000000        7.630891         2    ;  uncertainty k = 0.965995
         9        10        11        16     9        0.000000        0.551001         3    ;  uncertainty k = 0.467948
         9        10        11        16     9      180.000000        0.014170         4    ;  uncertainty k = 0.309500
        10         9         8        39     9        0.000000       -0.568741         1    ;  uncertainty k = 0.604752
        10         9         8        39     9      180.000000        0.018356         2    ;  uncertainty k = 0.427879
        10         9         8        39     9        0.000000        0.831104         3    ;  uncertainty k = 0.255741
        10         9         8        39     9      180.000000       -0.098142         4    ;  uncertainty k = 0.147223
        10         9         8        60     9        0.000000       -0.568741         1    ;  uncertainty k = 0.604752
        10         9         8        60     9      180.000000        0.018356         2    ;  uncertainty k = 0.427879
        10         9         8        60     9        0.000000        0.831104         3    ;  uncertainty k = 0.255741
        10         9         8        60     9      180.000000       -0.098142         4    ;  uncertainty k = 0.147223
        10         9        40        61     9        0.000000       -1.383678         1    ;  uncertainty k = 0.269747
        10         9        40        61     9      180.000000       -0.483847         2    ;  uncertainty k = 0.329066
        10         9        40        61     9        0.000000        1.232968         3    ;  uncertainty k = 0.160098
        10         9        40        61     9      180.000000       -0.237101         4    ;  uncertainty k = 0.176331
        10         9        40        62     9        0.000000       -1.383678         1    ;  uncertainty k = 0.269747
        10         9        40        62     9      180.000000       -0.483847         2    ;  uncertainty k = 0.329066
        10         9        40        62     9        0.000000        1.232968         3    ;  uncertainty k = 0.160098
        10         9        40        62     9      180.000000       -0.237101         4    ;  uncertainty k = 0.176331
        10         9        40        63     9        0.000000       -1.383678         1    ;  uncertainty k = 0.269747
        10         9        40        63     9      180.000000       -0.483847         2    ;  uncertainty k = 0.329066
        10         9        40        63     9        0.000000        1.232968         3    ;  uncertainty k = 0.160098
        10         9        40        63     9      180.000000       -0.237101         4    ;  uncertainty k = 0.176331
        10        11        12        13     9        0.000000        0.517304         1    ;  uncertainty k = 0.844625
        10        11        12        13     9      180.000000       10.048329         2    ;  uncertainty k = 0.393029
        10        11        12        13     9        0.000000        0.805083         3    ;  uncertainty k = 0.147904
        10        11        12        13     9      180.000000        1.573978         4    ;  uncertainty k = 0.278474
        10        11        12        43     9        0.000000       -0.180126         1    ;  uncertainty k = 0.269698
        10        11        12        43     9      180.000000        7.702942         2    ;  uncertainty k = 0.645116
        10        11        12        43     9        0.000000        0.763902         3    ;  uncertainty k = 0.111603
        10        11        12        43     9      180.000000        1.256918         4    ;  uncertainty k = 0.388970
        10        11        16        15     9        0.000000       -0.025941         1    ;  uncertainty k = 0.844213
        10        11        16        15     9      180.000000        7.343534         2    ;  uncertainty k = 0.702089
        10        11        16        15     9        0.000000        0.978189         3    ;  uncertainty k = 0.378079
        10        11        16        15     9      180.000000        1.559106         4    ;  uncertainty k = 0.243648
        10        11        16        17     9        0.000000       -0.489861         1    ;  uncertainty k = 0.727686
        10        11        16        17     9      180.000000        7.977068         2    ;  uncertainty k = 0.674569
        10        11        16        17     9        0.000000        1.191681         3    ;  uncertainty k = 0.441521
        10        11        16        17     9      180.000000        1.573172         4    ;  uncertainty k = 0.437374
        11        10         9        40     9        0.000000       -0.000804         1    ;  uncertainty k = 0.699997
        11        10         9        40     9      180.000000       -0.022463         2    ;  uncertainty k = 0.437627
        11        10         9        40     9        0.000000        0.813899         3    ;  uncertainty k = 0.250684
        11        10         9        40     9      180.000000        0.329449         4    ;  uncertainty k = 0.026464
        11        10         9        41     9        0.000000       -0.851035         1    ;  uncertainty k = 0.810847
        11        10         9        41     9      180.000000       -1.531831         2    ;  uncertainty k = 0.711115
        11        10         9        41     9        0.000000        0.481607         3    ;  uncertainty k = 0.073616
        11        10         9        41     9      180.000000        0.262454         4    ;  uncertainty k = 0.098318
        11        12        13        14     9        0.000000        0.331952         1    ;  uncertainty k = 0.344663
        11        12        13        14     9      180.000000        9.650934         2    ;  uncertainty k = 0.579902
        11        12        13        14     9        0.000000       -0.008669         3    ;  uncertainty k = 0.279896
        11        12        13        14     9      180.000000        1.163951         4    ;  uncertainty k = 0.284766
        11        12        13        20     9        0.000000        0.317112         1    ;  uncertainty k = 0.335362
        11        12        13        20     9      180.000000       10.482560         2    ;  uncertainty k = 0.688462
        11        12        13        20     9        0.000000        1.325434         3    ;  uncertainty k = 0.241277
        11        12        13        20     9      180.000000        1.574800         4    ;  uncertainty k = 0.391181
        11        16        15        14     9        0.000000        0.039279         1    ;  uncertainty k = 0.374050
        11        16        15        14     9      180.000000       10.142963         2    ;  uncertainty k = 0.130244
        11        16        15        14     9        0.000000       -0.241369         3    ;  uncertainty k = 0.539530
        11        16        15        14     9      180.000000        1.135376         4    ;  uncertainty k = 0.283528
        11        16        15        45     9        0.000000        0.184892         1    ;  uncertainty k = 0.246377
        11        16        15        45     9      180.000000        8.181405         2    ;  uncertainty k = 0.546987
        11        16        15        45     9        0.000000        1.071936         3    ;  uncertainty k = 0.305077
        11        16        15        45     9      180.000000        1.505098         4    ;  uncertainty k = 0.294854
        11        16        17        18     9        0.000000        0.280427         1    ;  uncertainty k = 1.192190
        11        16        17        18     9      180.000000        5.139239         2    ;  uncertainty k = 0.505855
        11        16        17        18     9        0.000000        0.450038         3    ;  uncertainty k = 0.360045
        11        16        17        18     9      180.000000        0.135553         4    ;  uncertainty k = 0.268384
        11        16        17        19     9        0.000000       -1.098432         1    ;  uncertainty k = 2.110678
        11        16        17        19     9      180.000000        3.135954         2    ;  uncertainty k = 1.174437
        11        16        17        19     9        0.000000        0.866714         3    ;  uncertainty k = 0.410516
        11        16        17        19     9      180.000000        0.315511         4    ;  uncertainty k = 0.193260
        12        11        10        42     9        0.000000        3.402144         1    ;  uncertainty k = 1.947020
        12        11        10        42     9      180.000000        5.642487         2    ;  uncertainty k = 0.376370
        12        11        10        42     9        0.000000        0.735034         3    ;  uncertainty k = 0.249397
        12        11        10        42     9      180.000000       -0.321295         4    ;  uncertainty k = 0.117203
        12        11        16        15     9        0.000000       -0.151988         1    ;  uncertainty k = 0.920168
        12        11        16        15     9      180.000000        5.380744         2    ;  uncertainty k = 0.719290
        12        11        16        15     9        0.000000        0.341630         3    ;  uncertainty k = 0.364324
        12        11        16        15     9      180.000000        1.441343         4    ;  uncertainty k = 0.302065
        12        11        16        17     9        0.000000        0.597490         1    ;  uncertainty k = 1.494402
        12        11        16        17     9      180.000000        5.302255         2    ;  uncertainty k = 0.587385
        12        11        16        17     9        0.000000        1.079342         3    ;  uncertainty k = 0.377742
        12        11        16        17     9      180.000000        1.697128         4    ;  uncertainty k = 0.124385
        12        13        14        15     9        0.000000       -0.029665         1    ;  uncertainty k = 0.305199
        12        13        14        15     9      180.000000        9.904443         2    ;  uncertainty k = 0.496921
        12        13        14        15     9        0.000000       -0.163324         3    ;  uncertainty k = 0.315173
        12        13        14        15     9      180.000000        1.129351         4    ;  uncertainty k = 0.245877
        12        13        14        44     9        0.000000        0.105656         1    ;  uncertainty k = 0.229365
        12        13        14        44     9      180.000000        6.669801         2    ;  uncertainty k = 0.977794
        12        13        14        44     9        0.000000        1.275936         3    ;  uncertainty k = 0.370425
        12        13        14        44     9      180.000000        1.558846         4    ;  uncertainty k = 0.299554
        12        13        20        21     9        0.000000        0.853920         1    ;  uncertainty k = 0.846735
        12        13        20        21     9      180.000000        5.123791         2    ;  uncertainty k = 0.135416
        12        13        20        21     9        0.000000        0.339780         3    ;  uncertainty k = 0.170568
        12        13        20        21     9      180.000000        0.329412         4    ;  uncertainty k = 0.071047
        13        12        11        16     9        0.000000        0.371855         1    ;  uncertainty k = 0.616313
        13        12        11        16     9      180.000000        6.337019         2    ;  uncertainty k = 0.902054
        13        12        11        16     9        0.000000        0.587001         3    ;  uncertainty k = 0.455775
        13        12        11        16     9      180.000000        1.357270         4    ;  uncertainty k = 0.270876
        13        14        15        16     9        0.000000       -0.106421         1    ;  uncertainty k = 0.283589
        13        14        15        16     9      180.000000       12.324961         2    ;  uncertainty k = 0.370204
        13        14        15        16     9        0.000000       -0.795779         3    ;  uncertainty k = 0.517184
        13        14        15        16     9      180.000000        0.869855         4    ;  uncertainty k = 0.322233
        13        14        15        45     9        0.000000       -0.111326         1    ;  uncertainty k = 0.371912
        13        14        15        45     9      180.000000        8.088319         2    ;  uncertainty k = 0.358999
        13        14        15        45     9        0.000000        1.005365         3    ;  uncertainty k = 0.229771
        13        14        15        45     9      180.000000        1.767343         4    ;  uncertainty k = 0.141766
        13        20        21        22     9        0.000000        1.593212         1    ;  uncertainty k = 0.870094
        13        20        21        22     9      180.000000        9.887006         2    ;  uncertainty k = 0.481149
        13        20        21        22     9        0.000000        1.467863         3    ;  uncertainty k = 0.565699
        13        20        21        22     9      180.000000        0.043056         4    ;  uncertainty k = 0.188250
        13        20        21        29     9        0.000000        0.904209         1    ;  uncertainty k = 0.990308
        13        20        21        29     9      180.000000        4.002821         2    ;  uncertainty k = 0.515565
        13        20        21        29     9        0.000000        1.137097         3    ;  uncertainty k = 0.269017
        13        20        21        29     9      180.000000        0.253587         4    ;  uncertainty k = 0.094421
        14        13        12        43     9        0.000000        0.266326         1    ;  uncertainty k = 0.272762
        14        13        12        43     9      180.000000        7.526698         2    ;  uncertainty k = 0.604425
        14        13        12        43     9        0.000000        1.355189         3    ;  uncertainty k = 0.409749
        14        13        12        43     9      180.000000        1.554641         4    ;  uncertainty k = 0.240595
        14        13        20        21     9        0.000000        1.059307         1    ;  uncertainty k = 1.166731
        14        13        20        21     9      180.000000        5.351594         2    ;  uncertainty k = 0.181102
        14        13        20        21     9        0.000000        0.470054         3    ;  uncertainty k = 0.232892
        14        13        20        21     9      180.000000        0.326812         4    ;  uncertainty k = 0.073684
        14        15        16        17     9        0.000000        0.101845         1    ;  uncertainty k = 0.557992
        14        15        16        17     9      180.000000        8.798193         2    ;  uncertainty k = 0.882937
        14        15        16        17     9        0.000000        1.443932         3    ;  uncertainty k = 0.469737
        14        15        16        17     9      180.000000        1.760547         4    ;  uncertainty k = 0.402023
        15        14        13        20     9        0.000000        0.108564         1    ;  uncertainty k = 0.272135
        15        14        13        20     9      180.000000        9.802684         2    ;  uncertainty k = 0.541646
        15        14        13        20     9        0.000000        1.306516         3    ;  uncertainty k = 0.462976
        15        14        13        20     9      180.000000        1.759888         4    ;  uncertainty k = 0.292485
        15        16        17        18     9        0.000000        0.305326         1    ;  uncertainty k = 0.415606
        15        16        17        18     9      180.000000        4.331986         2    ;  uncertainty k = 0.243884
        15        16        17        18     9        0.000000        0.344149         3    ;  uncertainty k = 0.263598
        15        16        17        18     9      180.000000        0.048439         4    ;  uncertainty k = 0.204232
        15        16        17        19     9        0.000000       -2.595933         1    ;  uncertainty k = 1.208800
        15        16        17        19     9      180.000000        4.057816         2    ;  uncertainty k = 0.812775
        15        16        17        19     9        0.000000        0.686372         3    ;  uncertainty k = 0.261441
        15        16        17        19     9      180.000000        0.284317         4    ;  uncertainty k = 0.206592
        16        11        10        42     9        0.000000        7.217727         1    ;  uncertainty k = 0.663901
        16        11        10        42     9      180.000000        4.938164         2    ;  uncertainty k = 0.782943
        16        11        10        42     9        0.000000        0.600783         3    ;  uncertainty k = 0.228808
        16        11        10        42     9      180.000000       -0.096631         4    ;  uncertainty k = 0.081351
        16        11        12        43     9        0.000000        0.551688         1    ;  uncertainty k = 0.849013
        16        11        12        43     9      180.000000        5.465691         2    ;  uncertainty k = 0.758409
        16        11        12        43     9        0.000000        1.363225         3    ;  uncertainty k = 0.289895
        16        11        12        43     9      180.000000        1.449315         4    ;  uncertainty k = 0.221130
        16        15        14        44     9        0.000000       -0.158873         1    ;  uncertainty k = 0.274851
        16        15        14        44     9      180.000000        8.031417         2    ;  uncertainty k = 0.496179
        16        15        14        44     9        0.000000        1.215723         3    ;  uncertainty k = 0.359263
        16        15        14        44     9      180.000000        1.704879         4    ;  uncertainty k = 0.155881
        16        17        18        46     9        0.000000        3.531772         1    ;  uncertainty k = 1.191650
        16        17        18        46     9      180.000000        7.207764         2    ;  uncertainty k = 0.635625
        16        17        18        46     9        0.000000        2.736816         3    ;  uncertainty k = 0.502565
        16        17        18        46     9      180.000000       -0.259577         4    ;  uncertainty k = 0.307052
        16        17        18        47     9        0.000000        3.531772         1    ;  uncertainty k = 1.191650
        16        17        18        47     9      180.000000        7.207764         2    ;  uncertainty k = 0.635625
        16        17        18        47     9        0.000000        2.736816         3    ;  uncertainty k = 0.502565
        16        17        18        47     9      180.000000       -0.259577         4    ;  uncertainty k = 0.307052
        17        16        15        45     9        0.000000       -0.133102         1    ;  uncertainty k = 0.397788
        17        16        15        45     9      180.000000        8.487981         2    ;  uncertainty k = 0.517805
        17        16        15        45     9        0.000000        1.064603         3    ;  uncertainty k = 0.204946
        17        16        15        45     9      180.000000        1.226506         4    ;  uncertainty k = 0.294498
        19        17        18        46     9        0.000000        4.288278         1    ;  uncertainty k = 0.786452
        19        17        18        46     9      180.000000       11.499130         2    ;  uncertainty k = 0.403752
        19        17        18        46     9        0.000000        2.102366         3    ;  uncertainty k = 0.130474
        19        17        18        46     9      180.000000        0.313821         4    ;  uncertainty k = 0.325036
        19        17        18        47     9        0.000000        4.288278         1    ;  uncertainty k = 0.786452
        19        17        18        47     9      180.000000       11.499130         2    ;  uncertainty k = 0.403752
        19        17        18        47     9        0.000000        2.102366         3    ;  uncertainty k = 0.130474
        19        17        18        47     9      180.000000        0.313821         4    ;  uncertainty k = 0.325036
        20         3         2        22     9        0.000000       -0.054829         1    ;  uncertainty k = 0.301933
        20         3         2        22     9      180.000000       20.636831         2    ;  uncertainty k = 0.632703
        20         3         2        22     9        0.000000       -4.986448         3    ;  uncertainty k = 0.860330
        20         3         2        22     9      180.000000        1.348086         4    ;  uncertainty k = 0.713696
        20         3         4        33     9        0.000000        0.084264         1    ;  uncertainty k = 0.369034
        20         3         4        33     9      180.000000        1.060788         2    ;  uncertainty k = 0.311963
        20         3         4        33     9        0.000000        0.446140         3    ;  uncertainty k = 0.153176
        20         3         4        33     9      180.000000        0.182043         4    ;  uncertainty k = 0.090548
        20         3         4        34     9        0.000000        0.084264         1    ;  uncertainty k = 0.369034
        20         3         4        34     9      180.000000        1.060788         2    ;  uncertainty k = 0.311963
        20         3         4        34     9        0.000000        0.446140         3    ;  uncertainty k = 0.153176
        20         3         4        34     9      180.000000        0.182043         4    ;  uncertainty k = 0.090548
        20        13        12        43     9        0.000000       -0.138495         1    ;  uncertainty k = 0.360227
        20        13        12        43     9      180.000000        7.936480         2    ;  uncertainty k = 0.316421
        20        13        12        43     9        0.000000        0.706090         3    ;  uncertainty k = 0.212595
        20        13        12        43     9      180.000000        1.225859         4    ;  uncertainty k = 0.269278
        20        13        14        44     9        0.000000       -0.099704         1    ;  uncertainty k = 0.318762
        20        13        14        44     9      180.000000        7.486877         2    ;  uncertainty k = 0.240960
        20        13        14        44     9        0.000000        0.734937         3    ;  uncertainty k = 0.238719
        20        13        14        44     9      180.000000        1.147861         4    ;  uncertainty k = 0.284133
        20        21        22        23     9        0.000000        0.486223         1    ;  uncertainty k = 1.099362
        20        21        22        23     9      180.000000        8.715478         2    ;  uncertainty k = 0.609696
        20        21        22        23     9        0.000000        0.906466         3    ;  uncertainty k = 0.971958
        20        21        22        23     9      180.000000        1.462955         4    ;  uncertainty k = 0.283592
        20        21        29        26     9        0.000000       -3.174112         1    ;  uncertainty k = 0.779563
        20        21        29        26     9      180.000000        0.246367         2    ;  uncertainty k = 0.541235
        20        21        29        26     9        0.000000        0.210351         3    ;  uncertainty k = 0.156256
        20        21        29        26     9      180.000000        0.178761         4    ;  uncertainty k = 0.054406
        20        21        29        56     9        0.000000       -0.146279         1    ;  uncertainty k = 0.476983
        20        21        29        56     9      180.000000        1.426171         2    ;  uncertainty k = 0.559112
        20        21        29        56     9        0.000000        0.507201         3    ;  uncertainty k = 0.195712
        20        21        29        56     9      180.000000        0.159041         4    ;  uncertainty k = 0.035696
        20        21        29        57     9        0.000000       -0.146279         1    ;  uncertainty k = 0.476983
        20        21        29        57     9      180.000000        1.426171         2    ;  uncertainty k = 0.559112
        20        21        29        57     9        0.000000        0.507201         3    ;  uncertainty k = 0.195712
        20        21        29        57     9      180.000000        0.159041         4    ;  uncertainty k = 0.035696
        21        22        23        24     9        0.000000        0.267850         1    ;  uncertainty k = 0.434076
        21        22        23        24     9      180.000000        5.596174         2    ;  uncertainty k = 0.479083
        21        22        23        24     9        0.000000        0.525521         3    ;  uncertainty k = 0.209090
        21        22        23        24     9      180.000000       -0.080038         4    ;  uncertainty k = 0.143103
        21        22        23        25     9        0.000000       -0.807203         1    ;  uncertainty k = 1.678478
        21        22        23        25     9      180.000000        3.101737         2    ;  uncertainty k = 0.502701
        21        22        23        25     9        0.000000       -0.584870         3    ;  uncertainty k = 0.363867
        21        22        23        25     9      180.000000        0.407747         4    ;  uncertainty k = 0.104996
        21        29        26        25     9        0.000000       -0.779351         1    ;  uncertainty k = 1.271616
        21        29        26        25     9      180.000000       -0.810022         2    ;  uncertainty k = 0.439293
        21        29        26        25     9        0.000000        1.125399         3    ;  uncertainty k = 0.236290
        21        29        26        25     9      180.000000       -0.565116         4    ;  uncertainty k = 0.070459
        21        29        26        27     9        0.000000       -2.059378         1    ;  uncertainty k = 0.851927
        21        29        26        27     9      180.000000        0.138693         2    ;  uncertainty k = 0.296506
        21        29        26        27     9        0.000000        0.960865         3    ;  uncertainty k = 0.087683
        21        29        26        27     9      180.000000       -0.140925         4    ;  uncertainty k = 0.099251
        21        29        26        28     9        0.000000       -2.059378         1    ;  uncertainty k = 0.851927
        21        29        26        28     9      180.000000        0.138693         2    ;  uncertainty k = 0.296506
        21        29        26        28     9        0.000000        0.960865         3    ;  uncertainty k = 0.087683
        21        29        26        28     9      180.000000       -0.140925         4    ;  uncertainty k = 0.099251
        22         2         1        30     9        0.000000       -0.318821         1    ;  uncertainty k = 0.317395
        22         2         1        30     9      180.000000        2.303151         2    ;  uncertainty k = 0.317882
        22         2         1        30     9        0.000000        0.542512         3    ;  uncertainty k = 0.089295
        22         2         1        30     9      180.000000        0.203216         4    ;  uncertainty k = 0.096951
        22         2         1        31     9        0.000000       -0.318821         1    ;  uncertainty k = 0.317395
        22         2         1        31     9      180.000000        2.303151         2    ;  uncertainty k = 0.317882
        22         2         1        31     9        0.000000        0.542512         3    ;  uncertainty k = 0.089295
        22         2         1        31     9      180.000000        0.203216         4    ;  uncertainty k = 0.096951
        22         2         1        32     9        0.000000       -0.318821         1    ;  uncertainty k = 0.317395
        22         2         1        32     9      180.000000        2.303151         2    ;  uncertainty k = 0.317882
        22         2         1        32     9        0.000000        0.542512         3    ;  uncertainty k = 0.089295
        22         2         1        32     9      180.000000        0.203216         4    ;  uncertainty k = 0.096951
        22        21        29        26     9        0.000000       -5.743625         1    ;  uncertainty k = 0.992785
        22        21        29        26     9      180.000000        3.423295         2    ;  uncertainty k = 0.718952
        22        21        29        26     9        0.000000       -0.241331         3    ;  uncertainty k = 0.408245
        22        21        29        26     9      180.000000       -0.102577         4    ;  uncertainty k = 0.192591
        22        21        29        56     9        0.000000        0.132939         1    ;  uncertainty k = 0.353732
        22        21        29        56     9      180.000000        1.654253         2    ;  uncertainty k = 0.268580
        22        21        29        56     9        0.000000        0.086087         3    ;  uncertainty k = 0.209388
        22        21        29        56     9      180.000000       -0.010768         4    ;  uncertainty k = 0.059037
        22        21        29        57     9        0.000000        0.132939         1    ;  uncertainty k = 0.353732
        22        21        29        57     9      180.000000        1.654253         2    ;  uncertainty k = 0.268580
        22        21        29        57     9        0.000000        0.086087         3    ;  uncertainty k = 0.209388
        22        21        29        57     9      180.000000       -0.010768         4    ;  uncertainty k = 0.059037
        22        23        25        26     9        0.000000       -1.816999         1    ;  uncertainty k = 1.169015
        22        23        25        26     9      180.000000        1.111719         2    ;  uncertainty k = 0.775326
        22        23        25        26     9        0.000000        0.530189         3    ;  uncertainty k = 0.364970
        22        23        25        26     9      180.000000        0.320395         4    ;  uncertainty k = 0.142559
        22        23        25        48     9        0.000000       -2.829393         1    ;  uncertainty k = 0.709562
        22        23        25        48     9      180.000000        2.442710         2    ;  uncertainty k = 0.465671
        22        23        25        48     9        0.000000        0.611080         3    ;  uncertainty k = 0.177240
        22        23        25        48     9      180.000000        0.073930         4    ;  uncertainty k = 0.113308
        22        23        25        49     9        0.000000       -2.829393         1    ;  uncertainty k = 0.709562
        22        23        25        49     9      180.000000        2.442710         2    ;  uncertainty k = 0.465671
        22        23        25        49     9        0.000000        0.611080         3    ;  uncertainty k = 0.177240
        22        23        25        49     9      180.000000        0.073930         4    ;  uncertainty k = 0.113308
        23        22        21        29     9        0.000000       -0.297424         1    ;  uncertainty k = 0.377298
        23        22        21        29     9      180.000000        7.571016         2    ;  uncertainty k = 0.845428
        23        22        21        29     9        0.000000        1.304070         3    ;  uncertainty k = 0.246622
        23        22        21        29     9      180.000000        0.870019         4    ;  uncertainty k = 0.242607
        23        25        26        27     9        0.000000       -3.108042         1    ;  uncertainty k = 1.074988
        23        25        26        27     9      180.000000        0.837403         2    ;  uncertainty k = 0.454399
        23        25        26        27     9        0.000000        0.620633         3    ;  uncertainty k = 0.203581
        23        25        26        27     9      180.000000       -0.175457         4    ;  uncertainty k = 0.135641
        23        25        26        28     9        0.000000       -3.108042         1    ;  uncertainty k = 1.074988
        23        25        26        28     9      180.000000        0.837403         2    ;  uncertainty k = 0.454399
        23        25        26        28     9        0.000000        0.620633         3    ;  uncertainty k = 0.203581
        23        25        26        28     9      180.000000       -0.175457         4    ;  uncertainty k = 0.135641
        23        25        26        29     9        0.000000        4.426180         1    ;  uncertainty k = 2.123988
        23        25        26        29     9      180.000000       -2.017071         2    ;  uncertainty k = 1.183009
        23        25        26        29     9        0.000000       -0.145895         3    ;  uncertainty k = 0.490515
        23        25        26        29     9      180.000000       -0.170555         4    ;  uncertainty k = 0.458127
        24        23        25        26     9        0.000000       -1.651345         1    ;  uncertainty k = 1.529623
        24        23        25        26     9      180.000000        4.493844         2    ;  uncertainty k = 0.895842
        24        23        25        26     9        0.000000        1.248224         3    ;  uncertainty k = 0.555966
        24        23        25        26     9      180.000000        0.499234         4    ;  uncertainty k = 0.193383
        24        23        25        48     9        0.000000        1.807907         1    ;  uncertainty k = 0.733952
        24        23        25        48     9      180.000000        4.455562         2    ;  uncertainty k = 0.196116
        24        23        25        48     9        0.000000        0.423865         3    ;  uncertainty k = 0.105725
        24        23        25        48     9      180.000000        0.189425         4    ;  uncertainty k = 0.055096
        24        23        25        49     9        0.000000        1.807907         1    ;  uncertainty k = 0.733952
        24        23        25        49     9      180.000000        4.455562         2    ;  uncertainty k = 0.196116
        24        23        25        49     9        0.000000        0.423865         3    ;  uncertainty k = 0.105725
        24        23        25        49     9      180.000000        0.189425         4    ;  uncertainty k = 0.055096
        25        26        27        50     9        0.000000       -0.849960         1    ;  uncertainty k = 0.267419
        25        26        27        50     9      180.000000       -0.697110         2    ;  uncertainty k = 0.151027
        25        26        27        50     9        0.000000        0.772063         3    ;  uncertainty k = 0.038120
        25        26        27        50     9      180.000000       -0.185621         4    ;  uncertainty k = 0.075834
        25        26        27        51     9        0.000000       -0.849960         1    ;  uncertainty k = 0.267419
        25        26        27        51     9      180.000000       -0.697110         2    ;  uncertainty k = 0.151027
        25        26        27        51     9        0.000000        0.772063         3    ;  uncertainty k = 0.038120
        25        26        27        51     9      180.000000       -0.185621         4    ;  uncertainty k = 0.075834
        25        26        27        52     9        0.000000       -0.849960         1    ;  uncertainty k = 0.267419
        25        26        27        52     9      180.000000       -0.697110         2    ;  uncertainty k = 0.151027
        25        26        27        52     9        0.000000        0.772063         3    ;  uncertainty k = 0.038120
        25        26        27        52     9      180.000000       -0.185621         4    ;  uncertainty k = 0.075834
        25        26        28        53     9        0.000000       -0.849960         1    ;  uncertainty k = 0.267419
        25        26        28        53     9      180.000000       -0.697110         2    ;  uncertainty k = 0.151027
        25        26        28        53     9        0.000000        0.772063         3    ;  uncertainty k = 0.038120
        25        26        28        53     9      180.000000       -0.185621         4    ;  uncertainty k = 0.075834
        25        26        28        54     9        0.000000       -0.849960         1    ;  uncertainty k = 0.267419
        25        26        28        54     9      180.000000       -0.697110         2    ;  uncertainty k = 0.151027
        25        26        28        54     9        0.000000        0.772063         3    ;  uncertainty k = 0.038120
        25        26        28        54     9      180.000000       -0.185621         4    ;  uncertainty k = 0.075834
        25        26        28        55     9        0.000000       -0.849960         1    ;  uncertainty k = 0.267419
        25        26        28        55     9      180.000000       -0.697110         2    ;  uncertainty k = 0.151027
        25        26        28        55     9        0.000000        0.772063         3    ;  uncertainty k = 0.038120
        25        26        28        55     9      180.000000       -0.185621         4    ;  uncertainty k = 0.075834
        25        26        29        56     9        0.000000       -0.565077         1    ;  uncertainty k = 0.337933
        25        26        29        56     9      180.000000       -0.552917         2    ;  uncertainty k = 0.313964
        25        26        29        56     9        0.000000        0.111029         3    ;  uncertainty k = 0.061469
        25        26        29        56     9      180.000000        0.013508         4    ;  uncertainty k = 0.088562
        25        26        29        57     9        0.000000       -0.565077         1    ;  uncertainty k = 0.337933
        25        26        29        57     9      180.000000       -0.552917         2    ;  uncertainty k = 0.313964
        25        26        29        57     9        0.000000        0.111029         3    ;  uncertainty k = 0.061469
        25        26        29        57     9      180.000000        0.013508         4    ;  uncertainty k = 0.088562
        27        26        25        48     9        0.000000       -0.380879         1    ;  uncertainty k = 0.148987
        27        26        25        48     9      180.000000        0.029116         2    ;  uncertainty k = 0.242309
        27        26        25        48     9        0.000000        0.376394         3    ;  uncertainty k = 0.083406
        27        26        25        48     9      180.000000       -0.141551         4    ;  uncertainty k = 0.073708
        27        26        25        49     9        0.000000       -0.380879         1    ;  uncertainty k = 0.148987
        27        26        25        49     9      180.000000        0.029116         2    ;  uncertainty k = 0.242309
        27        26        25        49     9        0.000000        0.376394         3    ;  uncertainty k = 0.083406
        27        26        25        49     9      180.000000       -0.141551         4    ;  uncertainty k = 0.073708
        27        26        28        53     9        0.000000       -1.100689         1    ;  uncertainty k = 0.262907
        27        26        28        53     9      180.000000       -0.104141         2    ;  uncertainty k = 0.144225
        27        26        28        53     9        0.000000        0.812856         3    ;  uncertainty k = 0.036112
        27        26        28        53     9      180.000000       -0.129298         4    ;  uncertainty k = 0.042322
        27        26        28        54     9        0.000000       -1.100689         1    ;  uncertainty k = 0.262907
        27        26        28        54     9      180.000000       -0.104141         2    ;  uncertainty k = 0.144225
        27        26        28        54     9        0.000000        0.812856         3    ;  uncertainty k = 0.036112
        27        26        28        54     9      180.000000       -0.129298         4    ;  uncertainty k = 0.042322
        27        26        28        55     9        0.000000       -1.100689         1    ;  uncertainty k = 0.262907
        27        26        28        55     9      180.000000       -0.104141         2    ;  uncertainty k = 0.144225
        27        26        28        55     9        0.000000        0.812856         3    ;  uncertainty k = 0.036112
        27        26        28        55     9      180.000000       -0.129298         4    ;  uncertainty k = 0.042322
        27        26        29        56     9        0.000000       -0.345052         1    ;  uncertainty k = 0.164725
        27        26        29        56     9      180.000000       -0.042992         2    ;  uncertainty k = 0.303596
        27        26        29        56     9        0.000000        0.449839         3    ;  uncertainty k = 0.094580
        27        26        29        56     9      180.000000       -0.101076         4    ;  uncertainty k = 0.068895
        27        26        29        57     9        0.000000       -0.345052         1    ;  uncertainty k = 0.164725
        27        26        29        57     9      180.000000       -0.042992         2    ;  uncertainty k = 0.303596
        27        26        29        57     9        0.000000        0.449839         3    ;  uncertainty k = 0.094580
        27        26        29        57     9      180.000000       -0.101076         4    ;  uncertainty k = 0.068895
        28        26        25        48     9        0.000000       -0.380879         1    ;  uncertainty k = 0.148987
        28        26        25        48     9      180.000000        0.029116         2    ;  uncertainty k = 0.242309
        28        26        25        48     9        0.000000        0.376394         3    ;  uncertainty k = 0.083406
        28        26        25        48     9      180.000000       -0.141551         4    ;  uncertainty k = 0.073708
        28        26        25        49     9        0.000000       -0.380879         1    ;  uncertainty k = 0.148987
        28        26        25        49     9      180.000000        0.029116         2    ;  uncertainty k = 0.242309
        28        26        25        49     9        0.000000        0.376394         3    ;  uncertainty k = 0.083406
        28        26        25        49     9      180.000000       -0.141551         4    ;  uncertainty k = 0.073708
        28        26        27        50     9        0.000000       -1.100689         1    ;  uncertainty k = 0.262907
        28        26        27        50     9      180.000000       -0.104141         2    ;  uncertainty k = 0.144225
        28        26        27        50     9        0.000000        0.812856         3    ;  uncertainty k = 0.036112
        28        26        27        50     9      180.000000       -0.129298         4    ;  uncertainty k = 0.042322
        28        26        27        51     9        0.000000       -1.100689         1    ;  uncertainty k = 0.262907
        28        26        27        51     9      180.000000       -0.104141         2    ;  uncertainty k = 0.144225
        28        26        27        51     9        0.000000        0.812856         3    ;  uncertainty k = 0.036112
        28        26        27        51     9      180.000000       -0.129298         4    ;  uncertainty k = 0.042322
        28        26        27        52     9        0.000000       -1.100689         1    ;  uncertainty k = 0.262907
        28        26        27        52     9      180.000000       -0.104141         2    ;  uncertainty k = 0.144225
        28        26        27        52     9        0.000000        0.812856         3    ;  uncertainty k = 0.036112
        28        26        27        52     9      180.000000       -0.129298         4    ;  uncertainty k = 0.042322
        28        26        29        56     9        0.000000       -0.345052         1    ;  uncertainty k = 0.164725
        28        26        29        56     9      180.000000       -0.042992         2    ;  uncertainty k = 0.303596
        28        26        29        56     9        0.000000        0.449839         3    ;  uncertainty k = 0.094580
        28        26        29        56     9      180.000000       -0.101076         4    ;  uncertainty k = 0.068895
        28        26        29        57     9        0.000000       -0.345052         1    ;  uncertainty k = 0.164725
        28        26        29        57     9      180.000000       -0.042992         2    ;  uncertainty k = 0.303596
        28        26        29        57     9        0.000000        0.449839         3    ;  uncertainty k = 0.094580
        28        26        29        57     9      180.000000       -0.101076         4    ;  uncertainty k = 0.068895
        29        26        25        48     9        0.000000       -0.493419         1    ;  uncertainty k = 0.248638
        29        26        25        48     9      180.000000       -0.717372         2    ;  uncertainty k = 0.190838
        29        26        25        48     9        0.000000       -0.027739         3    ;  uncertainty k = 0.072348
        29        26        25        48     9      180.000000       -0.010183         4    ;  uncertainty k = 0.107964
        29        26        25        49     9        0.000000       -0.493419         1    ;  uncertainty k = 0.248638
        29        26        25        49     9      180.000000       -0.717372         2    ;  uncertainty k = 0.190838
        29        26        25        49     9        0.000000       -0.027739         3    ;  uncertainty k = 0.072348
        29        26        25        49     9      180.000000       -0.010183         4    ;  uncertainty k = 0.107964
        29        26        27        50     9        0.000000       -0.498537         1    ;  uncertainty k = 0.143112
        29        26        27        50     9      180.000000       -0.848272         2    ;  uncertainty k = 0.184452
        29        26        27        50     9        0.000000        0.727631         3    ;  uncertainty k = 0.102119
        29        26        27        50     9      180.000000       -0.161619         4    ;  uncertainty k = 0.028801
        29        26        27        51     9        0.000000       -0.498537         1    ;  uncertainty k = 0.143112
        29        26        27        51     9      180.000000       -0.848272         2    ;  uncertainty k = 0.184452
        29        26        27        51     9        0.000000        0.727631         3    ;  uncertainty k = 0.102119
        29        26        27        51     9      180.000000       -0.161619         4    ;  uncertainty k = 0.028801
        29        26        27        52     9        0.000000       -0.498537         1    ;  uncertainty k = 0.143112
        29        26        27        52     9      180.000000       -0.848272         2    ;  uncertainty k = 0.184452
        29        26        27        52     9        0.000000        0.727631         3    ;  uncertainty k = 0.102119
        29        26        27        52     9      180.000000       -0.161619         4    ;  uncertainty k = 0.028801
        29        26        28        53     9        0.000000       -0.498537         1    ;  uncertainty k = 0.143112
        29        26        28        53     9      180.000000       -0.848272         2    ;  uncertainty k = 0.184452
        29        26        28        53     9        0.000000        0.727631         3    ;  uncertainty k = 0.102119
        29        26        28        53     9      180.000000       -0.161619         4    ;  uncertainty k = 0.028801
        29        26        28        54     9        0.000000       -0.498537         1    ;  uncertainty k = 0.143112
        29        26        28        54     9      180.000000       -0.848272         2    ;  uncertainty k = 0.184452
        29        26        28        54     9        0.000000        0.727631         3    ;  uncertainty k = 0.102119
        29        26        28        54     9      180.000000       -0.161619         4    ;  uncertainty k = 0.028801
        29        26        28        55     9        0.000000       -0.498537         1    ;  uncertainty k = 0.143112
        29        26        28        55     9      180.000000       -0.848272         2    ;  uncertainty k = 0.184452
        29        26        28        55     9        0.000000        0.727631         3    ;  uncertainty k = 0.102119
        29        26        28        55     9      180.000000       -0.161619         4    ;  uncertainty k = 0.028801
        33         4         5        35     9        0.000000        0.827560         1    ;  uncertainty k = 0.221956
        33         4         5        35     9      180.000000       -0.384041         2    ;  uncertainty k = 0.287881
        33         4         5        35     9        0.000000        0.243167         3    ;  uncertainty k = 0.057188
        33         4         5        35     9      180.000000        0.084511         4    ;  uncertainty k = 0.041092
        33         4         5        36     9        0.000000        0.827560         1    ;  uncertainty k = 0.221956
        33         4         5        36     9      180.000000       -0.384041         2    ;  uncertainty k = 0.287881
        33         4         5        36     9        0.000000        0.243167         3    ;  uncertainty k = 0.057188
        33         4         5        36     9      180.000000        0.084511         4    ;  uncertainty k = 0.041092
        34         4         5        35     9        0.000000        0.827560         1    ;  uncertainty k = 0.221956
        34         4         5        35     9      180.000000       -0.384041         2    ;  uncertainty k = 0.287881
        34         4         5        35     9        0.000000        0.243167         3    ;  uncertainty k = 0.057188
        34         4         5        35     9      180.000000        0.084511         4    ;  uncertainty k = 0.041092
        34         4         5        36     9        0.000000        0.827560         1    ;  uncertainty k = 0.221956
        34         4         5        36     9      180.000000       -0.384041         2    ;  uncertainty k = 0.287881
        34         4         5        36     9        0.000000        0.243167         3    ;  uncertainty k = 0.057188
        34         4         5        36     9      180.000000        0.084511         4    ;  uncertainty k = 0.041092
        35         5         6        37     9        0.000000        0.482212         1    ;  uncertainty k = 0.292427
        35         5         6        37     9      180.000000       -0.025989         2    ;  uncertainty k = 0.406546
        35         5         6        37     9        0.000000        0.127233         3    ;  uncertainty k = 0.119507
        35         5         6        37     9      180.000000        0.029307         4    ;  uncertainty k = 0.066930
        35         5         6        38     9        0.000000        0.482212         1    ;  uncertainty k = 0.292427
        35         5         6        38     9      180.000000       -0.025989         2    ;  uncertainty k = 0.406546
        35         5         6        38     9        0.000000        0.127233         3    ;  uncertainty k = 0.119507
        35         5         6        38     9      180.000000        0.029307         4    ;  uncertainty k = 0.066930
        36         5         6        37     9        0.000000        0.482212         1    ;  uncertainty k = 0.292427
        36         5         6        37     9      180.000000       -0.025989         2    ;  uncertainty k = 0.406546
        36         5         6        37     9        0.000000        0.127233         3    ;  uncertainty k = 0.119507
        36         5         6        37     9      180.000000        0.029307         4    ;  uncertainty k = 0.066930
        36         5         6        38     9        0.000000        0.482212         1    ;  uncertainty k = 0.292427
        36         5         6        38     9      180.000000       -0.025989         2    ;  uncertainty k = 0.406546
        36         5         6        38     9        0.000000        0.127233         3    ;  uncertainty k = 0.119507
        36         5         6        38     9      180.000000        0.029307         4    ;  uncertainty k = 0.066930
        37         6         7        58     9        0.000000        0.825076         1    ;  uncertainty k = 0.629325
        37         6         7        58     9      180.000000       -0.538495         2    ;  uncertainty k = 0.313616
        37         6         7        58     9        0.000000       -0.017835         3    ;  uncertainty k = 0.170502
        37         6         7        58     9      180.000000       -0.028903         4    ;  uncertainty k = 0.110233
        37         6         7        59     9        0.000000       -0.403339         1    ;  uncertainty k = 0.372819
        37         6         7        59     9      180.000000       -0.500306         2    ;  uncertainty k = 0.418836
        37         6         7        59     9        0.000000        0.944538         3    ;  uncertainty k = 0.076903
        37         6         7        59     9      180.000000        0.003118         4    ;  uncertainty k = 0.151067
        38         6         7        58     9        0.000000        0.825076         1    ;  uncertainty k = 0.629325
        38         6         7        58     9      180.000000       -0.538495         2    ;  uncertainty k = 0.313616
        38         6         7        58     9        0.000000       -0.017835         3    ;  uncertainty k = 0.170502
        38         6         7        58     9      180.000000       -0.028903         4    ;  uncertainty k = 0.110233
        38         6         7        59     9        0.000000       -0.403339         1    ;  uncertainty k = 0.372819
        38         6         7        59     9      180.000000       -0.500306         2    ;  uncertainty k = 0.418836
        38         6         7        59     9        0.000000        0.944538         3    ;  uncertainty k = 0.076903
        38         6         7        59     9      180.000000        0.003118         4    ;  uncertainty k = 0.151067
        39         8         7        58     9        0.000000        0.672337         1    ;  uncertainty k = 0.767608
        39         8         7        58     9      180.000000       -0.467819         2    ;  uncertainty k = 0.306944
        39         8         7        58     9        0.000000       -0.075994         3    ;  uncertainty k = 0.206356
        39         8         7        58     9      180.000000       -0.022430         4    ;  uncertainty k = 0.123580
        39         8         7        59     9        0.000000       -0.603553         1    ;  uncertainty k = 0.388000
        39         8         7        59     9      180.000000       -0.246143         2    ;  uncertainty k = 0.503768
        39         8         7        59     9        0.000000        0.909597         3    ;  uncertainty k = 0.104370
        39         8         7        59     9      180.000000       -0.017597         4    ;  uncertainty k = 0.152206
        39         8         9        40     9        0.000000       -1.913936         1    ;  uncertainty k = 0.616815
        39         8         9        40     9      180.000000        0.313098         2    ;  uncertainty k = 0.329685
        39         8         9        40     9        0.000000        0.559103         3    ;  uncertainty k = 0.120384
        39         8         9        40     9      180.000000       -0.127762         4    ;  uncertainty k = 0.079913
        39         8         9        41     9        0.000000       -0.185739         1    ;  uncertainty k = 0.287886
        39         8         9        41     9      180.000000       -0.096371         2    ;  uncertainty k = 0.381143
        39         8         9        41     9        0.000000        0.134903         3    ;  uncertainty k = 0.194083
        39         8         9        41     9      180.000000       -0.002545         4    ;  uncertainty k = 0.085216
        40         9         8        60     9        0.000000       -1.913936         1    ;  uncertainty k = 0.616815
        40         9         8        60     9      180.000000        0.313098         2    ;  uncertainty k = 0.329685
        40         9         8        60     9        0.000000        0.559103         3    ;  uncertainty k = 0.120384
        40         9         8        60     9      180.000000       -0.127762         4    ;  uncertainty k = 0.079913
        40         9        10        42     9        0.000000        3.096202         1    ;  uncertainty k = 0.869939
        40         9        10        42     9      180.000000       -1.603989         2    ;  uncertainty k = 0.596631
        40         9        10        42     9        0.000000        0.503439         3    ;  uncertainty k = 0.239385
        40         9        10        42     9      180.000000        0.260156         4    ;  uncertainty k = 0.036425
        41         9         8        60     9        0.000000       -0.185739         1    ;  uncertainty k = 0.287886
        41         9         8        60     9      180.000000       -0.096371         2    ;  uncertainty k = 0.381143
        41         9         8        60     9        0.000000        0.134903         3    ;  uncertainty k = 0.194083
        41         9         8        60     9      180.000000       -0.002545         4    ;  uncertainty k = 0.085216
        41         9        10        42     9        0.000000        2.493574         1    ;  uncertainty k = 1.152204
        41         9        10        42     9      180.000000       -2.463538         2    ;  uncertainty k = 0.484236
        41         9        10        42     9        0.000000        0.049186         3    ;  uncertainty k = 0.141541
        41         9        10        42     9      180.000000        0.051767         4    ;  uncertainty k = 0.075515
        41         9        40        61     9        0.000000        0.959722         1    ;  uncertainty k = 0.408504
        41         9        40        61     9      180.000000       -0.896286         2    ;  uncertainty k = 0.196504
        41         9        40        61     9        0.000000        0.250767         3    ;  uncertainty k = 0.195325
        41         9        40        61     9      180.000000       -0.024512         4    ;  uncertainty k = 0.089292
        41         9        40        62     9        0.000000        0.959722         1    ;  uncertainty k = 0.408504
        41         9        40        62     9      180.000000       -0.896286         2    ;  uncertainty k = 0.196504
        41         9        40        62     9        0.000000        0.250767         3    ;  uncertainty k = 0.195325
        41         9        40        62     9      180.000000       -0.024512         4    ;  uncertainty k = 0.089292
        41         9        40        63     9        0.000000        0.959722         1    ;  uncertainty k = 0.408504
        41         9        40        63     9      180.000000       -0.896286         2    ;  uncertainty k = 0.196504
        41         9        40        63     9        0.000000        0.250767         3    ;  uncertainty k = 0.195325
        41         9        40        63     9      180.000000       -0.024512         4    ;  uncertainty k = 0.089292
        44        14        15        45     9        0.000000       -0.161457         1    ;  uncertainty k = 0.314301
        44        14        15        45     9      180.000000        7.599374         2    ;  uncertainty k = 0.529227
        44        14        15        45     9        0.000000       -0.373990         3    ;  uncertainty k = 0.212621
        44        14        15        45     9      180.000000        0.361659         4    ;  uncertainty k = 0.257633
        58         7         8        60     9        0.000000        0.672337         1    ;  uncertainty k = 0.767608
        58         7         8        60     9      180.000000       -0.467819         2    ;  uncertainty k = 0.306944
        58         7         8        60     9        0.000000       -0.075994         3    ;  uncertainty k = 0.206356
        58         7         8        60     9      180.000000       -0.022430         4    ;  uncertainty k = 0.123580
        58         7        59        64     9        0.000000        0.032678         1    ;  uncertainty k = 0.558275
        58         7        59        64     9      180.000000       -0.520951         2    ;  uncertainty k = 0.408200
        58         7        59        64     9        0.000000        0.355697         3    ;  uncertainty k = 0.062405
        58         7        59        64     9      180.000000        0.070755         4    ;  uncertainty k = 0.109239
        58         7        59        65     9        0.000000        0.032678         1    ;  uncertainty k = 0.558275
        58         7        59        65     9      180.000000       -0.520951         2    ;  uncertainty k = 0.408200
        58         7        59        65     9        0.000000        0.355697         3    ;  uncertainty k = 0.062405
        58         7        59        65     9      180.000000        0.070755         4    ;  uncertainty k = 0.109239
        58         7        59        66     9        0.000000        0.032678         1    ;  uncertainty k = 0.558275
        58         7        59        66     9      180.000000       -0.520951         2    ;  uncertainty k = 0.408200
        58         7        59        66     9        0.000000        0.355697         3    ;  uncertainty k = 0.062405
        58         7        59        66     9      180.000000        0.070755         4    ;  uncertainty k = 0.109239
        59         7         8        60     9        0.000000       -0.603553         1    ;  uncertainty k = 0.388000
        59         7         8        60     9      180.000000       -0.246143         2    ;  uncertainty k = 0.503768
        59         7         8        60     9        0.000000        0.909597         3    ;  uncertainty k = 0.104370
        59         7         8        60     9      180.000000       -0.017597         4    ;  uncertainty k = 0.152206

[ dihedrals ] ; impropers
;       ai        aj        ak        al funct           phase               k        pn
         2         1         3        22     4      180.000000        6.760364         2    ;  uncertainty k = 0.228144
         2         3        22         1     4      180.000000        6.760364         2    ;  uncertainty k = 0.228144
         2        22         1         3     4      180.000000        6.760364         2    ;  uncertainty k = 0.228144
         3         2         4        20     4      180.000000        3.375287         2    ;  uncertainty k = 0.360903
         3         4        20         2     4      180.000000        3.375287         2    ;  uncertainty k = 0.360903
         3        20         2         4     4      180.000000        3.375287         2    ;  uncertainty k = 0.360903
        11        10        12        16     4      180.000000       22.973902         2    ;  uncertainty k = 0.110453
        11        12        16        10     4      180.000000       22.973902         2    ;  uncertainty k = 0.110453
        11        16        10        12     4      180.000000       22.973902         2    ;  uncertainty k = 0.110453
        12        11        13        43     4      180.000000        1.896358         2    ;  uncertainty k = 0.604219
        12        13        43        11     4      180.000000        1.896358         2    ;  uncertainty k = 0.604219
        12        43        11        13     4      180.000000        1.896358         2    ;  uncertainty k = 0.604219
        13        12        14        20     4      180.000000       17.378641         2    ;  uncertainty k = 0.029598
        13        14        20        12     4      180.000000       17.378641         2    ;  uncertainty k = 0.029598
        13        20        12        14     4      180.000000       17.378641         2    ;  uncertainty k = 0.029598
        14        13        15        44     4      180.000000        1.764889         2    ;  uncertainty k = 0.320932
        14        15        44        13     4      180.000000        1.764889         2    ;  uncertainty k = 0.320932
        14        44        13        15     4      180.000000        1.764889         2    ;  uncertainty k = 0.320932
        15        14        16        45     4      180.000000        4.683359         2    ;  uncertainty k = 0.302416
        15        16        45        14     4      180.000000        4.683359         2    ;  uncertainty k = 0.302416
        15        45        14        16     4      180.000000        4.683359         2    ;  uncertainty k = 0.302416
        16        11        15        17     4      180.000000        6.337753         2    ;  uncertainty k = 0.337186
        16        15        17        11     4      180.000000        6.337753         2    ;  uncertainty k = 0.337186
        16        17        11        15     4      180.000000        6.337753         2    ;  uncertainty k = 0.337186
        17        16        18        19     4      180.000000       54.206414         2    ;  uncertainty k = 0.049320
        17        18        19        16     4      180.000000       54.206414         2    ;  uncertainty k = 0.049320
        17        19        16        18     4      180.000000       54.206414         2    ;  uncertainty k = 0.049320
        20         3        13        21     4      180.000000        1.653401         2    ;  uncertainty k = 1.042382
        20        13        21         3     4      180.000000        1.653401         2    ;  uncertainty k = 1.042382
        20        21         3        13     4      180.000000        1.653401         2    ;  uncertainty k = 1.042382
        21        20        22        29     4      180.000000        6.726894         2    ;  uncertainty k = 0.212828
        21        22        29        20     4      180.000000        6.726894         2    ;  uncertainty k = 0.212828
        21        29        20        22     4      180.000000        6.726894         2    ;  uncertainty k = 0.212828
        23        22        24        25     4      180.000000       55.461398         2    ;  uncertainty k = 0.044608
        23        24        25        22     4      180.000000       55.461398         2    ;  uncertainty k = 0.044608
        23        25        22        24     4      180.000000       55.461398         2    ;  uncertainty k = 0.044608

[ pairs ]
;       ai        aj funct
         1         4     1
         1        20     1
         1        21     1
         1        23     1
         2         5     1
         2        13     1
         2        24     1
         2        25     1
         2        29     1
         2        33     1
         2        34     1
         3         6     1
         3        12     1
         3        14     1
         3        23     1
         3        29     1
         3        30     1
         3        31     1
         3        32     1
         3        35     1
         3        36     1
         4         7     1
         4        13     1
         4        21     1
         4        22     1
         4        37     1
         4        38     1
         5         8     1
         5        20     1
         5        58     1
         5        59     1
         6         9     1
         6        33     1
         6        34     1
         6        39     1
         6        60     1
         6        64     1
         6        65     1
         6        66     1
         7        10     1
         7        35     1
         7        36     1
         7        40     1
         7        41     1
         8        11     1
         8        37     1
         8        38     1
         8        42     1
         8        61     1
         8        62     1
         8        63     1
         8        64     1
         8        65     1
         8        66     1
         9        12     1
         9        16     1
         9        58     1
         9        59     1
        10        13     1
        10        15     1
        10        17     1
        10        39     1
        10        43     1
        10        60     1
        10        61     1
        10        62     1
        10        63     1
        11        14     1
        11        18     1
        11        19     1
        11        20     1
        11        40     1
        11        41     1
        11        45     1
        12        15     1
        12        17     1
        12        21     1
        12        42     1
        12        44     1
        13        16     1
        13        22     1
        13        29     1
        13        45     1
        14        17     1
        14        21     1
        14        43     1
        15        18     1
        15        19     1
        15        20     1
        16        42     1
        16        43     1
        16        44     1
        16        46     1
        16        47     1
        17        45     1
        19        46     1
        19        47     1
        20        23     1
        20        26     1
        20        33     1
        20        34     1
        20        43     1
        20        44     1
        20        56     1
        20        57     1
        21        24     1
        21        25     1
        21        27     1
        21        28     1
        22        26     1
        22        30     1
        22        31     1
        22        32     1
        22        48     1
        22        49     1
        22        56     1
        22        57     1
        23        27     1
        23        28     1
        23        29     1
        24        26     1
        24        48     1
        24        49     1
        25        50     1
        25        51     1
        25        52     1
        25        53     1
        25        54     1
        25        55     1
        25        56     1
        25        57     1
        27        48     1
        27        49     1
        27        53     1
        27        54     1
        27        55     1
        27        56     1
        27        57     1
        28        48     1
        28        49     1
        28        50     1
        28        51     1
        28        52     1
        28        56     1
        28        57     1
        29        48     1
        29        49     1
        29        50     1
        29        51     1
        29        52     1
        29        53     1
        29        54     1
        29        55     1
        33        35     1
        33        36     1
        34        35     1
        34        36     1
        35        37     1
        35        38     1
        36        37     1
        36        38     1
        37        58     1
        37        59     1
        38        58     1
        38        59     1
        39        40     1
        39        41     1
        39        58     1
        39        59     1
        40        42     1
        40        60     1
        41        42     1
        41        60     1
        41        61     1
        41        62     1
        41        63     1
        44        45     1
        58        60     1
        58        64     1
        58        65     1
        58        66     1
        59        60     1
