; ITP file created by ByteFF-joint-25, 2025-07-14 11:32:31.876922

[ atomtypes ]
;name           bonded.type        at.num        mass        charge   ptype           sigma         epsilon
 c0bf                                   6      0.0000       0.00000       A     3.39771e-01     4.50975e-01    ;  uncertainty sigma = 0.000006, epsilon = 0.000758
 c1bf                                   6      0.0000       0.00000       A     3.31511e-01     4.12736e-01    ;  uncertainty sigma = 0.000007, epsilon = 0.000929
 c2bf                                   6      0.0000       0.00000       A     3.31519e-01     4.13686e-01    ;  uncertainty sigma = 0.000011, epsilon = 0.000540
 c3bf                                   6      0.0000       0.00000       A     3.39733e-01     4.50440e-01    ;  uncertainty sigma = 0.000008, epsilon = 0.001118
 c4bf                                   6      0.0000       0.00000       A     3.39777e-01     4.51575e-01    ;  uncertainty sigma = 0.000025, epsilon = 0.000929
 c5bf                                   6      0.0000       0.00000       A     3.39740e-01     4.51621e-01    ;  uncertainty sigma = 0.000011, epsilon = 0.001014
 n6bf                                   7      0.0000       0.00000       A     2.67933e-01     7.09367e+00    ;  uncertainty sigma = 0.000125, epsilon = 0.014760
 c7bf                                   6      0.0000       0.00000       A     3.39739e-01     4.50558e-01    ;  uncertainty sigma = 0.000009, epsilon = 0.000600
 c8bf                                   6      0.0000       0.00000       A     3.39731e-01     4.51605e-01    ;  uncertainty sigma = 0.000054, epsilon = 0.002553
 c9bf                                   6      0.0000       0.00000       A     3.39745e-01     4.49466e-01    ;  uncertainty sigma = 0.000071, epsilon = 0.002414
 n10bf                                  7      0.0000       0.00000       A     3.27848e-01     6.41436e-01    ;  uncertainty sigma = 0.000063, epsilon = 0.005651
 c11bf                                  6      0.0000       0.00000       A     3.31567e-01     4.13103e-01    ;  uncertainty sigma = 0.000030, epsilon = 0.000830
 c12bf                                  6      0.0000       0.00000       A     3.31530e-01     4.13416e-01    ;  uncertainty sigma = 0.000012, epsilon = 0.001150
 c13bf                                  6      0.0000       0.00000       A     3.31548e-01     4.13199e-01    ;  uncertainty sigma = 0.000012, epsilon = 0.001174
 c14bf                                  6      0.0000       0.00000       A     3.31527e-01     4.13250e-01    ;  uncertainty sigma = 0.000006, epsilon = 0.000602
 c15bf                                  6      0.0000       0.00000       A     3.31513e-01     4.13571e-01    ;  uncertainty sigma = 0.000004, epsilon = 0.001064
 c16bf                                  6      0.0000       0.00000       A     3.31514e-01     4.12958e-01    ;  uncertainty sigma = 0.000020, epsilon = 0.001944
 c17bf                                  6      0.0000       0.00000       A     3.31599e-01     4.13237e-01    ;  uncertainty sigma = 0.000040, epsilon = 0.000629
 n18bf                                  7      0.0000       0.00000       A     3.36058e-01     3.53914e-01    ;  uncertainty sigma = 0.000035, epsilon = 0.002199
 o19bf                                  8      0.0000       0.00000       A     3.04824e-01     6.12666e-01    ;  uncertainty sigma = 0.000020, epsilon = 0.001529
 n20bf                                  7      0.0000       0.00000       A     3.20640e-01     8.55543e-01    ;  uncertainty sigma = 0.000043, epsilon = 0.001517
 c21bf                                  6      0.0000       0.00000       A     3.31491e-01     4.12753e-01    ;  uncertainty sigma = 0.000011, epsilon = 0.001565
 c22bf                                  6      0.0000       0.00000       A     3.31525e-01     4.12979e-01    ;  uncertainty sigma = 0.000017, epsilon = 0.000933
 c23bf                                  6      0.0000       0.00000       A     3.31520e-01     4.13800e-01    ;  uncertainty sigma = 0.000012, epsilon = 0.000860
 o24bf                                  8      0.0000       0.00000       A     3.04813e-01     6.11403e-01    ;  uncertainty sigma = 0.000026, epsilon = 0.002112
 c25bf                                  6      0.0000       0.00000       A     3.39794e-01     4.50514e-01    ;  uncertainty sigma = 0.000014, epsilon = 0.001647
 c26bf                                  6      0.0000       0.00000       A     3.39757e-01     4.49586e-01    ;  uncertainty sigma = 0.000020, epsilon = 0.001126
 c27bf                                  6      0.0000       0.00000       A     3.39753e-01     4.50877e-01    ;  uncertainty sigma = 0.000007, epsilon = 0.000776
 c28bf                                  6      0.0000       0.00000       A     3.39753e-01     4.50877e-01    ;  uncertainty sigma = 0.000007, epsilon = 0.000776
 c29bf                                  6      0.0000       0.00000       A     3.39763e-01     4.50525e-01    ;  uncertainty sigma = 0.000013, epsilon = 0.000867
 h30bf                                  1      0.0000       0.00000       A     2.60040e-01     8.67373e-02    ;  uncertainty sigma = 0.000006, epsilon = 0.000499
 h31bf                                  1      0.0000       0.00000       A     2.60040e-01     8.67373e-02    ;  uncertainty sigma = 0.000006, epsilon = 0.000499
 h32bf                                  1      0.0000       0.00000       A     2.60040e-01     8.67373e-02    ;  uncertainty sigma = 0.000006, epsilon = 0.000499
 h33bf                                  1      0.0000       0.00000       A     2.59968e-01     8.70554e-02    ;  uncertainty sigma = 0.000036, epsilon = 0.001257
 h34bf                                  1      0.0000       0.00000       A     2.59968e-01     8.70554e-02    ;  uncertainty sigma = 0.000036, epsilon = 0.001257
 h35bf                                  1      0.0000       0.00000       A     2.60055e-01     8.66900e-02    ;  uncertainty sigma = 0.000040, epsilon = 0.000816
 h36bf                                  1      0.0000       0.00000       A     2.60055e-01     8.66900e-02    ;  uncertainty sigma = 0.000040, epsilon = 0.000816
 h37bf                                  1      0.0000       0.00000       A     1.88764e-01     8.64016e-02    ;  uncertainty sigma = 0.000065, epsilon = 0.000730
 h38bf                                  1      0.0000       0.00000       A     1.88764e-01     8.64016e-02    ;  uncertainty sigma = 0.000065, epsilon = 0.000730
 h39bf                                  1      0.0000       0.00000       A     2.60018e-01     8.68639e-02    ;  uncertainty sigma = 0.000017, epsilon = 0.000452
 h40bf                                  1      0.0000       0.00000       A     2.60018e-01     8.68639e-02    ;  uncertainty sigma = 0.000017, epsilon = 0.000452
 c41bf                                  6      0.0000       0.00000       A     3.39739e-01     4.50558e-01    ;  uncertainty sigma = 0.000009, epsilon = 0.000600
 h42bf                                  1      0.0000       0.00000       A     2.42103e-01     8.66787e-02    ;  uncertainty sigma = 0.000154, epsilon = 0.002117
 h43bf                                  1      0.0000       0.00000       A     2.42103e-01     8.66787e-02    ;  uncertainty sigma = 0.000154, epsilon = 0.002117
 h44bf                                  1      0.0000       0.00000       A     1.10699e-01     4.35566e-02    ;  uncertainty sigma = 0.000140, epsilon = 0.002526
 h45bf                                  1      0.0000       0.00000       A     2.62548e-01     6.72475e-02    ;  uncertainty sigma = 0.000011, epsilon = 0.000588
 h46bf                                  1      0.0000       0.00000       A     2.62564e-01     6.71433e-02    ;  uncertainty sigma = 0.000012, epsilon = 0.000557
 h47bf                                  1      0.0000       0.00000       A     2.62564e-01     6.72868e-02    ;  uncertainty sigma = 0.000007, epsilon = 0.000873
 h48bf                                  1      0.0000       0.00000       A     1.10644e-01     4.14126e-02    ;  uncertainty sigma = 0.000051, epsilon = 0.000340
 h49bf                                  1      0.0000       0.00000       A     1.10644e-01     4.14126e-02    ;  uncertainty sigma = 0.000051, epsilon = 0.000340
 h50bf                                  1      0.0000       0.00000       A     2.60008e-01     8.64859e-02    ;  uncertainty sigma = 0.000016, epsilon = 0.000908
 h51bf                                  1      0.0000       0.00000       A     2.60008e-01     8.64859e-02    ;  uncertainty sigma = 0.000016, epsilon = 0.000908
 h52bf                                  1      0.0000       0.00000       A     2.60029e-01     8.67429e-02    ;  uncertainty sigma = 0.000008, epsilon = 0.000383
 h53bf                                  1      0.0000       0.00000       A     2.60029e-01     8.67429e-02    ;  uncertainty sigma = 0.000008, epsilon = 0.000383
 h54bf                                  1      0.0000       0.00000       A     2.60029e-01     8.67429e-02    ;  uncertainty sigma = 0.000008, epsilon = 0.000383
 h55bf                                  1      0.0000       0.00000       A     2.60029e-01     8.67429e-02    ;  uncertainty sigma = 0.000008, epsilon = 0.000383
 h56bf                                  1      0.0000       0.00000       A     2.60029e-01     8.67429e-02    ;  uncertainty sigma = 0.000008, epsilon = 0.000383
 h57bf                                  1      0.0000       0.00000       A     2.60029e-01     8.67429e-02    ;  uncertainty sigma = 0.000008, epsilon = 0.000383
 h58bf                                  1      0.0000       0.00000       A     2.60047e-01     8.64225e-02    ;  uncertainty sigma = 0.000017, epsilon = 0.000968
 h59bf                                  1      0.0000       0.00000       A     2.60047e-01     8.64225e-02    ;  uncertainty sigma = 0.000017, epsilon = 0.000968
 h60bf                                  1      0.0000       0.00000       A     1.10742e-01     4.10060e-02    ;  uncertainty sigma = 0.000124, epsilon = 0.001609
 h61bf                                  1      0.0000       0.00000       A     1.10742e-01     4.10060e-02    ;  uncertainty sigma = 0.000124, epsilon = 0.001609
 h62bf                                  1      0.0000       0.00000       A     2.60018e-01     8.68639e-02    ;  uncertainty sigma = 0.000017, epsilon = 0.000452
 h63bf                                  1      0.0000       0.00000       A     2.60018e-01     8.68639e-02    ;  uncertainty sigma = 0.000017, epsilon = 0.000452
 h64bf                                  1      0.0000       0.00000       A     2.60018e-01     8.68638e-02    ;  uncertainty sigma = 0.000017, epsilon = 0.000452
 h65bf                                  1      0.0000       0.00000       A     2.60018e-01     8.68638e-02    ;  uncertainty sigma = 0.000017, epsilon = 0.000452

[ moleculetype ]
;name             nrexcl
 MOL                   3

[ atoms ]
;       nr            type      resi   res      atom      cgnr      charge          mass ; qtot
         1            c0bf         1   UNL        c0         1    -0.02470       12.0110 ; qtot   -0.025
         2            c1bf         1   UNL        c1         2    -0.04711       12.0110 ; qtot   -0.072
         3            c2bf         1   UNL        c2         3    -0.14000       12.0110 ; qtot   -0.212
         4            c3bf         1   UNL        c3         4     0.00412       12.0110 ; qtot   -0.208
         5            c4bf         1   UNL        c4         5    -0.09162       12.0110 ; qtot   -0.299
         6            c5bf         1   UNL        c5         6     0.13996       12.0110 ; qtot   -0.159
         7            n6bf         1   UNL        n6         7    -0.81977       14.0070 ; qtot   -0.979
         8            c7bf         1   UNL        c7         8    -0.12701       12.0110 ; qtot   -1.106
         9            c8bf         1   UNL        c8         9     0.15676       12.0110 ; qtot   -0.949
        10            c9bf         1   UNL        c9        10     0.19748       12.0110 ; qtot   -0.752
        11           n10bf         1   UNL       n10        11    -0.76934       14.0070 ; qtot   -1.521
        12           c11bf         1   UNL       c11        12     0.22796       12.0110 ; qtot   -1.293
        13           c12bf         1   UNL       c12        13    -0.21145       12.0110 ; qtot   -1.505
        14           c13bf         1   UNL       c13        14     0.05151       12.0110 ; qtot   -1.453
        15           c14bf         1   UNL       c14        15    -0.17072       12.0110 ; qtot   -1.624
        16           c15bf         1   UNL       c15        16    -0.03284       12.0110 ; qtot   -1.657
        17           c16bf         1   UNL       c16        17    -0.23398       12.0110 ; qtot   -1.891
        18           c17bf         1   UNL       c17        18     0.67214       12.0110 ; qtot   -1.219
        19           n18bf         1   UNL       n18        19    -0.64971       14.0070 ; qtot   -1.868
        20           o19bf         1   UNL       o19        20    -0.62602       15.9990 ; qtot   -2.494
        21           n20bf         1   UNL       n20        21     0.01551       14.0070 ; qtot   -2.479
        22           c21bf         1   UNL       c21        22    -0.03153       12.0110 ; qtot   -2.510
        23           c22bf         1   UNL       c22        23    -0.25543       12.0110 ; qtot   -2.766
        24           c23bf         1   UNL       c23        24     0.61468       12.0110 ; qtot   -2.151
        25           o24bf         1   UNL       o24        25    -0.54925       15.9990 ; qtot   -2.700
        26           c25bf         1   UNL       c25        26    -0.16833       12.0110 ; qtot   -2.869
        27           c26bf         1   UNL       c26        27    -0.03637       12.0110 ; qtot   -2.905
        28           c27bf         1   UNL       c27        28    -0.09136       12.0110 ; qtot   -2.996
        29           c28bf         1   UNL       c28        29    -0.09136       12.0110 ; qtot   -3.088
        30           c29bf         1   UNL       c29        30    -0.01611       12.0110 ; qtot   -3.104
        31           h30bf         1   UNL       h30        31     0.04765        1.0080 ; qtot   -3.056
        32           h31bf         1   UNL       h31        32     0.04765        1.0080 ; qtot   -3.009
        33           h32bf         1   UNL       h32        33     0.04765        1.0080 ; qtot   -2.961
        34           h33bf         1   UNL       h33        34     0.06832        1.0080 ; qtot   -2.893
        35           h34bf         1   UNL       h34        35     0.06832        1.0080 ; qtot   -2.824
        36           h35bf         1   UNL       h35        36     0.08136        1.0080 ; qtot   -2.743
        37           h36bf         1   UNL       h36        37     0.08136        1.0080 ; qtot   -2.662
        38           h37bf         1   UNL       h37        38     0.10490        1.0080 ; qtot   -2.557
        39           h38bf         1   UNL       h38        39     0.10490        1.0080 ; qtot   -2.452
        40           h39bf         1   UNL       h39        40     0.07944        1.0080 ; qtot   -2.372
        41           h40bf         1   UNL       h40        41     0.07944        1.0080 ; qtot   -2.293
        42           c41bf         1   UNL       c41        42    -0.12701       12.0110 ; qtot   -2.420
        43           h42bf         1   UNL       h42        43     0.07938        1.0080 ; qtot   -2.341
        44           h43bf         1   UNL       h43        44     0.07938        1.0080 ; qtot   -2.261
        45           h44bf         1   UNL       h44        45     0.45389        1.0080 ; qtot   -1.807
        46           h45bf         1   UNL       h45        46     0.15085        1.0080 ; qtot   -1.656
        47           h46bf         1   UNL       h46        47     0.15359        1.0080 ; qtot   -1.503
        48           h47bf         1   UNL       h47        48     0.14524        1.0080 ; qtot   -1.358
        49           h48bf         1   UNL       h48        49     0.31237        1.0080 ; qtot   -1.045
        50           h49bf         1   UNL       h49        50     0.31237        1.0080 ; qtot   -0.733
        51           h50bf         1   UNL       h50        51     0.06783        1.0080 ; qtot   -0.665
        52           h51bf         1   UNL       h51        52     0.06783        1.0080 ; qtot   -0.597
        53           h52bf         1   UNL       h52        53     0.03873        1.0080 ; qtot   -0.558
        54           h53bf         1   UNL       h53        54     0.03873        1.0080 ; qtot   -0.520
        55           h54bf         1   UNL       h54        55     0.03873        1.0080 ; qtot   -0.481
        56           h55bf         1   UNL       h55        56     0.03873        1.0080 ; qtot   -0.442
        57           h56bf         1   UNL       h56        57     0.03873        1.0080 ; qtot   -0.404
        58           h57bf         1   UNL       h57        58     0.03873        1.0080 ; qtot   -0.365
        59           h58bf         1   UNL       h58        59     0.06082        1.0080 ; qtot   -0.304
        60           h59bf         1   UNL       h59        60     0.06082        1.0080 ; qtot   -0.243
        61           h60bf         1   UNL       h60        61     0.46269        1.0080 ; qtot    0.220
        62           h61bf         1   UNL       h61        62     0.46269        1.0080 ; qtot    0.682
        63           h62bf         1   UNL       h62        63     0.07944        1.0080 ; qtot    0.762
        64           h63bf         1   UNL       h63        64     0.07944        1.0080 ; qtot    0.841
        65           h64bf         1   UNL       h64        65     0.07944        1.0080 ; qtot    0.921
        66           h65bf         1   UNL       h65        66     0.07946        1.0080 ; qtot    1.000

[ bonds ]
;       ai        aj funct               r               k
         1         2     1        0.150105   244661.877100    ;  uncertainty r = 0.000052, k = 7.942595
         1        31     1        0.109466   309551.110205    ;  uncertainty r = 0.000011, k = 1.937725
         1        32     1        0.109466   309551.110205    ;  uncertainty r = 0.000011, k = 1.937725
         1        33     1        0.109466   309551.110205    ;  uncertainty r = 0.000011, k = 1.937725
         2         3     1        0.138033   390103.171826    ;  uncertainty r = 0.000094, k = 10.107610
         2        23     1        0.144028   267588.097949    ;  uncertainty r = 0.000055, k = 11.208518
         3         4     1        0.149550   230202.612549    ;  uncertainty r = 0.000125, k = 5.920291
         3        21     1        0.141079   287719.920605    ;  uncertainty r = 0.000173, k = 18.668760
         4         5     1        0.154023   203724.664990    ;  uncertainty r = 0.000133, k = 14.400670
         4        34     1        0.109620   310575.761182    ;  uncertainty r = 0.000049, k = 3.281604
         4        35     1        0.109620   310575.761182    ;  uncertainty r = 0.000049, k = 3.281604
         5         6     1        0.152910   203923.726758    ;  uncertainty r = 0.000056, k = 9.395622
         5        36     1        0.109519   311102.081006    ;  uncertainty r = 0.000029, k = 2.148080
         5        37     1        0.109519   311102.081006    ;  uncertainty r = 0.000029, k = 2.148080
         6         7     1        0.150705   216521.668018    ;  uncertainty r = 0.000230, k = 35.585251
         6        38     1        0.109018   313564.803223    ;  uncertainty r = 0.000022, k = 2.569334
         6        39     1        0.109018   313564.803223    ;  uncertainty r = 0.000022, k = 2.569334
         7         9     1        0.153827   193337.343604    ;  uncertainty r = 0.000670, k = 19.883865
         7        61     1        0.103245   370589.781348    ;  uncertainty r = 0.000332, k = 8.097695
         7        62     1        0.103245   370589.781348    ;  uncertainty r = 0.000332, k = 8.097695
         8         9     1        0.152698   205220.871460    ;  uncertainty r = 0.000139, k = 4.878850
         8        40     1        0.109421   314272.002393    ;  uncertainty r = 0.000012, k = 1.013588
         8        41     1        0.109421   314272.002393    ;  uncertainty r = 0.000012, k = 1.013588
         8        63     1        0.109421   314272.002393    ;  uncertainty r = 0.000012, k = 1.013588
         9        10     1        0.154208   199033.166016    ;  uncertainty r = 0.000306, k = 4.879722
         9        42     1        0.152698   205220.871460    ;  uncertainty r = 0.000139, k = 4.878850
        10        11     1        0.144597   243364.566406    ;  uncertainty r = 0.000262, k = 10.313479
        10        43     1        0.109572   306991.270361    ;  uncertainty r = 0.000090, k = 4.247153
        10        44     1        0.109572   306991.270361    ;  uncertainty r = 0.000090, k = 4.247153
        11        12     1        0.140709   338355.360742    ;  uncertainty r = 0.000736, k = 18.405091
        11        45     1        0.101319   419703.286377    ;  uncertainty r = 0.000204, k = 11.532501
        12        13     1        0.140810   355198.437842    ;  uncertainty r = 0.000079, k = 13.476187
        12        17     1        0.142271   333710.798975    ;  uncertainty r = 0.000282, k = 9.023512
        13        14     1        0.138804   353356.446143    ;  uncertainty r = 0.000119, k = 7.706072
        13        46     1        0.108870   338223.129590    ;  uncertainty r = 0.000032, k = 2.737230
        14        15     1        0.139640   354214.467480    ;  uncertainty r = 0.000116, k = 4.634588
        14        21     1        0.142348   337500.403857    ;  uncertainty r = 0.000101, k = 7.296129
        15        16     1        0.138792   364930.145020    ;  uncertainty r = 0.000067, k = 5.150934
        15        47     1        0.108792   333924.825488    ;  uncertainty r = 0.000009, k = 1.293387
        16        17     1        0.140195   354433.678027    ;  uncertainty r = 0.000101, k = 11.188668
        16        48     1        0.108604   330520.703271    ;  uncertainty r = 0.000050, k = 2.529878
        17        18     1        0.148239   259915.626660    ;  uncertainty r = 0.000119, k = 23.120551
        18        19     1        0.139029   503817.340625    ;  uncertainty r = 0.000155, k = 20.650933
        18        20     1        0.124820   823639.501758    ;  uncertainty r = 0.000051, k = 16.500721
        19        49     1        0.101653   427755.290186    ;  uncertainty r = 0.000052, k = 3.050537
        19        50     1        0.101653   427755.290186    ;  uncertainty r = 0.000052, k = 3.050537
        21        22     1        0.137342   279523.223535    ;  uncertainty r = 0.000165, k = 14.437678
        22        23     1        0.139070   410963.440527    ;  uncertainty r = 0.000129, k = 17.219581
        22        30     1        0.149169   235354.392383    ;  uncertainty r = 0.000099, k = 6.242030
        23        24     1        0.145392   263265.176074    ;  uncertainty r = 0.000115, k = 15.598358
        24        25     1        0.123654   721934.337402    ;  uncertainty r = 0.000050, k = 5.105366
        24        26     1        0.152729   192523.182251    ;  uncertainty r = 0.000075, k = 8.399189
        26        27     1        0.153646   191935.049854    ;  uncertainty r = 0.000135, k = 7.651961
        26        51     1        0.109748   308934.720996    ;  uncertainty r = 0.000015, k = 1.839172
        26        52     1        0.109748   308934.720996    ;  uncertainty r = 0.000015, k = 1.839172
        27        28     1        0.153195   201193.401172    ;  uncertainty r = 0.000053, k = 1.853520
        27        29     1        0.153195   201193.401172    ;  uncertainty r = 0.000053, k = 1.853520
        27        30     1        0.153828   192201.542358    ;  uncertainty r = 0.000093, k = 11.625831
        28        53     1        0.109670   309289.329297    ;  uncertainty r = 0.000025, k = 1.119538
        28        54     1        0.109670   309289.329297    ;  uncertainty r = 0.000025, k = 1.119538
        28        55     1        0.109670   309289.329297    ;  uncertainty r = 0.000025, k = 1.119538
        29        56     1        0.109670   309289.329297    ;  uncertainty r = 0.000025, k = 1.119538
        29        57     1        0.109670   309289.329297    ;  uncertainty r = 0.000025, k = 1.119538
        29        58     1        0.109670   309289.329297    ;  uncertainty r = 0.000025, k = 1.119538
        30        59     1        0.109905   308723.707861    ;  uncertainty r = 0.000021, k = 4.306944
        30        60     1        0.109905   308723.707861    ;  uncertainty r = 0.000021, k = 4.306944
        42        64     1        0.109421   314272.002393    ;  uncertainty r = 0.000012, k = 1.013588
        42        65     1        0.109421   314272.002393    ;  uncertainty r = 0.000012, k = 1.013588
        42        66     1        0.109421   314272.002393    ;  uncertainty r = 0.000012, k = 1.013596

[ angles ]
;       ai        aj        ak funct           theta             cth
         1         2         3     1      124.971558      355.394556    ;  uncertainty theta = 0.005432, k = 0.247331
         1         2        23     1      124.362526      352.814095    ;  uncertainty theta = 0.004980, k = 0.223858
         2         1        31     1      109.685570      411.713970    ;  uncertainty theta = 0.000600, k = 0.078463
         2         1        32     1      109.685570      411.713970    ;  uncertainty theta = 0.000600, k = 0.078463
         2         1        33     1      109.685570      411.713970    ;  uncertainty theta = 0.000600, k = 0.078463
         2         3         4     1      128.485611      346.602449    ;  uncertainty theta = 0.004239, k = 0.217194
         2         3        21     1      110.532837      707.211683    ;  uncertainty theta = 0.002972, k = 0.149789
         2        23        22     1      109.071350      678.525401    ;  uncertainty theta = 0.004759, k = 0.127634
         2        23        24     1      126.172157      344.436296    ;  uncertainty theta = 0.003526, k = 0.270680
         3         2        23     1      107.599632      701.470941    ;  uncertainty theta = 0.005082, k = 0.187514
         3         4         5     1      111.531761      537.957915    ;  uncertainty theta = 0.003298, k = 0.108382
         3         4        34     1      107.155663      410.719204    ;  uncertainty theta = 0.003057, k = 0.054603
         3         4        35     1      107.155663      410.719204    ;  uncertainty theta = 0.003057, k = 0.054603
         3        21        14     1      120.464859      382.500155    ;  uncertainty theta = 0.003205, k = 0.103967
         3        21        22     1      109.546799      829.740905    ;  uncertainty theta = 0.003352, k = 0.161793
         4         3        21     1      116.960770      383.525502    ;  uncertainty theta = 0.007616, k = 0.134190
         4         5         6     1      110.233727      525.240307    ;  uncertainty theta = 0.003667, k = 0.053351
         4         5        36     1      107.823242      398.292559    ;  uncertainty theta = 0.002161, k = 0.055424
         4         5        37     1      107.823242      398.292559    ;  uncertainty theta = 0.002161, k = 0.055424
         5         4        34     1      107.105270      399.745620    ;  uncertainty theta = 0.002023, k = 0.038011
         5         4        35     1      107.105270      399.745620    ;  uncertainty theta = 0.002023, k = 0.038011
         5         6         7     1      110.934204      681.298029    ;  uncertainty theta = 0.001298, k = 0.131927
         5         6        38     1      110.199631      397.449196    ;  uncertainty theta = 0.001659, k = 0.086578
         5         6        39     1      110.199631      397.449196    ;  uncertainty theta = 0.001659, k = 0.086578
         6         5        36     1      106.899269      402.012262    ;  uncertainty theta = 0.002223, k = 0.042603
         6         5        37     1      106.899269      402.012262    ;  uncertainty theta = 0.002223, k = 0.042603
         6         7         9     1      113.398293      572.084176    ;  uncertainty theta = 0.011075, k = 0.160909
         6         7        61     1      108.015541      444.342192    ;  uncertainty theta = 0.006465, k = 0.126335
         6         7        62     1      108.015541      444.342192    ;  uncertainty theta = 0.006465, k = 0.126335
         7         6        38     1      105.344284      451.971659    ;  uncertainty theta = 0.002508, k = 0.061526
         7         6        39     1      105.344284      451.971659    ;  uncertainty theta = 0.002508, k = 0.061526
         7         9         8     1      108.269569      692.025211    ;  uncertainty theta = 0.005534, k = 0.138979
         7         9        10     1      105.841881      618.844411    ;  uncertainty theta = 0.005596, k = 0.211521
         7         9        42     1      108.269569      692.025211    ;  uncertainty theta = 0.005534, k = 0.138979
         8         9        10     1      110.392273      524.637695    ;  uncertainty theta = 0.005513, k = 0.109374
         8         9        42     1      111.559303      571.789031    ;  uncertainty theta = 0.005612, k = 0.169111
         9         7        61     1      108.004379      431.107266    ;  uncertainty theta = 0.007547, k = 0.152585
         9         7        62     1      108.004379      431.107266    ;  uncertainty theta = 0.007547, k = 0.152585
         9         8        40     1      107.294861      387.816854    ;  uncertainty theta = 0.000805, k = 0.046225
         9         8        41     1      107.294861      387.816854    ;  uncertainty theta = 0.000805, k = 0.046225
         9         8        63     1      107.294861      387.816854    ;  uncertainty theta = 0.000805, k = 0.046225
         9        10        11     1      109.987999      551.980469    ;  uncertainty theta = 0.008048, k = 0.189195
         9        10        43     1      107.723412      400.461266    ;  uncertainty theta = 0.004138, k = 0.095314
         9        10        44     1      107.723412      400.461266    ;  uncertainty theta = 0.004138, k = 0.095314
         9        42        64     1      107.294861      387.816854    ;  uncertainty theta = 0.000805, k = 0.046225
         9        42        65     1      107.294861      387.816854    ;  uncertainty theta = 0.000805, k = 0.046225
         9        42        66     1      107.294861      387.816854    ;  uncertainty theta = 0.000805, k = 0.046225
        10         9        42     1      110.392273      524.637695    ;  uncertainty theta = 0.005513, k = 0.109374
        10        11        12     1      114.501297      415.881083    ;  uncertainty theta = 0.007499, k = 0.123036
        10        11        45     1      110.567917      344.328497    ;  uncertainty theta = 0.012622, k = 0.244215
        11        10        43     1      107.814804      449.315129    ;  uncertainty theta = 0.003843, k = 0.183681
        11        10        44     1      107.814804      449.315129    ;  uncertainty theta = 0.003843, k = 0.183681
        11        12        13     1      121.710892      563.379724    ;  uncertainty theta = 0.011763, k = 0.332182
        11        12        17     1      123.038757      535.942718    ;  uncertainty theta = 0.009057, k = 0.280693
        12        11        45     1      114.432205      374.827211    ;  uncertainty theta = 0.007004, k = 0.221503
        12        13        14     1      120.443100      511.994080    ;  uncertainty theta = 0.001878, k = 0.094243
        12        13        46     1      119.024635      262.732708    ;  uncertainty theta = 0.001885, k = 0.108593
        12        17        16     1      122.315941      429.633264    ;  uncertainty theta = 0.004340, k = 0.303643
        12        17        18     1      117.574951      396.215339    ;  uncertainty theta = 0.005949, k = 0.340637
        13        12        17     1      122.077698      409.425909    ;  uncertainty theta = 0.004443, k = 0.209010
        13        14        15     1      120.138916      378.235841    ;  uncertainty theta = 0.005112, k = 0.196724
        13        14        21     1      120.250671      454.751469    ;  uncertainty theta = 0.004250, k = 0.119749
        14        13        46     1      119.996315      284.359639    ;  uncertainty theta = 0.002358, k = 0.106692
        14        15        16     1      118.153793      518.808786    ;  uncertainty theta = 0.004297, k = 0.176784
        14        15        47     1      120.426636      280.185311    ;  uncertainty theta = 0.001430, k = 0.071763
        14        21        22     1      120.525497      387.471943    ;  uncertainty theta = 0.004636, k = 0.156380
        15        14        21     1      121.262253      463.255996    ;  uncertainty theta = 0.004444, k = 0.211913
        15        16        17     1      124.898521      521.830145    ;  uncertainty theta = 0.004839, k = 0.231146
        15        16        48     1      119.540184      280.403909    ;  uncertainty theta = 0.002726, k = 0.067893
        16        15        47     1      121.318527      289.287439    ;  uncertainty theta = 0.001766, k = 0.086166
        16        17        18     1      117.657982      395.568132    ;  uncertainty theta = 0.003860, k = 0.230971
        17        16        48     1      117.235924      260.783477    ;  uncertainty theta = 0.005081, k = 0.129433
        17        18        19     1      116.059891      479.242674    ;  uncertainty theta = 0.003906, k = 0.247146
        17        18        20     1      125.322021      540.317735    ;  uncertainty theta = 0.004970, k = 0.190569
        18        19        49     1      116.963905      310.801018    ;  uncertainty theta = 0.002022, k = 0.091105
        18        19        50     1      116.963905      310.801018    ;  uncertainty theta = 0.002022, k = 0.091105
        19        18        20     1      126.517166      889.988691    ;  uncertainty theta = 0.004387, k = 0.046999
        21        22        23     1      109.738441      694.434446    ;  uncertainty theta = 0.004885, k = 0.206526
        21        22        30     1      122.450340      370.896635    ;  uncertainty theta = 0.003573, k = 0.180504
        22        23        24     1      119.070312      390.807568    ;  uncertainty theta = 0.007694, k = 0.349987
        22        30        27     1      107.805740      556.659123    ;  uncertainty theta = 0.002237, k = 0.143666
        22        30        59     1      108.916275      396.622655    ;  uncertainty theta = 0.001410, k = 0.056158
        22        30        60     1      108.916275      396.622655    ;  uncertainty theta = 0.001410, k = 0.056158
        23        22        30     1      125.882568      344.070285    ;  uncertainty theta = 0.005185, k = 0.237699
        23        24        25     1      124.446182      604.140079    ;  uncertainty theta = 0.001677, k = 0.050463
        23        24        26     1      113.848488      368.483538    ;  uncertainty theta = 0.006481, k = 0.230108
        24        26        27     1      112.816551      505.116713    ;  uncertainty theta = 0.003504, k = 0.066766
        24        26        51     1      106.614479      370.407344    ;  uncertainty theta = 0.001342, k = 0.076110
        24        26        52     1      106.614479      370.407344    ;  uncertainty theta = 0.001342, k = 0.076110
        25        24        26     1      123.307533      565.969123    ;  uncertainty theta = 0.003559, k = 0.147201
        26        27        28     1      108.306870      576.022126    ;  uncertainty theta = 0.001816, k = 0.099147
        26        27        29     1      108.306870      576.022126    ;  uncertainty theta = 0.001816, k = 0.099147
        26        27        30     1      109.706276      569.691668    ;  uncertainty theta = 0.001851, k = 0.067169
        27        26        51     1      107.687546      371.394800    ;  uncertainty theta = 0.002109, k = 0.101948
        27        26        52     1      107.687546      371.394800    ;  uncertainty theta = 0.002109, k = 0.101948
        27        28        53     1      107.996109      384.058813    ;  uncertainty theta = 0.001498, k = 0.017817
        27        28        54     1      107.996109      384.058813    ;  uncertainty theta = 0.001498, k = 0.017817
        27        28        55     1      107.996109      384.058813    ;  uncertainty theta = 0.001498, k = 0.017817
        27        29        56     1      107.996109      384.058813    ;  uncertainty theta = 0.001498, k = 0.017817
        27        29        57     1      107.996109      384.058813    ;  uncertainty theta = 0.001498, k = 0.017817
        27        29        58     1      107.996109      384.058813    ;  uncertainty theta = 0.001498, k = 0.017817
        27        30        59     1      107.544724      382.761017    ;  uncertainty theta = 0.002760, k = 0.048647
        27        30        60     1      107.544724      382.761017    ;  uncertainty theta = 0.002760, k = 0.048647
        28        27        29     1      108.956375      585.520334    ;  uncertainty theta = 0.001841, k = 0.057908
        28        27        30     1      108.014572      557.325067    ;  uncertainty theta = 0.003069, k = 0.098919
        29        27        30     1      108.014572      557.325067    ;  uncertainty theta = 0.003069, k = 0.098919
        31         1        32     1      106.599655      315.928263    ;  uncertainty theta = 0.001025, k = 0.007338
        31         1        33     1      106.599655      315.928263    ;  uncertainty theta = 0.001025, k = 0.007338
        32         1        33     1      106.599655      315.928263    ;  uncertainty theta = 0.001025, k = 0.007338
        34         4        35     1      104.778244      318.936917    ;  uncertainty theta = 0.004275, k = 0.032115
        36         5        37     1      105.532188      324.889075    ;  uncertainty theta = 0.002690, k = 0.045008
        38         6        39     1      107.958763      319.992047    ;  uncertainty theta = 0.003242, k = 0.079626
        40         8        41     1      105.840111      320.511184    ;  uncertainty theta = 0.001619, k = 0.039485
        40         8        63     1      105.840111      320.511184    ;  uncertainty theta = 0.001619, k = 0.039485
        41         8        63     1      105.840111      320.511184    ;  uncertainty theta = 0.001619, k = 0.039485
        43        10        44     1      106.553795      321.797520    ;  uncertainty theta = 0.005194, k = 0.116804
        49        19        50     1      109.834633      265.993542    ;  uncertainty theta = 0.001915, k = 0.057416
        51        26        52     1      106.125877      305.443843    ;  uncertainty theta = 0.001540, k = 0.048439
        53        28        54     1      105.574768      318.349181    ;  uncertainty theta = 0.001227, k = 0.028952
        53        28        55     1      105.574768      318.349181    ;  uncertainty theta = 0.001227, k = 0.028952
        54        28        55     1      105.574768      318.349181    ;  uncertainty theta = 0.001227, k = 0.028952
        56        29        57     1      105.574768      318.349181    ;  uncertainty theta = 0.001227, k = 0.028952
        56        29        58     1      105.574768      318.349181    ;  uncertainty theta = 0.001227, k = 0.028952
        57        29        58     1      105.574768      318.349181    ;  uncertainty theta = 0.001227, k = 0.028952
        59        30        60     1      105.093704      313.682082    ;  uncertainty theta = 0.001625, k = 0.026383
        61         7        62     1      107.776711      378.679867    ;  uncertainty theta = 0.005637, k = 0.267698
        64        42        65     1      105.840111      320.511184    ;  uncertainty theta = 0.001619, k = 0.039485
        64        42        66     1      105.840111      320.511184    ;  uncertainty theta = 0.001619, k = 0.039485
        65        42        66     1      105.840111      320.511216    ;  uncertainty theta = 0.001619, k = 0.039485

[ dihedrals ] ; propers for gromacs 4.5 or higher, use funct 9
;       ai        aj        ak        al funct           phase               k        pn
         1         2         3         4     9        0.000000       -0.534165         1    ;  uncertainty k = 0.797451
         1         2         3         4     9      180.000000        8.370450         2    ;  uncertainty k = 0.534900
         1         2         3         4     9        0.000000        1.123212         3    ;  uncertainty k = 0.321131
         1         2         3         4     9      180.000000        0.802484         4    ;  uncertainty k = 0.235309
         1         2         3        21     9        0.000000        0.221408         1    ;  uncertainty k = 0.794144
         1         2         3        21     9      180.000000       14.539322         2    ;  uncertainty k = 0.459806
         1         2         3        21     9        0.000000        2.144730         3    ;  uncertainty k = 0.688228
         1         2         3        21     9      180.000000        0.978428         4    ;  uncertainty k = 0.229134
         1         2        23        22     9        0.000000        0.735890         1    ;  uncertainty k = 1.085329
         1         2        23        22     9      180.000000        9.416021         2    ;  uncertainty k = 0.548251
         1         2        23        22     9        0.000000        1.767600         3    ;  uncertainty k = 0.396803
         1         2        23        22     9      180.000000        0.414836         4    ;  uncertainty k = 0.218725
         1         2        23        24     9        0.000000       -0.477193         1    ;  uncertainty k = 1.442375
         1         2        23        24     9      180.000000        5.256570         2    ;  uncertainty k = 0.727055
         1         2        23        24     9        0.000000        1.712487         3    ;  uncertainty k = 0.189360
         1         2        23        24     9      180.000000        0.214289         4    ;  uncertainty k = 0.158595
         2         3         4         5     9        0.000000        0.019185         1    ;  uncertainty k = 0.579749
         2         3         4         5     9      180.000000        1.101163         2    ;  uncertainty k = 0.461351
         2         3         4         5     9        0.000000        0.066737         3    ;  uncertainty k = 0.205486
         2         3         4         5     9      180.000000        0.160674         4    ;  uncertainty k = 0.135688
         2         3         4        34     9        0.000000        0.738799         1    ;  uncertainty k = 0.408162
         2         3         4        34     9      180.000000        1.224915         2    ;  uncertainty k = 0.314458
         2         3         4        34     9        0.000000        0.207758         3    ;  uncertainty k = 0.082342
         2         3         4        34     9      180.000000        0.118246         4    ;  uncertainty k = 0.104663
         2         3         4        35     9        0.000000        0.738799         1    ;  uncertainty k = 0.408162
         2         3         4        35     9      180.000000        1.224915         2    ;  uncertainty k = 0.314458
         2         3         4        35     9        0.000000        0.207758         3    ;  uncertainty k = 0.082342
         2         3         4        35     9      180.000000        0.118246         4    ;  uncertainty k = 0.104663
         2         3        21        14     9        0.000000        1.904932         1    ;  uncertainty k = 0.672469
         2         3        21        14     9      180.000000        6.851178         2    ;  uncertainty k = 0.668727
         2         3        21        14     9        0.000000        1.923123         3    ;  uncertainty k = 0.303303
         2         3        21        14     9      180.000000        0.114115         4    ;  uncertainty k = 0.280151
         2         3        21        22     9        0.000000       -0.519310         1    ;  uncertainty k = 0.764475
         2         3        21        22     9      180.000000       12.421849         2    ;  uncertainty k = 0.827441
         2         3        21        22     9        0.000000       -6.387672         3    ;  uncertainty k = 0.680899
         2         3        21        22     9      180.000000        1.105472         4    ;  uncertainty k = 0.512079
         2        23        22        21     9        0.000000       -0.246290         1    ;  uncertainty k = 0.289961
         2        23        22        21     9      180.000000       15.423100         2    ;  uncertainty k = 1.096923
         2        23        22        21     9        0.000000       -4.447669         3    ;  uncertainty k = 0.651380
         2        23        22        21     9      180.000000        1.748857         4    ;  uncertainty k = 0.611037
         2        23        22        30     9        0.000000        0.109308         1    ;  uncertainty k = 0.124598
         2        23        22        30     9      180.000000       11.372252         2    ;  uncertainty k = 0.471513
         2        23        22        30     9        0.000000        1.088360         3    ;  uncertainty k = 0.305831
         2        23        22        30     9      180.000000        1.161826         4    ;  uncertainty k = 0.302667
         2        23        24        25     9        0.000000       -1.847182         1    ;  uncertainty k = 1.157550
         2        23        24        25     9      180.000000        6.643139         2    ;  uncertainty k = 0.455011
         2        23        24        25     9        0.000000        0.783818         3    ;  uncertainty k = 0.142480
         2        23        24        25     9      180.000000       -0.185187         4    ;  uncertainty k = 0.114437
         2        23        24        26     9        0.000000       -0.926558         1    ;  uncertainty k = 0.295838
         2        23        24        26     9      180.000000        3.213854         2    ;  uncertainty k = 0.305906
         2        23        24        26     9        0.000000        0.621584         3    ;  uncertainty k = 0.127606
         2        23        24        26     9      180.000000        0.389048         4    ;  uncertainty k = 0.061584
         3         2         1        31     9        0.000000        1.057543         1    ;  uncertainty k = 0.401308
         3         2         1        31     9      180.000000        1.620052         2    ;  uncertainty k = 0.331300
         3         2         1        31     9        0.000000        0.032090         3    ;  uncertainty k = 0.111700
         3         2         1        31     9      180.000000        0.095394         4    ;  uncertainty k = 0.043435
         3         2         1        32     9        0.000000        1.057543         1    ;  uncertainty k = 0.401308
         3         2         1        32     9      180.000000        1.620052         2    ;  uncertainty k = 0.331300
         3         2         1        32     9        0.000000        0.032090         3    ;  uncertainty k = 0.111700
         3         2         1        32     9      180.000000        0.095394         4    ;  uncertainty k = 0.043435
         3         2         1        33     9        0.000000        1.057543         1    ;  uncertainty k = 0.401308
         3         2         1        33     9      180.000000        1.620052         2    ;  uncertainty k = 0.331300
         3         2         1        33     9        0.000000        0.032090         3    ;  uncertainty k = 0.111700
         3         2         1        33     9      180.000000        0.095394         4    ;  uncertainty k = 0.043435
         3         2        23        22     9        0.000000       -0.114122         1    ;  uncertainty k = 0.625241
         3         2        23        22     9      180.000000       12.417307         2    ;  uncertainty k = 0.851697
         3         2        23        22     9        0.000000       -9.664476         3    ;  uncertainty k = 1.513114
         3         2        23        22     9      180.000000        1.889687         4    ;  uncertainty k = 0.389182
         3         2        23        24     9        0.000000        0.992140         1    ;  uncertainty k = 0.841646
         3         2        23        24     9      180.000000        5.265594         2    ;  uncertainty k = 0.823329
         3         2        23        24     9        0.000000        1.469218         3    ;  uncertainty k = 0.176719
         3         2        23        24     9      180.000000        0.642631         4    ;  uncertainty k = 0.255292
         3         4         5         6     9        0.000000       -2.031851         1    ;  uncertainty k = 0.948934
         3         4         5         6     9      180.000000       -0.481467         2    ;  uncertainty k = 0.440385
         3         4         5         6     9        0.000000        1.635482         3    ;  uncertainty k = 0.238567
         3         4         5         6     9      180.000000       -0.174261         4    ;  uncertainty k = 0.192878
         3         4         5        36     9        0.000000        0.223961         1    ;  uncertainty k = 0.549469
         3         4         5        36     9      180.000000       -0.129403         2    ;  uncertainty k = 0.353347
         3         4         5        36     9        0.000000        1.086799         3    ;  uncertainty k = 0.119057
         3         4         5        36     9      180.000000        0.043119         4    ;  uncertainty k = 0.058422
         3         4         5        37     9        0.000000        0.223961         1    ;  uncertainty k = 0.549469
         3         4         5        37     9      180.000000       -0.129403         2    ;  uncertainty k = 0.353347
         3         4         5        37     9        0.000000        1.086799         3    ;  uncertainty k = 0.119057
         3         4         5        37     9      180.000000        0.043119         4    ;  uncertainty k = 0.058422
         3        21        14        13     9        0.000000        0.712522         1    ;  uncertainty k = 0.436455
         3        21        14        13     9      180.000000        5.774712         2    ;  uncertainty k = 0.444034
         3        21        14        13     9        0.000000        0.445413         3    ;  uncertainty k = 0.163363
         3        21        14        13     9      180.000000        0.346693         4    ;  uncertainty k = 0.209582
         3        21        14        15     9        0.000000        0.929198         1    ;  uncertainty k = 0.580803
         3        21        14        15     9      180.000000        6.012729         2    ;  uncertainty k = 0.413700
         3        21        14        15     9        0.000000        0.538305         3    ;  uncertainty k = 0.201412
         3        21        14        15     9      180.000000        0.352428         4    ;  uncertainty k = 0.163473
         3        21        22        23     9        0.000000       -0.006747         1    ;  uncertainty k = 0.756310
         3        21        22        23     9      180.000000       15.802425         2    ;  uncertainty k = 0.761344
         3        21        22        23     9        0.000000       -8.394575         3    ;  uncertainty k = 1.713229
         3        21        22        23     9      180.000000        0.880743         4    ;  uncertainty k = 0.667956
         3        21        22        30     9        0.000000        0.905658         1    ;  uncertainty k = 0.614550
         3        21        22        30     9      180.000000        7.492399         2    ;  uncertainty k = 0.341262
         3        21        22        30     9        0.000000        1.475936         3    ;  uncertainty k = 0.195359
         3        21        22        30     9      180.000000        0.093777         4    ;  uncertainty k = 0.147247
         4         3         2        23     9        0.000000       -0.015111         1    ;  uncertainty k = 0.744138
         4         3         2        23     9      180.000000       13.553736         2    ;  uncertainty k = 0.453040
         4         3         2        23     9        0.000000        2.194905         3    ;  uncertainty k = 0.277369
         4         3         2        23     9      180.000000        0.915803         4    ;  uncertainty k = 0.326102
         4         3        21        14     9        0.000000        0.443092         1    ;  uncertainty k = 0.781231
         4         3        21        14     9      180.000000        3.990535         2    ;  uncertainty k = 0.720783
         4         3        21        14     9        0.000000        1.233671         3    ;  uncertainty k = 0.200544
         4         3        21        14     9      180.000000        0.185350         4    ;  uncertainty k = 0.169537
         4         3        21        22     9        0.000000        1.079158         1    ;  uncertainty k = 0.818916
         4         3        21        22     9      180.000000        7.930089         2    ;  uncertainty k = 0.752508
         4         3        21        22     9        0.000000        1.679709         3    ;  uncertainty k = 0.145818
         4         3        21        22     9      180.000000        0.018974         4    ;  uncertainty k = 0.078374
         4         5         6         7     9        0.000000       -2.362537         1    ;  uncertainty k = 1.663211
         4         5         6         7     9      180.000000       -2.721151         2    ;  uncertainty k = 1.038845
         4         5         6         7     9        0.000000        2.036100         3    ;  uncertainty k = 0.220121
         4         5         6         7     9      180.000000       -0.570097         4    ;  uncertainty k = 0.211985
         4         5         6        38     9        0.000000       -1.618646         1    ;  uncertainty k = 0.847306
         4         5         6        38     9      180.000000       -0.258852         2    ;  uncertainty k = 0.315739
         4         5         6        38     9        0.000000        0.890632         3    ;  uncertainty k = 0.054646
         4         5         6        38     9      180.000000       -0.240541         4    ;  uncertainty k = 0.146702
         4         5         6        39     9        0.000000       -1.618646         1    ;  uncertainty k = 0.847306
         4         5         6        39     9      180.000000       -0.258852         2    ;  uncertainty k = 0.315739
         4         5         6        39     9        0.000000        0.890632         3    ;  uncertainty k = 0.054646
         4         5         6        39     9      180.000000       -0.240541         4    ;  uncertainty k = 0.146702
         5         4         3        21     9        0.000000        0.051055         1    ;  uncertainty k = 1.053639
         5         4         3        21     9      180.000000        0.087169         2    ;  uncertainty k = 0.385295
         5         4         3        21     9        0.000000        0.703116         3    ;  uncertainty k = 0.272774
         5         4         3        21     9      180.000000        0.098345         4    ;  uncertainty k = 0.045753
         5         6         7         9     9        0.000000       -1.208183         1    ;  uncertainty k = 0.516203
         5         6         7         9     9      180.000000       -0.046649         2    ;  uncertainty k = 0.252946
         5         6         7         9     9        0.000000        0.960671         3    ;  uncertainty k = 0.127620
         5         6         7         9     9      180.000000       -0.167426         4    ;  uncertainty k = 0.114186
         5         6         7        61     9        0.000000       -0.830333         1    ;  uncertainty k = 0.833424
         5         6         7        61     9      180.000000       -0.280365         2    ;  uncertainty k = 0.608544
         5         6         7        61     9        0.000000        0.769496         3    ;  uncertainty k = 0.080416
         5         6         7        61     9      180.000000       -0.058542         4    ;  uncertainty k = 0.152372
         5         6         7        62     9        0.000000       -0.830333         1    ;  uncertainty k = 0.833424
         5         6         7        62     9      180.000000       -0.280365         2    ;  uncertainty k = 0.608544
         5         6         7        62     9        0.000000        0.769496         3    ;  uncertainty k = 0.080416
         5         6         7        62     9      180.000000       -0.058542         4    ;  uncertainty k = 0.152372
         6         5         4        34     9        0.000000       -2.102554         1    ;  uncertainty k = 0.342218
         6         5         4        34     9      180.000000       -0.783404         2    ;  uncertainty k = 0.172498
         6         5         4        34     9        0.000000        1.148501         3    ;  uncertainty k = 0.243874
         6         5         4        34     9      180.000000       -0.311008         4    ;  uncertainty k = 0.102185
         6         5         4        35     9        0.000000       -2.102554         1    ;  uncertainty k = 0.342218
         6         5         4        35     9      180.000000       -0.783404         2    ;  uncertainty k = 0.172498
         6         5         4        35     9        0.000000        1.148501         3    ;  uncertainty k = 0.243874
         6         5         4        35     9      180.000000       -0.311008         4    ;  uncertainty k = 0.102185
         6         7         9         8     9        0.000000       -0.322965         1    ;  uncertainty k = 0.648508
         6         7         9         8     9      180.000000        0.507315         2    ;  uncertainty k = 0.512141
         6         7         9         8     9        0.000000        1.124493         3    ;  uncertainty k = 0.113352
         6         7         9         8     9      180.000000       -0.029562         4    ;  uncertainty k = 0.117956
         6         7         9        10     9        0.000000        0.500562         1    ;  uncertainty k = 0.744661
         6         7         9        10     9      180.000000       -0.366989         2    ;  uncertainty k = 0.314591
         6         7         9        10     9        0.000000        0.804880         3    ;  uncertainty k = 0.216918
         6         7         9        10     9      180.000000       -0.134130         4    ;  uncertainty k = 0.147724
         6         7         9        42     9        0.000000       -0.322965         1    ;  uncertainty k = 0.648508
         6         7         9        42     9      180.000000        0.507315         2    ;  uncertainty k = 0.512141
         6         7         9        42     9        0.000000        1.124493         3    ;  uncertainty k = 0.113352
         6         7         9        42     9      180.000000       -0.029562         4    ;  uncertainty k = 0.117956
         7         6         5        36     9        0.000000        0.037393         1    ;  uncertainty k = 0.699758
         7         6         5        36     9      180.000000       -2.300201         2    ;  uncertainty k = 0.427269
         7         6         5        36     9        0.000000        1.061125         3    ;  uncertainty k = 0.241222
         7         6         5        36     9      180.000000       -0.139290         4    ;  uncertainty k = 0.096559
         7         6         5        37     9        0.000000        0.037393         1    ;  uncertainty k = 0.699758
         7         6         5        37     9      180.000000       -2.300201         2    ;  uncertainty k = 0.427269
         7         6         5        37     9        0.000000        1.061125         3    ;  uncertainty k = 0.241222
         7         6         5        37     9      180.000000       -0.139290         4    ;  uncertainty k = 0.096559
         7         9         8        40     9        0.000000       -1.119677         1    ;  uncertainty k = 1.171413
         7         9         8        40     9      180.000000       -2.604616         2    ;  uncertainty k = 0.569057
         7         9         8        40     9        0.000000        0.773355         3    ;  uncertainty k = 0.099804
         7         9         8        40     9      180.000000       -0.281579         4    ;  uncertainty k = 0.137883
         7         9         8        41     9        0.000000       -1.119677         1    ;  uncertainty k = 1.171413
         7         9         8        41     9      180.000000       -2.604616         2    ;  uncertainty k = 0.569057
         7         9         8        41     9        0.000000        0.773355         3    ;  uncertainty k = 0.099804
         7         9         8        41     9      180.000000       -0.281579         4    ;  uncertainty k = 0.137883
         7         9         8        63     9        0.000000       -1.119677         1    ;  uncertainty k = 1.171413
         7         9         8        63     9      180.000000       -2.604616         2    ;  uncertainty k = 0.569057
         7         9         8        63     9        0.000000        0.773355         3    ;  uncertainty k = 0.099804
         7         9         8        63     9      180.000000       -0.281579         4    ;  uncertainty k = 0.137883
         7         9        10        11     9        0.000000        7.942911         1    ;  uncertainty k = 0.485775
         7         9        10        11     9      180.000000       -2.473932         2    ;  uncertainty k = 1.176131
         7         9        10        11     9        0.000000        1.024676         3    ;  uncertainty k = 0.270845
         7         9        10        11     9      180.000000       -0.506314         4    ;  uncertainty k = 0.166845
         7         9        10        43     9        0.000000       -0.585322         1    ;  uncertainty k = 1.109190
         7         9        10        43     9      180.000000       -1.853562         2    ;  uncertainty k = 0.773606
         7         9        10        43     9        0.000000        0.458830         3    ;  uncertainty k = 0.358031
         7         9        10        43     9      180.000000       -0.169458         4    ;  uncertainty k = 0.118393
         7         9        10        44     9        0.000000       -0.585322         1    ;  uncertainty k = 1.109190
         7         9        10        44     9      180.000000       -1.853562         2    ;  uncertainty k = 0.773606
         7         9        10        44     9        0.000000        0.458830         3    ;  uncertainty k = 0.358031
         7         9        10        44     9      180.000000       -0.169458         4    ;  uncertainty k = 0.118393
         7         9        42        64     9        0.000000       -1.119677         1    ;  uncertainty k = 1.171413
         7         9        42        64     9      180.000000       -2.604616         2    ;  uncertainty k = 0.569057
         7         9        42        64     9        0.000000        0.773355         3    ;  uncertainty k = 0.099804
         7         9        42        64     9      180.000000       -0.281579         4    ;  uncertainty k = 0.137883
         7         9        42        65     9        0.000000       -1.119677         1    ;  uncertainty k = 1.171413
         7         9        42        65     9      180.000000       -2.604616         2    ;  uncertainty k = 0.569057
         7         9        42        65     9        0.000000        0.773355         3    ;  uncertainty k = 0.099804
         7         9        42        65     9      180.000000       -0.281579         4    ;  uncertainty k = 0.137883
         7         9        42        66     9        0.000000       -1.119677         1    ;  uncertainty k = 1.171413
         7         9        42        66     9      180.000000       -2.604616         2    ;  uncertainty k = 0.569057
         7         9        42        66     9        0.000000        0.773355         3    ;  uncertainty k = 0.099804
         7         9        42        66     9      180.000000       -0.281579         4    ;  uncertainty k = 0.137883
         8         9         7        61     9        0.000000        0.033519         1    ;  uncertainty k = 1.146985
         8         9         7        61     9      180.000000        0.146953         2    ;  uncertainty k = 0.410994
         8         9         7        61     9        0.000000        0.475534         3    ;  uncertainty k = 0.176765
         8         9         7        61     9      180.000000       -0.040473         4    ;  uncertainty k = 0.139602
         8         9         7        62     9        0.000000        0.033519         1    ;  uncertainty k = 1.146985
         8         9         7        62     9      180.000000        0.146953         2    ;  uncertainty k = 0.410994
         8         9         7        62     9        0.000000        0.475534         3    ;  uncertainty k = 0.176765
         8         9         7        62     9      180.000000       -0.040473         4    ;  uncertainty k = 0.139602
         8         9        10        11     9        0.000000       -2.224841         1    ;  uncertainty k = 0.639190
         8         9        10        11     9      180.000000        1.342185         2    ;  uncertainty k = 0.540083
         8         9        10        11     9        0.000000        1.523278         3    ;  uncertainty k = 0.438927
         8         9        10        11     9      180.000000       -0.193293         4    ;  uncertainty k = 0.162177
         8         9        10        43     9        0.000000       -1.230740         1    ;  uncertainty k = 0.668351
         8         9        10        43     9      180.000000        0.036891         2    ;  uncertainty k = 0.228554
         8         9        10        43     9        0.000000        0.181132         3    ;  uncertainty k = 0.060782
         8         9        10        43     9      180.000000       -0.066572         4    ;  uncertainty k = 0.118227
         8         9        10        44     9        0.000000       -1.230740         1    ;  uncertainty k = 0.668351
         8         9        10        44     9      180.000000        0.036891         2    ;  uncertainty k = 0.228554
         8         9        10        44     9        0.000000        0.181132         3    ;  uncertainty k = 0.060782
         8         9        10        44     9      180.000000       -0.066572         4    ;  uncertainty k = 0.118227
         8         9        42        64     9        0.000000       -0.810828         1    ;  uncertainty k = 0.493157
         8         9        42        64     9      180.000000       -0.219607         2    ;  uncertainty k = 0.174757
         8         9        42        64     9        0.000000        0.619284         3    ;  uncertainty k = 0.161846
         8         9        42        64     9      180.000000       -0.000466         4    ;  uncertainty k = 0.042155
         8         9        42        65     9        0.000000       -0.810828         1    ;  uncertainty k = 0.493157
         8         9        42        65     9      180.000000       -0.219607         2    ;  uncertainty k = 0.174757
         8         9        42        65     9        0.000000        0.619284         3    ;  uncertainty k = 0.161846
         8         9        42        65     9      180.000000       -0.000466         4    ;  uncertainty k = 0.042155
         8         9        42        66     9        0.000000       -0.810828         1    ;  uncertainty k = 0.493157
         8         9        42        66     9      180.000000       -0.219607         2    ;  uncertainty k = 0.174757
         8         9        42        66     9        0.000000        0.619284         3    ;  uncertainty k = 0.161846
         8         9        42        66     9      180.000000       -0.000466         4    ;  uncertainty k = 0.042155
         9         7         6        38     9        0.000000        0.553594         1    ;  uncertainty k = 0.697449
         9         7         6        38     9      180.000000       -1.060897         2    ;  uncertainty k = 0.194940
         9         7         6        38     9        0.000000        0.897880         3    ;  uncertainty k = 0.165689
         9         7         6        38     9      180.000000       -0.108869         4    ;  uncertainty k = 0.171901
         9         7         6        39     9        0.000000        0.553594         1    ;  uncertainty k = 0.697449
         9         7         6        39     9      180.000000       -1.060897         2    ;  uncertainty k = 0.194940
         9         7         6        39     9        0.000000        0.897880         3    ;  uncertainty k = 0.165689
         9         7         6        39     9      180.000000       -0.108869         4    ;  uncertainty k = 0.171901
         9        10        11        12     9        0.000000        3.165436         1    ;  uncertainty k = 1.585081
         9        10        11        12     9      180.000000       -2.485791         2    ;  uncertainty k = 0.431305
         9        10        11        12     9        0.000000        0.480192         3    ;  uncertainty k = 0.442928
         9        10        11        12     9      180.000000        0.152840         4    ;  uncertainty k = 0.125252
         9        10        11        45     9        0.000000        3.935865         1    ;  uncertainty k = 1.175842
         9        10        11        45     9      180.000000       -5.153651         2    ;  uncertainty k = 1.228338
         9        10        11        45     9        0.000000        0.175344         3    ;  uncertainty k = 0.279486
         9        10        11        45     9      180.000000       -0.070142         4    ;  uncertainty k = 0.229176
        10         9         7        61     9        0.000000        1.535458         1    ;  uncertainty k = 1.496190
        10         9         7        61     9      180.000000       -0.358118         2    ;  uncertainty k = 0.570118
        10         9         7        61     9        0.000000        0.469665         3    ;  uncertainty k = 0.081853
        10         9         7        61     9      180.000000       -0.186038         4    ;  uncertainty k = 0.117823
        10         9         7        62     9        0.000000        1.535458         1    ;  uncertainty k = 1.496190
        10         9         7        62     9      180.000000       -0.358118         2    ;  uncertainty k = 0.570118
        10         9         7        62     9        0.000000        0.469665         3    ;  uncertainty k = 0.081853
        10         9         7        62     9      180.000000       -0.186038         4    ;  uncertainty k = 0.117823
        10         9         8        40     9        0.000000       -0.678230         1    ;  uncertainty k = 0.490991
        10         9         8        40     9      180.000000       -0.816068         2    ;  uncertainty k = 0.365166
        10         9         8        40     9        0.000000        0.495806         3    ;  uncertainty k = 0.153008
        10         9         8        40     9      180.000000       -0.264601         4    ;  uncertainty k = 0.035753
        10         9         8        41     9        0.000000       -0.678230         1    ;  uncertainty k = 0.490991
        10         9         8        41     9      180.000000       -0.816068         2    ;  uncertainty k = 0.365166
        10         9         8        41     9        0.000000        0.495806         3    ;  uncertainty k = 0.153008
        10         9         8        41     9      180.000000       -0.264601         4    ;  uncertainty k = 0.035753
        10         9         8        63     9        0.000000       -0.678230         1    ;  uncertainty k = 0.490991
        10         9         8        63     9      180.000000       -0.816068         2    ;  uncertainty k = 0.365166
        10         9         8        63     9        0.000000        0.495806         3    ;  uncertainty k = 0.153008
        10         9         8        63     9      180.000000       -0.264601         4    ;  uncertainty k = 0.035753
        10         9        42        64     9        0.000000       -0.678230         1    ;  uncertainty k = 0.490991
        10         9        42        64     9      180.000000       -0.816068         2    ;  uncertainty k = 0.365166
        10         9        42        64     9        0.000000        0.495806         3    ;  uncertainty k = 0.153008
        10         9        42        64     9      180.000000       -0.264601         4    ;  uncertainty k = 0.035753
        10         9        42        65     9        0.000000       -0.678230         1    ;  uncertainty k = 0.490991
        10         9        42        65     9      180.000000       -0.816068         2    ;  uncertainty k = 0.365166
        10         9        42        65     9        0.000000        0.495806         3    ;  uncertainty k = 0.153008
        10         9        42        65     9      180.000000       -0.264601         4    ;  uncertainty k = 0.035753
        10         9        42        66     9        0.000000       -0.678230         1    ;  uncertainty k = 0.490991
        10         9        42        66     9      180.000000       -0.816068         2    ;  uncertainty k = 0.365166
        10         9        42        66     9        0.000000        0.495806         3    ;  uncertainty k = 0.153008
        10         9        42        66     9      180.000000       -0.264601         4    ;  uncertainty k = 0.035753
        10        11        12        13     9        0.000000        2.608370         1    ;  uncertainty k = 0.996806
        10        11        12        13     9      180.000000        6.445783         2    ;  uncertainty k = 0.670537
        10        11        12        13     9        0.000000       -0.039390         3    ;  uncertainty k = 0.362684
        10        11        12        13     9      180.000000        0.014200         4    ;  uncertainty k = 0.282285
        10        11        12        17     9        0.000000        3.943527         1    ;  uncertainty k = 0.975680
        10        11        12        17     9      180.000000        7.675060         2    ;  uncertainty k = 0.953832
        10        11        12        17     9        0.000000        0.543709         3    ;  uncertainty k = 0.381533
        10        11        12        17     9      180.000000       -0.120019         4    ;  uncertainty k = 0.380552
        11        10         9        42     9        0.000000       -2.224841         1    ;  uncertainty k = 0.639190
        11        10         9        42     9      180.000000        1.342185         2    ;  uncertainty k = 0.540083
        11        10         9        42     9        0.000000        1.523278         3    ;  uncertainty k = 0.438927
        11        10         9        42     9      180.000000       -0.193293         4    ;  uncertainty k = 0.162177
        11        12        13        14     9        0.000000        0.450364         1    ;  uncertainty k = 0.753003
        11        12        13        14     9      180.000000        9.876122         2    ;  uncertainty k = 0.422967
        11        12        13        14     9        0.000000        0.790825         3    ;  uncertainty k = 0.137359
        11        12        13        14     9      180.000000        1.599965         4    ;  uncertainty k = 0.257669
        11        12        13        46     9        0.000000       -0.112452         1    ;  uncertainty k = 0.290683
        11        12        13        46     9      180.000000        7.659817         2    ;  uncertainty k = 0.659591
        11        12        13        46     9        0.000000        0.824485         3    ;  uncertainty k = 0.123170
        11        12        13        46     9      180.000000        1.317474         4    ;  uncertainty k = 0.327950
        11        12        17        16     9        0.000000       -0.027068         1    ;  uncertainty k = 0.806594
        11        12        17        16     9      180.000000        7.221728         2    ;  uncertainty k = 0.629777
        11        12        17        16     9        0.000000        0.982680         3    ;  uncertainty k = 0.385440
        11        12        17        16     9      180.000000        1.555031         4    ;  uncertainty k = 0.253794
        11        12        17        18     9        0.000000       -0.460414         1    ;  uncertainty k = 0.818922
        11        12        17        18     9      180.000000        7.833535         2    ;  uncertainty k = 0.665627
        11        12        17        18     9        0.000000        1.228930         3    ;  uncertainty k = 0.391949
        11        12        17        18     9      180.000000        1.592765         4    ;  uncertainty k = 0.412220
        12        11        10        43     9        0.000000       -0.505797         1    ;  uncertainty k = 0.705266
        12        11        10        43     9      180.000000       -1.130826         2    ;  uncertainty k = 0.618251
        12        11        10        43     9        0.000000        0.469225         3    ;  uncertainty k = 0.122541
        12        11        10        43     9      180.000000        0.244351         4    ;  uncertainty k = 0.040409
        12        11        10        44     9        0.000000       -0.505797         1    ;  uncertainty k = 0.705266
        12        11        10        44     9      180.000000       -1.130826         2    ;  uncertainty k = 0.618251
        12        11        10        44     9        0.000000        0.469225         3    ;  uncertainty k = 0.122541
        12        11        10        44     9      180.000000        0.244351         4    ;  uncertainty k = 0.040409
        12        13        14        15     9        0.000000        0.375046         1    ;  uncertainty k = 0.445195
        12        13        14        15     9      180.000000        9.715485         2    ;  uncertainty k = 0.569552
        12        13        14        15     9        0.000000       -0.034876         3    ;  uncertainty k = 0.292106
        12        13        14        15     9      180.000000        1.164269         4    ;  uncertainty k = 0.276404
        12        13        14        21     9        0.000000        0.321063         1    ;  uncertainty k = 0.353109
        12        13        14        21     9      180.000000       10.467168         2    ;  uncertainty k = 0.667769
        12        13        14        21     9        0.000000        1.332198         3    ;  uncertainty k = 0.244544
        12        13        14        21     9      180.000000        1.569627         4    ;  uncertainty k = 0.409935
        12        17        16        15     9        0.000000        0.036606         1    ;  uncertainty k = 0.356657
        12        17        16        15     9      180.000000       10.195632         2    ;  uncertainty k = 0.140856
        12        17        16        15     9        0.000000       -0.252956         3    ;  uncertainty k = 0.552820
        12        17        16        15     9      180.000000        1.156175         4    ;  uncertainty k = 0.280587
        12        17        16        48     9        0.000000        0.164639         1    ;  uncertainty k = 0.293862
        12        17        16        48     9      180.000000        8.219923         2    ;  uncertainty k = 0.527274
        12        17        16        48     9        0.000000        1.088775         3    ;  uncertainty k = 0.331396
        12        17        16        48     9      180.000000        1.499091         4    ;  uncertainty k = 0.293925
        12        17        18        19     9        0.000000        0.297319         1    ;  uncertainty k = 1.159181
        12        17        18        19     9      180.000000        5.278157         2    ;  uncertainty k = 0.455084
        12        17        18        19     9        0.000000        0.485168         3    ;  uncertainty k = 0.392491
        12        17        18        19     9      180.000000        0.148720         4    ;  uncertainty k = 0.272559
        12        17        18        20     9        0.000000       -0.918111         1    ;  uncertainty k = 2.222032
        12        17        18        20     9      180.000000        3.344946         2    ;  uncertainty k = 1.288186
        12        17        18        20     9        0.000000        0.852027         3    ;  uncertainty k = 0.412324
        12        17        18        20     9      180.000000        0.325630         4    ;  uncertainty k = 0.200105
        13        12        11        45     9        0.000000        3.922505         1    ;  uncertainty k = 2.373862
        13        12        11        45     9      180.000000        5.660856         2    ;  uncertainty k = 0.636527
        13        12        11        45     9        0.000000        0.712502         3    ;  uncertainty k = 0.167910
        13        12        11        45     9      180.000000       -0.257459         4    ;  uncertainty k = 0.170770
        13        12        17        16     9        0.000000       -0.083178         1    ;  uncertainty k = 0.860059
        13        12        17        16     9      180.000000        5.281458         2    ;  uncertainty k = 0.859319
        13        12        17        16     9        0.000000        0.349027         3    ;  uncertainty k = 0.348970
        13        12        17        16     9      180.000000        1.453817         4    ;  uncertainty k = 0.325522
        13        12        17        18     9        0.000000        0.603804         1    ;  uncertainty k = 1.471321
        13        12        17        18     9      180.000000        5.244946         2    ;  uncertainty k = 0.449673
        13        12        17        18     9        0.000000        1.070665         3    ;  uncertainty k = 0.392739
        13        12        17        18     9      180.000000        1.713629         4    ;  uncertainty k = 0.132640
        13        14        15        16     9        0.000000       -0.032706         1    ;  uncertainty k = 0.302370
        13        14        15        16     9      180.000000        9.900001         2    ;  uncertainty k = 0.501782
        13        14        15        16     9        0.000000       -0.157633         3    ;  uncertainty k = 0.314968
        13        14        15        16     9      180.000000        1.132581         4    ;  uncertainty k = 0.253187
        13        14        15        47     9        0.000000        0.109609         1    ;  uncertainty k = 0.237290
        13        14        15        47     9      180.000000        6.642136         2    ;  uncertainty k = 0.978720
        13        14        15        47     9        0.000000        1.281617         3    ;  uncertainty k = 0.371824
        13        14        15        47     9      180.000000        1.571041         4    ;  uncertainty k = 0.295430
        13        14        21        22     9        0.000000        0.843034         1    ;  uncertainty k = 0.831585
        13        14        21        22     9      180.000000        5.102823         2    ;  uncertainty k = 0.134396
        13        14        21        22     9        0.000000        0.341002         3    ;  uncertainty k = 0.171041
        13        14        21        22     9      180.000000        0.324261         4    ;  uncertainty k = 0.072607
        14        13        12        17     9        0.000000        0.360335         1    ;  uncertainty k = 0.563620
        14        13        12        17     9      180.000000        6.235622         2    ;  uncertainty k = 1.086091
        14        13        12        17     9        0.000000        0.586096         3    ;  uncertainty k = 0.415384
        14        13        12        17     9      180.000000        1.388793         4    ;  uncertainty k = 0.290267
        14        15        16        17     9        0.000000       -0.113093         1    ;  uncertainty k = 0.280302
        14        15        16        17     9      180.000000       12.300677         2    ;  uncertainty k = 0.371330
        14        15        16        17     9        0.000000       -0.794070         3    ;  uncertainty k = 0.512862
        14        15        16        17     9      180.000000        0.871852         4    ;  uncertainty k = 0.323708
        14        15        16        48     9        0.000000       -0.111326         1    ;  uncertainty k = 0.371912
        14        15        16        48     9      180.000000        8.088319         2    ;  uncertainty k = 0.358999
        14        15        16        48     9        0.000000        1.005365         3    ;  uncertainty k = 0.229771
        14        15        16        48     9      180.000000        1.767343         4    ;  uncertainty k = 0.141766
        14        21        22        23     9        0.000000        1.593212         1    ;  uncertainty k = 0.870094
        14        21        22        23     9      180.000000        9.887006         2    ;  uncertainty k = 0.481149
        14        21        22        23     9        0.000000        1.467863         3    ;  uncertainty k = 0.565699
        14        21        22        23     9      180.000000        0.043056         4    ;  uncertainty k = 0.188250
        14        21        22        30     9        0.000000        0.904209         1    ;  uncertainty k = 0.990308
        14        21        22        30     9      180.000000        4.002821         2    ;  uncertainty k = 0.515565
        14        21        22        30     9        0.000000        1.137097         3    ;  uncertainty k = 0.269017
        14        21        22        30     9      180.000000        0.253587         4    ;  uncertainty k = 0.094421
        15        14        13        46     9        0.000000        0.279137         1    ;  uncertainty k = 0.281661
        15        14        13        46     9      180.000000        7.531442         2    ;  uncertainty k = 0.603914
        15        14        13        46     9        0.000000        1.361033         3    ;  uncertainty k = 0.413152
        15        14        13        46     9      180.000000        1.559274         4    ;  uncertainty k = 0.242159
        15        14        21        22     9        0.000000        1.059307         1    ;  uncertainty k = 1.166731
        15        14        21        22     9      180.000000        5.351594         2    ;  uncertainty k = 0.181102
        15        14        21        22     9        0.000000        0.470054         3    ;  uncertainty k = 0.232892
        15        14        21        22     9      180.000000        0.326812         4    ;  uncertainty k = 0.073684
        15        16        17        18     9        0.000000        0.081264         1    ;  uncertainty k = 0.560523
        15        16        17        18     9      180.000000        8.776959         2    ;  uncertainty k = 0.879429
        15        16        17        18     9        0.000000        1.450148         3    ;  uncertainty k = 0.469905
        15        16        17        18     9      180.000000        1.770321         4    ;  uncertainty k = 0.406481
        16        15        14        21     9        0.000000        0.108564         1    ;  uncertainty k = 0.272135
        16        15        14        21     9      180.000000        9.802684         2    ;  uncertainty k = 0.541646
        16        15        14        21     9        0.000000        1.306516         3    ;  uncertainty k = 0.462976
        16        15        14        21     9      180.000000        1.759888         4    ;  uncertainty k = 0.292485
        16        17        18        19     9        0.000000        0.309159         1    ;  uncertainty k = 0.417123
        16        17        18        19     9      180.000000        4.399036         2    ;  uncertainty k = 0.263870
        16        17        18        19     9        0.000000        0.333826         3    ;  uncertainty k = 0.263524
        16        17        18        19     9      180.000000        0.048345         4    ;  uncertainty k = 0.202801
        16        17        18        20     9        0.000000       -2.548556         1    ;  uncertainty k = 1.262023
        16        17        18        20     9      180.000000        4.140655         2    ;  uncertainty k = 0.813339
        16        17        18        20     9        0.000000        0.702641         3    ;  uncertainty k = 0.265070
        16        17        18        20     9      180.000000        0.288999         4    ;  uncertainty k = 0.213810
        17        12        11        45     9        0.000000        7.652077         1    ;  uncertainty k = 0.563205
        17        12        11        45     9      180.000000        4.920706         2    ;  uncertainty k = 0.576971
        17        12        11        45     9        0.000000        0.626161         3    ;  uncertainty k = 0.252109
        17        12        11        45     9      180.000000       -0.057471         4    ;  uncertainty k = 0.061144
        17        12        13        46     9        0.000000        0.567902         1    ;  uncertainty k = 0.893409
        17        12        13        46     9      180.000000        5.433141         2    ;  uncertainty k = 0.738416
        17        12        13        46     9        0.000000        1.374884         3    ;  uncertainty k = 0.283965
        17        12        13        46     9      180.000000        1.453310         4    ;  uncertainty k = 0.213445
        17        16        15        47     9        0.000000       -0.152253         1    ;  uncertainty k = 0.261671
        17        16        15        47     9      180.000000        8.001816         2    ;  uncertainty k = 0.530706
        17        16        15        47     9        0.000000        1.217926         3    ;  uncertainty k = 0.360003
        17        16        15        47     9      180.000000        1.706501         4    ;  uncertainty k = 0.171491
        17        18        19        49     9        0.000000        3.550321         1    ;  uncertainty k = 1.153018
        17        18        19        49     9      180.000000        7.158108         2    ;  uncertainty k = 0.637032
        17        18        19        49     9        0.000000        2.732941         3    ;  uncertainty k = 0.512248
        17        18        19        49     9      180.000000       -0.240737         4    ;  uncertainty k = 0.304545
        17        18        19        50     9        0.000000        3.550321         1    ;  uncertainty k = 1.153018
        17        18        19        50     9      180.000000        7.158108         2    ;  uncertainty k = 0.637032
        17        18        19        50     9        0.000000        2.732941         3    ;  uncertainty k = 0.512248
        17        18        19        50     9      180.000000       -0.240737         4    ;  uncertainty k = 0.304545
        18        17        16        48     9        0.000000       -0.133763         1    ;  uncertainty k = 0.406868
        18        17        16        48     9      180.000000        8.463368         2    ;  uncertainty k = 0.522334
        18        17        16        48     9        0.000000        1.055474         3    ;  uncertainty k = 0.215693
        18        17        16        48     9      180.000000        1.227618         4    ;  uncertainty k = 0.292964
        20        18        19        49     9        0.000000        4.288278         1    ;  uncertainty k = 0.786452
        20        18        19        49     9      180.000000       11.499130         2    ;  uncertainty k = 0.403752
        20        18        19        49     9        0.000000        2.102366         3    ;  uncertainty k = 0.130474
        20        18        19        49     9      180.000000        0.313821         4    ;  uncertainty k = 0.325036
        20        18        19        50     9        0.000000        4.288278         1    ;  uncertainty k = 0.786452
        20        18        19        50     9      180.000000       11.499130         2    ;  uncertainty k = 0.403752
        20        18        19        50     9        0.000000        2.102366         3    ;  uncertainty k = 0.130474
        20        18        19        50     9      180.000000        0.313821         4    ;  uncertainty k = 0.325036
        21         3         2        23     9        0.000000       -0.054829         1    ;  uncertainty k = 0.301933
        21         3         2        23     9      180.000000       20.636831         2    ;  uncertainty k = 0.632703
        21         3         2        23     9        0.000000       -4.986448         3    ;  uncertainty k = 0.860330
        21         3         2        23     9      180.000000        1.348086         4    ;  uncertainty k = 0.713696
        21         3         4        34     9        0.000000        0.064486         1    ;  uncertainty k = 0.369627
        21         3         4        34     9      180.000000        1.073020         2    ;  uncertainty k = 0.311832
        21         3         4        34     9        0.000000        0.445650         3    ;  uncertainty k = 0.152370
        21         3         4        34     9      180.000000        0.181709         4    ;  uncertainty k = 0.090417
        21         3         4        35     9        0.000000        0.064486         1    ;  uncertainty k = 0.369627
        21         3         4        35     9      180.000000        1.073020         2    ;  uncertainty k = 0.311832
        21         3         4        35     9        0.000000        0.445650         3    ;  uncertainty k = 0.152370
        21         3         4        35     9      180.000000        0.181709         4    ;  uncertainty k = 0.090417
        21        14        13        46     9        0.000000       -0.143110         1    ;  uncertainty k = 0.349183
        21        14        13        46     9      180.000000        7.907545         2    ;  uncertainty k = 0.304139
        21        14        13        46     9        0.000000        0.694985         3    ;  uncertainty k = 0.231205
        21        14        13        46     9      180.000000        1.232533         4    ;  uncertainty k = 0.280602
        21        14        15        47     9        0.000000       -0.099704         1    ;  uncertainty k = 0.318762
        21        14        15        47     9      180.000000        7.486877         2    ;  uncertainty k = 0.240960
        21        14        15        47     9        0.000000        0.734937         3    ;  uncertainty k = 0.238719
        21        14        15        47     9      180.000000        1.147861         4    ;  uncertainty k = 0.284133
        21        22        23        24     9        0.000000        0.486223         1    ;  uncertainty k = 1.099362
        21        22        23        24     9      180.000000        8.715478         2    ;  uncertainty k = 0.609696
        21        22        23        24     9        0.000000        0.906466         3    ;  uncertainty k = 0.971958
        21        22        23        24     9      180.000000        1.462955         4    ;  uncertainty k = 0.283592
        21        22        30        27     9        0.000000       -3.174112         1    ;  uncertainty k = 0.779563
        21        22        30        27     9      180.000000        0.246367         2    ;  uncertainty k = 0.541235
        21        22        30        27     9        0.000000        0.210351         3    ;  uncertainty k = 0.156256
        21        22        30        27     9      180.000000        0.178761         4    ;  uncertainty k = 0.054406
        21        22        30        59     9        0.000000       -0.146279         1    ;  uncertainty k = 0.476983
        21        22        30        59     9      180.000000        1.426171         2    ;  uncertainty k = 0.559112
        21        22        30        59     9        0.000000        0.507201         3    ;  uncertainty k = 0.195712
        21        22        30        59     9      180.000000        0.159041         4    ;  uncertainty k = 0.035696
        21        22        30        60     9        0.000000       -0.146279         1    ;  uncertainty k = 0.476983
        21        22        30        60     9      180.000000        1.426171         2    ;  uncertainty k = 0.559112
        21        22        30        60     9        0.000000        0.507201         3    ;  uncertainty k = 0.195712
        21        22        30        60     9      180.000000        0.159041         4    ;  uncertainty k = 0.035696
        22        23        24        25     9        0.000000        0.267850         1    ;  uncertainty k = 0.434076
        22        23        24        25     9      180.000000        5.596174         2    ;  uncertainty k = 0.479083
        22        23        24        25     9        0.000000        0.525521         3    ;  uncertainty k = 0.209090
        22        23        24        25     9      180.000000       -0.080038         4    ;  uncertainty k = 0.143103
        22        23        24        26     9        0.000000       -0.807203         1    ;  uncertainty k = 1.678478
        22        23        24        26     9      180.000000        3.101737         2    ;  uncertainty k = 0.502701
        22        23        24        26     9        0.000000       -0.584870         3    ;  uncertainty k = 0.363867
        22        23        24        26     9      180.000000        0.407747         4    ;  uncertainty k = 0.104996
        22        30        27        26     9        0.000000       -0.779351         1    ;  uncertainty k = 1.271616
        22        30        27        26     9      180.000000       -0.810022         2    ;  uncertainty k = 0.439293
        22        30        27        26     9        0.000000        1.125399         3    ;  uncertainty k = 0.236290
        22        30        27        26     9      180.000000       -0.565116         4    ;  uncertainty k = 0.070459
        22        30        27        28     9        0.000000       -2.059378         1    ;  uncertainty k = 0.851927
        22        30        27        28     9      180.000000        0.138693         2    ;  uncertainty k = 0.296506
        22        30        27        28     9        0.000000        0.960865         3    ;  uncertainty k = 0.087683
        22        30        27        28     9      180.000000       -0.140925         4    ;  uncertainty k = 0.099251
        22        30        27        29     9        0.000000       -2.059378         1    ;  uncertainty k = 0.851927
        22        30        27        29     9      180.000000        0.138693         2    ;  uncertainty k = 0.296506
        22        30        27        29     9        0.000000        0.960865         3    ;  uncertainty k = 0.087683
        22        30        27        29     9      180.000000       -0.140925         4    ;  uncertainty k = 0.099251
        23         2         1        31     9        0.000000       -0.318821         1    ;  uncertainty k = 0.317395
        23         2         1        31     9      180.000000        2.303151         2    ;  uncertainty k = 0.317882
        23         2         1        31     9        0.000000        0.542512         3    ;  uncertainty k = 0.089295
        23         2         1        31     9      180.000000        0.203216         4    ;  uncertainty k = 0.096951
        23         2         1        32     9        0.000000       -0.318821         1    ;  uncertainty k = 0.317395
        23         2         1        32     9      180.000000        2.303151         2    ;  uncertainty k = 0.317882
        23         2         1        32     9        0.000000        0.542512         3    ;  uncertainty k = 0.089295
        23         2         1        32     9      180.000000        0.203216         4    ;  uncertainty k = 0.096951
        23         2         1        33     9        0.000000       -0.318821         1    ;  uncertainty k = 0.317395
        23         2         1        33     9      180.000000        2.303151         2    ;  uncertainty k = 0.317882
        23         2         1        33     9        0.000000        0.542512         3    ;  uncertainty k = 0.089295
        23         2         1        33     9      180.000000        0.203216         4    ;  uncertainty k = 0.096951
        23        22        30        27     9        0.000000       -5.743625         1    ;  uncertainty k = 0.992785
        23        22        30        27     9      180.000000        3.423295         2    ;  uncertainty k = 0.718952
        23        22        30        27     9        0.000000       -0.241331         3    ;  uncertainty k = 0.408245
        23        22        30        27     9      180.000000       -0.102577         4    ;  uncertainty k = 0.192591
        23        22        30        59     9        0.000000        0.132939         1    ;  uncertainty k = 0.353732
        23        22        30        59     9      180.000000        1.654253         2    ;  uncertainty k = 0.268580
        23        22        30        59     9        0.000000        0.086087         3    ;  uncertainty k = 0.209388
        23        22        30        59     9      180.000000       -0.010768         4    ;  uncertainty k = 0.059037
        23        22        30        60     9        0.000000        0.132939         1    ;  uncertainty k = 0.353732
        23        22        30        60     9      180.000000        1.654253         2    ;  uncertainty k = 0.268580
        23        22        30        60     9        0.000000        0.086087         3    ;  uncertainty k = 0.209388
        23        22        30        60     9      180.000000       -0.010768         4    ;  uncertainty k = 0.059037
        23        24        26        27     9        0.000000       -1.816999         1    ;  uncertainty k = 1.169015
        23        24        26        27     9      180.000000        1.111719         2    ;  uncertainty k = 0.775326
        23        24        26        27     9        0.000000        0.530189         3    ;  uncertainty k = 0.364970
        23        24        26        27     9      180.000000        0.320395         4    ;  uncertainty k = 0.142559
        23        24        26        51     9        0.000000       -2.829393         1    ;  uncertainty k = 0.709562
        23        24        26        51     9      180.000000        2.442710         2    ;  uncertainty k = 0.465671
        23        24        26        51     9        0.000000        0.611080         3    ;  uncertainty k = 0.177240
        23        24        26        51     9      180.000000        0.073930         4    ;  uncertainty k = 0.113308
        23        24        26        52     9        0.000000       -2.829393         1    ;  uncertainty k = 0.709562
        23        24        26        52     9      180.000000        2.442710         2    ;  uncertainty k = 0.465671
        23        24        26        52     9        0.000000        0.611080         3    ;  uncertainty k = 0.177240
        23        24        26        52     9      180.000000        0.073930         4    ;  uncertainty k = 0.113308
        24        23        22        30     9        0.000000       -0.297424         1    ;  uncertainty k = 0.377298
        24        23        22        30     9      180.000000        7.571016         2    ;  uncertainty k = 0.845428
        24        23        22        30     9        0.000000        1.304070         3    ;  uncertainty k = 0.246622
        24        23        22        30     9      180.000000        0.870019         4    ;  uncertainty k = 0.242607
        24        26        27        28     9        0.000000       -3.108042         1    ;  uncertainty k = 1.074988
        24        26        27        28     9      180.000000        0.837403         2    ;  uncertainty k = 0.454399
        24        26        27        28     9        0.000000        0.620633         3    ;  uncertainty k = 0.203581
        24        26        27        28     9      180.000000       -0.175457         4    ;  uncertainty k = 0.135641
        24        26        27        29     9        0.000000       -3.108042         1    ;  uncertainty k = 1.074988
        24        26        27        29     9      180.000000        0.837403         2    ;  uncertainty k = 0.454399
        24        26        27        29     9        0.000000        0.620633         3    ;  uncertainty k = 0.203581
        24        26        27        29     9      180.000000       -0.175457         4    ;  uncertainty k = 0.135641
        24        26        27        30     9        0.000000        4.426180         1    ;  uncertainty k = 2.123988
        24        26        27        30     9      180.000000       -2.017071         2    ;  uncertainty k = 1.183009
        24        26        27        30     9        0.000000       -0.145895         3    ;  uncertainty k = 0.490515
        24        26        27        30     9      180.000000       -0.170555         4    ;  uncertainty k = 0.458127
        25        24        26        27     9        0.000000       -1.651345         1    ;  uncertainty k = 1.529623
        25        24        26        27     9      180.000000        4.493844         2    ;  uncertainty k = 0.895842
        25        24        26        27     9        0.000000        1.248224         3    ;  uncertainty k = 0.555966
        25        24        26        27     9      180.000000        0.499234         4    ;  uncertainty k = 0.193383
        25        24        26        51     9        0.000000        1.807907         1    ;  uncertainty k = 0.733952
        25        24        26        51     9      180.000000        4.455562         2    ;  uncertainty k = 0.196116
        25        24        26        51     9        0.000000        0.423865         3    ;  uncertainty k = 0.105725
        25        24        26        51     9      180.000000        0.189425         4    ;  uncertainty k = 0.055096
        25        24        26        52     9        0.000000        1.807907         1    ;  uncertainty k = 0.733952
        25        24        26        52     9      180.000000        4.455562         2    ;  uncertainty k = 0.196116
        25        24        26        52     9        0.000000        0.423865         3    ;  uncertainty k = 0.105725
        25        24        26        52     9      180.000000        0.189425         4    ;  uncertainty k = 0.055096
        26        27        28        53     9        0.000000       -0.849960         1    ;  uncertainty k = 0.267419
        26        27        28        53     9      180.000000       -0.697110         2    ;  uncertainty k = 0.151027
        26        27        28        53     9        0.000000        0.772063         3    ;  uncertainty k = 0.038120
        26        27        28        53     9      180.000000       -0.185621         4    ;  uncertainty k = 0.075834
        26        27        28        54     9        0.000000       -0.849960         1    ;  uncertainty k = 0.267419
        26        27        28        54     9      180.000000       -0.697110         2    ;  uncertainty k = 0.151027
        26        27        28        54     9        0.000000        0.772063         3    ;  uncertainty k = 0.038120
        26        27        28        54     9      180.000000       -0.185621         4    ;  uncertainty k = 0.075834
        26        27        28        55     9        0.000000       -0.849960         1    ;  uncertainty k = 0.267419
        26        27        28        55     9      180.000000       -0.697110         2    ;  uncertainty k = 0.151027
        26        27        28        55     9        0.000000        0.772063         3    ;  uncertainty k = 0.038120
        26        27        28        55     9      180.000000       -0.185621         4    ;  uncertainty k = 0.075834
        26        27        29        56     9        0.000000       -0.849960         1    ;  uncertainty k = 0.267419
        26        27        29        56     9      180.000000       -0.697110         2    ;  uncertainty k = 0.151027
        26        27        29        56     9        0.000000        0.772063         3    ;  uncertainty k = 0.038120
        26        27        29        56     9      180.000000       -0.185621         4    ;  uncertainty k = 0.075834
        26        27        29        57     9        0.000000       -0.849960         1    ;  uncertainty k = 0.267419
        26        27        29        57     9      180.000000       -0.697110         2    ;  uncertainty k = 0.151027
        26        27        29        57     9        0.000000        0.772063         3    ;  uncertainty k = 0.038120
        26        27        29        57     9      180.000000       -0.185621         4    ;  uncertainty k = 0.075834
        26        27        29        58     9        0.000000       -0.849960         1    ;  uncertainty k = 0.267419
        26        27        29        58     9      180.000000       -0.697110         2    ;  uncertainty k = 0.151027
        26        27        29        58     9        0.000000        0.772063         3    ;  uncertainty k = 0.038120
        26        27        29        58     9      180.000000       -0.185621         4    ;  uncertainty k = 0.075834
        26        27        30        59     9        0.000000       -0.565077         1    ;  uncertainty k = 0.337933
        26        27        30        59     9      180.000000       -0.552917         2    ;  uncertainty k = 0.313964
        26        27        30        59     9        0.000000        0.111029         3    ;  uncertainty k = 0.061469
        26        27        30        59     9      180.000000        0.013508         4    ;  uncertainty k = 0.088562
        26        27        30        60     9        0.000000       -0.565077         1    ;  uncertainty k = 0.337933
        26        27        30        60     9      180.000000       -0.552917         2    ;  uncertainty k = 0.313964
        26        27        30        60     9        0.000000        0.111029         3    ;  uncertainty k = 0.061469
        26        27        30        60     9      180.000000        0.013508         4    ;  uncertainty k = 0.088562
        28        27        26        51     9        0.000000       -0.380879         1    ;  uncertainty k = 0.148987
        28        27        26        51     9      180.000000        0.029116         2    ;  uncertainty k = 0.242309
        28        27        26        51     9        0.000000        0.376394         3    ;  uncertainty k = 0.083406
        28        27        26        51     9      180.000000       -0.141551         4    ;  uncertainty k = 0.073708
        28        27        26        52     9        0.000000       -0.380879         1    ;  uncertainty k = 0.148987
        28        27        26        52     9      180.000000        0.029116         2    ;  uncertainty k = 0.242309
        28        27        26        52     9        0.000000        0.376394         3    ;  uncertainty k = 0.083406
        28        27        26        52     9      180.000000       -0.141551         4    ;  uncertainty k = 0.073708
        28        27        29        56     9        0.000000       -1.100689         1    ;  uncertainty k = 0.262907
        28        27        29        56     9      180.000000       -0.104141         2    ;  uncertainty k = 0.144225
        28        27        29        56     9        0.000000        0.812856         3    ;  uncertainty k = 0.036112
        28        27        29        56     9      180.000000       -0.129298         4    ;  uncertainty k = 0.042322
        28        27        29        57     9        0.000000       -1.100689         1    ;  uncertainty k = 0.262907
        28        27        29        57     9      180.000000       -0.104141         2    ;  uncertainty k = 0.144225
        28        27        29        57     9        0.000000        0.812856         3    ;  uncertainty k = 0.036112
        28        27        29        57     9      180.000000       -0.129298         4    ;  uncertainty k = 0.042322
        28        27        29        58     9        0.000000       -1.100689         1    ;  uncertainty k = 0.262907
        28        27        29        58     9      180.000000       -0.104141         2    ;  uncertainty k = 0.144225
        28        27        29        58     9        0.000000        0.812856         3    ;  uncertainty k = 0.036112
        28        27        29        58     9      180.000000       -0.129298         4    ;  uncertainty k = 0.042322
        28        27        30        59     9        0.000000       -0.345052         1    ;  uncertainty k = 0.164725
        28        27        30        59     9      180.000000       -0.042992         2    ;  uncertainty k = 0.303596
        28        27        30        59     9        0.000000        0.449839         3    ;  uncertainty k = 0.094580
        28        27        30        59     9      180.000000       -0.101076         4    ;  uncertainty k = 0.068895
        28        27        30        60     9        0.000000       -0.345052         1    ;  uncertainty k = 0.164725
        28        27        30        60     9      180.000000       -0.042992         2    ;  uncertainty k = 0.303596
        28        27        30        60     9        0.000000        0.449839         3    ;  uncertainty k = 0.094580
        28        27        30        60     9      180.000000       -0.101076         4    ;  uncertainty k = 0.068895
        29        27        26        51     9        0.000000       -0.380879         1    ;  uncertainty k = 0.148987
        29        27        26        51     9      180.000000        0.029116         2    ;  uncertainty k = 0.242309
        29        27        26        51     9        0.000000        0.376394         3    ;  uncertainty k = 0.083406
        29        27        26        51     9      180.000000       -0.141551         4    ;  uncertainty k = 0.073708
        29        27        26        52     9        0.000000       -0.380879         1    ;  uncertainty k = 0.148987
        29        27        26        52     9      180.000000        0.029116         2    ;  uncertainty k = 0.242309
        29        27        26        52     9        0.000000        0.376394         3    ;  uncertainty k = 0.083406
        29        27        26        52     9      180.000000       -0.141551         4    ;  uncertainty k = 0.073708
        29        27        28        53     9        0.000000       -1.100689         1    ;  uncertainty k = 0.262907
        29        27        28        53     9      180.000000       -0.104141         2    ;  uncertainty k = 0.144225
        29        27        28        53     9        0.000000        0.812856         3    ;  uncertainty k = 0.036112
        29        27        28        53     9      180.000000       -0.129298         4    ;  uncertainty k = 0.042322
        29        27        28        54     9        0.000000       -1.100689         1    ;  uncertainty k = 0.262907
        29        27        28        54     9      180.000000       -0.104141         2    ;  uncertainty k = 0.144225
        29        27        28        54     9        0.000000        0.812856         3    ;  uncertainty k = 0.036112
        29        27        28        54     9      180.000000       -0.129298         4    ;  uncertainty k = 0.042322
        29        27        28        55     9        0.000000       -1.100689         1    ;  uncertainty k = 0.262907
        29        27        28        55     9      180.000000       -0.104141         2    ;  uncertainty k = 0.144225
        29        27        28        55     9        0.000000        0.812856         3    ;  uncertainty k = 0.036112
        29        27        28        55     9      180.000000       -0.129298         4    ;  uncertainty k = 0.042322
        29        27        30        59     9        0.000000       -0.345052         1    ;  uncertainty k = 0.164725
        29        27        30        59     9      180.000000       -0.042992         2    ;  uncertainty k = 0.303596
        29        27        30        59     9        0.000000        0.449839         3    ;  uncertainty k = 0.094580
        29        27        30        59     9      180.000000       -0.101076         4    ;  uncertainty k = 0.068895
        29        27        30        60     9        0.000000       -0.345052         1    ;  uncertainty k = 0.164725
        29        27        30        60     9      180.000000       -0.042992         2    ;  uncertainty k = 0.303596
        29        27        30        60     9        0.000000        0.449839         3    ;  uncertainty k = 0.094580
        29        27        30        60     9      180.000000       -0.101076         4    ;  uncertainty k = 0.068895
        30        27        26        51     9        0.000000       -0.493419         1    ;  uncertainty k = 0.248638
        30        27        26        51     9      180.000000       -0.717372         2    ;  uncertainty k = 0.190838
        30        27        26        51     9        0.000000       -0.027739         3    ;  uncertainty k = 0.072348
        30        27        26        51     9      180.000000       -0.010183         4    ;  uncertainty k = 0.107964
        30        27        26        52     9        0.000000       -0.493419         1    ;  uncertainty k = 0.248638
        30        27        26        52     9      180.000000       -0.717372         2    ;  uncertainty k = 0.190838
        30        27        26        52     9        0.000000       -0.027739         3    ;  uncertainty k = 0.072348
        30        27        26        52     9      180.000000       -0.010183         4    ;  uncertainty k = 0.107964
        30        27        28        53     9        0.000000       -0.498537         1    ;  uncertainty k = 0.143112
        30        27        28        53     9      180.000000       -0.848272         2    ;  uncertainty k = 0.184452
        30        27        28        53     9        0.000000        0.727631         3    ;  uncertainty k = 0.102119
        30        27        28        53     9      180.000000       -0.161619         4    ;  uncertainty k = 0.028801
        30        27        28        54     9        0.000000       -0.498537         1    ;  uncertainty k = 0.143112
        30        27        28        54     9      180.000000       -0.848272         2    ;  uncertainty k = 0.184452
        30        27        28        54     9        0.000000        0.727631         3    ;  uncertainty k = 0.102119
        30        27        28        54     9      180.000000       -0.161619         4    ;  uncertainty k = 0.028801
        30        27        28        55     9        0.000000       -0.498537         1    ;  uncertainty k = 0.143112
        30        27        28        55     9      180.000000       -0.848272         2    ;  uncertainty k = 0.184452
        30        27        28        55     9        0.000000        0.727631         3    ;  uncertainty k = 0.102119
        30        27        28        55     9      180.000000       -0.161619         4    ;  uncertainty k = 0.028801
        30        27        29        56     9        0.000000       -0.498537         1    ;  uncertainty k = 0.143112
        30        27        29        56     9      180.000000       -0.848272         2    ;  uncertainty k = 0.184452
        30        27        29        56     9        0.000000        0.727631         3    ;  uncertainty k = 0.102119
        30        27        29        56     9      180.000000       -0.161619         4    ;  uncertainty k = 0.028801
        30        27        29        57     9        0.000000       -0.498537         1    ;  uncertainty k = 0.143112
        30        27        29        57     9      180.000000       -0.848272         2    ;  uncertainty k = 0.184452
        30        27        29        57     9        0.000000        0.727631         3    ;  uncertainty k = 0.102119
        30        27        29        57     9      180.000000       -0.161619         4    ;  uncertainty k = 0.028801
        30        27        29        58     9        0.000000       -0.498537         1    ;  uncertainty k = 0.143112
        30        27        29        58     9      180.000000       -0.848272         2    ;  uncertainty k = 0.184452
        30        27        29        58     9        0.000000        0.727631         3    ;  uncertainty k = 0.102119
        30        27        29        58     9      180.000000       -0.161619         4    ;  uncertainty k = 0.028801
        34         4         5        36     9        0.000000        0.838022         1    ;  uncertainty k = 0.236538
        34         4         5        36     9      180.000000       -0.367640         2    ;  uncertainty k = 0.288557
        34         4         5        36     9        0.000000        0.233807         3    ;  uncertainty k = 0.067383
        34         4         5        36     9      180.000000        0.087683         4    ;  uncertainty k = 0.043351
        34         4         5        37     9        0.000000        0.838022         1    ;  uncertainty k = 0.236538
        34         4         5        37     9      180.000000       -0.367640         2    ;  uncertainty k = 0.288557
        34         4         5        37     9        0.000000        0.233807         3    ;  uncertainty k = 0.067383
        34         4         5        37     9      180.000000        0.087683         4    ;  uncertainty k = 0.043351
        35         4         5        36     9        0.000000        0.838022         1    ;  uncertainty k = 0.236538
        35         4         5        36     9      180.000000       -0.367640         2    ;  uncertainty k = 0.288557
        35         4         5        36     9        0.000000        0.233807         3    ;  uncertainty k = 0.067383
        35         4         5        36     9      180.000000        0.087683         4    ;  uncertainty k = 0.043351
        35         4         5        37     9        0.000000        0.838022         1    ;  uncertainty k = 0.236538
        35         4         5        37     9      180.000000       -0.367640         2    ;  uncertainty k = 0.288557
        35         4         5        37     9        0.000000        0.233807         3    ;  uncertainty k = 0.067383
        35         4         5        37     9      180.000000        0.087683         4    ;  uncertainty k = 0.043351
        36         5         6        38     9        0.000000        0.481173         1    ;  uncertainty k = 0.312584
        36         5         6        38     9      180.000000        0.061534         2    ;  uncertainty k = 0.409513
        36         5         6        38     9        0.000000        0.104745         3    ;  uncertainty k = 0.103880
        36         5         6        38     9      180.000000        0.012330         4    ;  uncertainty k = 0.061765
        36         5         6        39     9        0.000000        0.481173         1    ;  uncertainty k = 0.312584
        36         5         6        39     9      180.000000        0.061534         2    ;  uncertainty k = 0.409513
        36         5         6        39     9        0.000000        0.104745         3    ;  uncertainty k = 0.103880
        36         5         6        39     9      180.000000        0.012330         4    ;  uncertainty k = 0.061765
        37         5         6        38     9        0.000000        0.481173         1    ;  uncertainty k = 0.312584
        37         5         6        38     9      180.000000        0.061534         2    ;  uncertainty k = 0.409513
        37         5         6        38     9        0.000000        0.104745         3    ;  uncertainty k = 0.103880
        37         5         6        38     9      180.000000        0.012330         4    ;  uncertainty k = 0.061765
        37         5         6        39     9        0.000000        0.481173         1    ;  uncertainty k = 0.312584
        37         5         6        39     9      180.000000        0.061534         2    ;  uncertainty k = 0.409513
        37         5         6        39     9        0.000000        0.104745         3    ;  uncertainty k = 0.103880
        37         5         6        39     9      180.000000        0.012330         4    ;  uncertainty k = 0.061765
        38         6         7        61     9        0.000000        0.433487         1    ;  uncertainty k = 0.620316
        38         6         7        61     9      180.000000       -0.272376         2    ;  uncertainty k = 0.218412
        38         6         7        61     9        0.000000        0.235056         3    ;  uncertainty k = 0.052850
        38         6         7        61     9      180.000000        0.032264         4    ;  uncertainty k = 0.126868
        38         6         7        62     9        0.000000        0.433487         1    ;  uncertainty k = 0.620316
        38         6         7        62     9      180.000000       -0.272376         2    ;  uncertainty k = 0.218412
        38         6         7        62     9        0.000000        0.235056         3    ;  uncertainty k = 0.052850
        38         6         7        62     9      180.000000        0.032264         4    ;  uncertainty k = 0.126868
        39         6         7        61     9        0.000000        0.433487         1    ;  uncertainty k = 0.620316
        39         6         7        61     9      180.000000       -0.272376         2    ;  uncertainty k = 0.218412
        39         6         7        61     9        0.000000        0.235056         3    ;  uncertainty k = 0.052850
        39         6         7        61     9      180.000000        0.032264         4    ;  uncertainty k = 0.126868
        39         6         7        62     9        0.000000        0.433487         1    ;  uncertainty k = 0.620316
        39         6         7        62     9      180.000000       -0.272376         2    ;  uncertainty k = 0.218412
        39         6         7        62     9        0.000000        0.235056         3    ;  uncertainty k = 0.052850
        39         6         7        62     9      180.000000        0.032264         4    ;  uncertainty k = 0.126868
        40         8         9        42     9        0.000000       -0.810828         1    ;  uncertainty k = 0.493157
        40         8         9        42     9      180.000000       -0.219607         2    ;  uncertainty k = 0.174757
        40         8         9        42     9        0.000000        0.619284         3    ;  uncertainty k = 0.161846
        40         8         9        42     9      180.000000       -0.000466         4    ;  uncertainty k = 0.042155
        41         8         9        42     9        0.000000       -0.810828         1    ;  uncertainty k = 0.493157
        41         8         9        42     9      180.000000       -0.219607         2    ;  uncertainty k = 0.174757
        41         8         9        42     9        0.000000        0.619284         3    ;  uncertainty k = 0.161846
        41         8         9        42     9      180.000000       -0.000466         4    ;  uncertainty k = 0.042155
        42         9         7        61     9        0.000000        0.033519         1    ;  uncertainty k = 1.146985
        42         9         7        61     9      180.000000        0.146953         2    ;  uncertainty k = 0.410994
        42         9         7        61     9        0.000000        0.475534         3    ;  uncertainty k = 0.176765
        42         9         7        61     9      180.000000       -0.040473         4    ;  uncertainty k = 0.139602
        42         9         7        62     9        0.000000        0.033519         1    ;  uncertainty k = 1.146985
        42         9         7        62     9      180.000000        0.146953         2    ;  uncertainty k = 0.410994
        42         9         7        62     9        0.000000        0.475534         3    ;  uncertainty k = 0.176765
        42         9         7        62     9      180.000000       -0.040473         4    ;  uncertainty k = 0.139602
        42         9         8        63     9        0.000000       -0.810828         1    ;  uncertainty k = 0.493157
        42         9         8        63     9      180.000000       -0.219607         2    ;  uncertainty k = 0.174757
        42         9         8        63     9        0.000000        0.619284         3    ;  uncertainty k = 0.161846
        42         9         8        63     9      180.000000       -0.000466         4    ;  uncertainty k = 0.042155
        42         9        10        43     9        0.000000       -1.230740         1    ;  uncertainty k = 0.668351
        42         9        10        43     9      180.000000        0.036891         2    ;  uncertainty k = 0.228554
        42         9        10        43     9        0.000000        0.181132         3    ;  uncertainty k = 0.060782
        42         9        10        43     9      180.000000       -0.066572         4    ;  uncertainty k = 0.118227
        42         9        10        44     9        0.000000       -1.230740         1    ;  uncertainty k = 0.668351
        42         9        10        44     9      180.000000        0.036891         2    ;  uncertainty k = 0.228554
        42         9        10        44     9        0.000000        0.181132         3    ;  uncertainty k = 0.060782
        42         9        10        44     9      180.000000       -0.066572         4    ;  uncertainty k = 0.118227
        43        10        11        45     9        0.000000        2.414469         1    ;  uncertainty k = 0.999259
        43        10        11        45     9      180.000000       -2.149850         2    ;  uncertainty k = 0.609583
        43        10        11        45     9        0.000000        0.087407         3    ;  uncertainty k = 0.133831
        43        10        11        45     9      180.000000        0.050045         4    ;  uncertainty k = 0.105090
        44        10        11        45     9        0.000000        2.414469         1    ;  uncertainty k = 0.999259
        44        10        11        45     9      180.000000       -2.149850         2    ;  uncertainty k = 0.609583
        44        10        11        45     9        0.000000        0.087407         3    ;  uncertainty k = 0.133831
        44        10        11        45     9      180.000000        0.050045         4    ;  uncertainty k = 0.105090
        47        15        16        48     9        0.000000       -0.161457         1    ;  uncertainty k = 0.314301
        47        15        16        48     9      180.000000        7.599374         2    ;  uncertainty k = 0.529227
        47        15        16        48     9        0.000000       -0.373990         3    ;  uncertainty k = 0.212621
        47        15        16        48     9      180.000000        0.361659         4    ;  uncertainty k = 0.257633

[ dihedrals ] ; impropers
;       ai        aj        ak        al funct           phase               k        pn
         2         1         3        23     4      180.000000        6.760364         2    ;  uncertainty k = 0.228144
         2         3        23         1     4      180.000000        6.760364         2    ;  uncertainty k = 0.228144
         2        23         1         3     4      180.000000        6.760364         2    ;  uncertainty k = 0.228144
         3         2         4        21     4      180.000000        3.356525         2    ;  uncertainty k = 0.379597
         3         4        21         2     4      180.000000        3.356525         2    ;  uncertainty k = 0.379597
         3        21         2         4     4      180.000000        3.356525         2    ;  uncertainty k = 0.379597
        12        11        13        17     4      180.000000       23.231116         2    ;  uncertainty k = 0.111762
        12        13        17        11     4      180.000000       23.231116         2    ;  uncertainty k = 0.111762
        12        17        11        13     4      180.000000       23.231116         2    ;  uncertainty k = 0.111762
        13        12        14        46     4      180.000000        1.810972         2    ;  uncertainty k = 0.579074
        13        14        46        12     4      180.000000        1.810972         2    ;  uncertainty k = 0.579074
        13        46        12        14     4      180.000000        1.810972         2    ;  uncertainty k = 0.579074
        14        13        15        21     4      180.000000       17.365713         2    ;  uncertainty k = 0.027232
        14        15        21        13     4      180.000000       17.365713         2    ;  uncertainty k = 0.027232
        14        21        13        15     4      180.000000       17.365713         2    ;  uncertainty k = 0.027232
        15        14        16        47     4      180.000000        1.764889         2    ;  uncertainty k = 0.320932
        15        16        47        14     4      180.000000        1.764889         2    ;  uncertainty k = 0.320932
        15        47        14        16     4      180.000000        1.764889         2    ;  uncertainty k = 0.320932
        16        15        17        48     4      180.000000        4.670372         2    ;  uncertainty k = 0.321152
        16        17        48        15     4      180.000000        4.670372         2    ;  uncertainty k = 0.321152
        16        48        15        17     4      180.000000        4.670372         2    ;  uncertainty k = 0.321152
        17        12        16        18     4      180.000000        6.287695         2    ;  uncertainty k = 0.328123
        17        16        18        12     4      180.000000        6.287695         2    ;  uncertainty k = 0.328123
        17        18        12        16     4      180.000000        6.287695         2    ;  uncertainty k = 0.328123
        18        17        19        20     4      180.000000       54.303312         2    ;  uncertainty k = 0.052982
        18        19        20        17     4      180.000000       54.303312         2    ;  uncertainty k = 0.052982
        18        20        17        19     4      180.000000       54.303312         2    ;  uncertainty k = 0.052982
        21         3        14        22     4      180.000000        1.653401         2    ;  uncertainty k = 1.042382
        21        14        22         3     4      180.000000        1.653401         2    ;  uncertainty k = 1.042382
        21        22         3        14     4      180.000000        1.653401         2    ;  uncertainty k = 1.042382
        22        21        23        30     4      180.000000        6.726894         2    ;  uncertainty k = 0.212828
        22        23        30        21     4      180.000000        6.726894         2    ;  uncertainty k = 0.212828
        22        30        21        23     4      180.000000        6.726894         2    ;  uncertainty k = 0.212828
        24        23        25        26     4      180.000000       55.461398         2    ;  uncertainty k = 0.044608
        24        25        26        23     4      180.000000       55.461398         2    ;  uncertainty k = 0.044608
        24        26        23        25     4      180.000000       55.461398         2    ;  uncertainty k = 0.044608

[ pairs ]
;       ai        aj funct
         1         4     1
         1        21     1
         1        22     1
         1        24     1
         2         5     1
         2        14     1
         2        25     1
         2        26     1
         2        30     1
         2        34     1
         2        35     1
         3         6     1
         3        13     1
         3        15     1
         3        24     1
         3        30     1
         3        31     1
         3        32     1
         3        33     1
         3        36     1
         3        37     1
         4         7     1
         4        14     1
         4        22     1
         4        23     1
         4        38     1
         4        39     1
         5         9     1
         5        21     1
         5        61     1
         5        62     1
         6         8     1
         6        10     1
         6        34     1
         6        35     1
         6        42     1
         7        11     1
         7        36     1
         7        37     1
         7        40     1
         7        41     1
         7        43     1
         7        44     1
         7        63     1
         7        64     1
         7        65     1
         7        66     1
         8        11     1
         8        43     1
         8        44     1
         8        61     1
         8        62     1
         8        64     1
         8        65     1
         8        66     1
         9        12     1
         9        38     1
         9        39     1
         9        45     1
        10        13     1
        10        17     1
        10        40     1
        10        41     1
        10        61     1
        10        62     1
        10        63     1
        10        64     1
        10        65     1
        10        66     1
        11        14     1
        11        16     1
        11        18     1
        11        42     1
        11        46     1
        12        15     1
        12        19     1
        12        20     1
        12        21     1
        12        43     1
        12        44     1
        12        48     1
        13        16     1
        13        18     1
        13        22     1
        13        45     1
        13        47     1
        14        17     1
        14        23     1
        14        30     1
        14        48     1
        15        18     1
        15        22     1
        15        46     1
        16        19     1
        16        20     1
        16        21     1
        17        45     1
        17        46     1
        17        47     1
        17        49     1
        17        50     1
        18        48     1
        20        49     1
        20        50     1
        21        24     1
        21        27     1
        21        34     1
        21        35     1
        21        46     1
        21        47     1
        21        59     1
        21        60     1
        22        25     1
        22        26     1
        22        28     1
        22        29     1
        23        27     1
        23        31     1
        23        32     1
        23        33     1
        23        51     1
        23        52     1
        23        59     1
        23        60     1
        24        28     1
        24        29     1
        24        30     1
        25        27     1
        25        51     1
        25        52     1
        26        53     1
        26        54     1
        26        55     1
        26        56     1
        26        57     1
        26        58     1
        26        59     1
        26        60     1
        28        51     1
        28        52     1
        28        56     1
        28        57     1
        28        58     1
        28        59     1
        28        60     1
        29        51     1
        29        52     1
        29        53     1
        29        54     1
        29        55     1
        29        59     1
        29        60     1
        30        51     1
        30        52     1
        30        53     1
        30        54     1
        30        55     1
        30        56     1
        30        57     1
        30        58     1
        34        36     1
        34        37     1
        35        36     1
        35        37     1
        36        38     1
        36        39     1
        37        38     1
        37        39     1
        38        61     1
        38        62     1
        39        61     1
        39        62     1
        40        42     1
        41        42     1
        42        43     1
        42        44     1
        42        61     1
        42        62     1
        42        63     1
        43        45     1
        44        45     1
        47        48     1
