; ITP file created by ByteFF-ML, 2026-02-21 07:40:49.239711

[ atomtypes ]
;name           bonded.type        at.num        mass        charge   ptype           sigma         epsilon
 c0bf                                   6      0.0000       0.00000       A     3.31305e-01     4.14927e-01
 c1bf                                   6      0.0000       0.00000       A     3.31337e-01     4.13877e-01
 c2bf                                   6      0.0000       0.00000       A     3.31419e-01     4.12482e-01
 c3bf                                   6      0.0000       0.00000       A     3.31332e-01     4.14182e-01
 c4bf                                   6      0.0000       0.00000       A     3.31388e-01     4.13542e-01
 c5bf                                   6      0.0000       0.00000       A     3.31407e-01     4.11821e-01
 o6bf                                   8      0.0000       0.00000       A     3.15984e-01     3.07301e-01
 c7bf                                   6      0.0000       0.00000       A     3.31486e-01     4.12295e-01
 c8bf                                   6      0.0000       0.00000       A     3.31476e-01     4.13674e-01
 c9bf                                   6      0.0000       0.00000       A     3.31507e-01     4.13830e-01
 c10bf                                  6      0.0000       0.00000       A     3.31531e-01     4.12809e-01
 c11bf                                  6      0.0000       0.00000       A     3.31451e-01     4.12357e-01
 cl12bf                                17      0.0000       0.00000       A     3.46680e-01     1.10314e+00
 c13bf                                  6      0.0000       0.00000       A     3.31433e-01     4.12921e-01
 s14bf                                 16      0.0000       0.00000       A     4.05882e-01     2.56353e-01
 o15bf                                  8      0.0000       0.00000       A     3.05153e-01     6.15487e-01
 o16bf                                  8      0.0000       0.00000       A     3.05153e-01     6.15489e-01
 c17bf                                  6      0.0000       0.00000       A     3.39647e-01     4.51745e-01
 f18bf                                  9      0.0000       0.00000       A     3.02926e-01     3.47649e-01
 f19bf                                  9      0.0000       0.00000       A     3.02926e-01     3.47649e-01
 c20bf                                  6      0.0000       0.00000       A     3.39765e-01     4.53632e-01
 f21bf                                  9      0.0000       0.00000       A     3.03490e-01     3.47565e-01
 f22bf                                  9      0.0000       0.00000       A     3.02926e-01     3.47649e-01
 f23bf                                  9      0.0000       0.00000       A     3.03643e-01     3.45956e-01
 f24bf                                  9      0.0000       0.00000       A     3.03643e-01     3.45956e-01
 h25bf                                  1      0.0000       0.00000       A     2.62790e-01     6.82447e-02
 h26bf                                  1      0.0000       0.00000       A     2.62699e-01     6.79910e-02
 h27bf                                  1      0.0000       0.00000       A     2.62421e-01     6.70190e-02
 h28bf                                  1      0.0000       0.00000       A     2.62432e-01     6.69886e-02
 h29bf                                  1      0.0000       0.00000       A     2.62494e-01     6.73860e-02
 h30bf                                  1      0.0000       0.00000       A     2.62455e-01     6.71195e-02
 h31bf                                  1      0.0000       0.00000       A     2.23414e-01     8.67033e-02

[ moleculetype ]
;name             nrexcl
 124                   3

[ atoms ]
;       nr            type      resi   res      atom      cgnr      charge          mass ; qtot
         1            c0bf         1   UNL        c0         1    -0.19902       12.0110 ; qtot   -0.199
         2            c1bf         1   UNL        c1         2     0.08080       12.0110 ; qtot   -0.118
         3            c2bf         1   UNL        c2         3    -0.28240       12.0110 ; qtot   -0.401
         4            c3bf         1   UNL        c3         4     0.03017       12.0110 ; qtot   -0.370
         5            c4bf         1   UNL        c4         5    -0.16239       12.0110 ; qtot   -0.533
         6            c5bf         1   UNL        c5         6     0.17612       12.0110 ; qtot   -0.357
         7            o6bf         1   UNL        o6         7    -0.24230       15.9990 ; qtot   -0.599
         8            c7bf         1   UNL        c7         8     0.16477       12.0110 ; qtot   -0.434
         9            c8bf         1   UNL        c8         9    -0.18847       12.0110 ; qtot   -0.623
        10            c9bf         1   UNL        c9        10     0.19848       12.0110 ; qtot   -0.424
        11           c10bf         1   UNL       c10        11    -0.15953       12.0110 ; qtot   -0.584
        12           c11bf         1   UNL       c11        12     0.16854       12.0110 ; qtot   -0.415
        13          cl12bf         1   UNL      cl12        13    -0.19362       35.4530 ; qtot   -0.609
        14           c13bf         1   UNL       c13        14    -0.15187       12.0110 ; qtot   -0.761
        15           s14bf         1   UNL       s14        15     0.96326       32.0670 ; qtot    0.203
        16           o15bf         1   UNL       o15        16    -0.45812       15.9990 ; qtot   -0.256
        17           o16bf         1   UNL       o16        17    -0.45812       15.9990 ; qtot   -0.714
        18           c17bf         1   UNL       c17        18     0.15901       12.0110 ; qtot   -0.555
        19           f18bf         1   UNL       f18        19    -0.08286       18.9980 ; qtot   -0.638
        20           f19bf         1   UNL       f19        20    -0.08286       18.9980 ; qtot   -0.720
        21           c20bf         1   UNL       c20        21     0.22298       12.0110 ; qtot   -0.497
        22           f21bf         1   UNL       f21        22    -0.16767       18.9980 ; qtot   -0.665
        23           f22bf         1   UNL       f22        23    -0.08286       18.9980 ; qtot   -0.748
        24           f23bf         1   UNL       f23        24    -0.11672       18.9980 ; qtot   -0.865
        25           f24bf         1   UNL       f24        25    -0.11672       18.9980 ; qtot   -0.981
        26           h25bf         1   UNL       h25        26     0.15709        1.0080 ; qtot   -0.824
        27           h26bf         1   UNL       h26        27     0.14641        1.0080 ; qtot   -0.678
        28           h27bf         1   UNL       h27        28     0.14445        1.0080 ; qtot   -0.533
        29           h28bf         1   UNL       h28        29     0.15220        1.0080 ; qtot   -0.381
        30           h29bf         1   UNL       h29        30     0.15184        1.0080 ; qtot   -0.229
        31           h30bf         1   UNL       h30        31     0.14886        1.0080 ; qtot   -0.081
        32           h31bf         1   UNL       h31        32     0.08055        1.0080 ; qtot   -0.000

[ bonds ]
;       ai        aj funct               r               k
         1         2     1        0.139244   316102.374707
         1         6     1        0.140730   269292.189258
         1        21     1        0.150673   195430.939673
         2         3     1        0.139654   304931.523730
         2        26     1        0.108447   325745.289355
         3         4     1        0.139707   302749.990625
         3        15     1        0.178070   137508.383228
         4         5     1        0.139311   325246.472998
         4        27     1        0.108439   326475.625146
         5         6     1        0.139948   293212.314404
         5        28     1        0.108398   326147.830811
         6         7     1        0.137941   243432.827100
         7         8     1        0.137880   243719.787598
         8         9     1        0.139948   294696.199219
         8        14     1        0.139987   291708.204199
         9        10     1        0.139024   313529.459863
         9        29     1        0.108349   328619.567627
        10        11     1        0.139159   303726.478613
        10        22     1        0.135316   295881.989355
        11        12     1        0.139621   301625.770459
        11        30     1        0.108325   330266.123828
        12        13     1        0.175353   151234.707202
        12        14     1        0.139502   308685.759717
        14        31     1        0.108316   328834.462402
        15        16     1        0.146438   532402.661523
        15        17     1        0.146438   532402.559375
        15        18     1        0.190010   135628.954126
        18        19     1        0.133880   268977.367773
        18        20     1        0.133880   268977.367773
        18        23     1        0.133880   268977.367773
        21        24     1        0.137868   220920.154199
        21        25     1        0.137868   220920.154199
        21        32     1        0.109072   313826.226611

[ angles ]
;       ai        aj        ak funct           theta             cth
         1         2         3     1      119.367592      603.864981
         1         2        26     1      119.952560      371.785518
         1         6         5     1      120.522690      637.547406
         1         6         7     1      118.526855      455.393982
         1        21        24     1      110.611000      647.195709
         1        21        25     1      110.611000      647.195709
         1        21        32     1      113.053307      402.826290
         2         1         6     1      119.237900      706.289091
         2         1        21     1      120.567184      503.416868
         2         3         4     1      121.637413      661.852095
         2         3        15     1      118.940575      488.556249
         3         2        26     1      120.375320      366.811783
         3         4         5     1      119.042831      629.073619
         3         4        27     1      120.311462      366.416788
         3        15        16     1      109.470360      658.093862
         3        15        17     1      109.470360      658.093862
         3        15        18     1      101.967636      448.393239
         4         3        15     1      119.168053      510.114932
         4         5         6     1      119.900169      718.070956
         4         5        28     1      120.702957      417.298584
         5         4        27     1      120.845459      401.173368
         5         6         7     1      120.871155      514.263085
         6         1        21     1      120.445534      662.150943
         6         5        28     1      119.436279      426.253491
         6         7         8     1      118.801941      430.399026
         7         8         9     1      119.287941      527.555884
         7         8        14     1      119.228371      529.534180
         8         9        10     1      117.777809      765.739993
         8         9        29     1      121.470276      421.841062
         8        14        12     1      118.490112      727.455141
         8        14        31     1      120.517227      423.613816
         9         8        14     1      121.195297      595.571996
         9        10        11     1      123.345749      597.630159
         9        10        22     1      118.339966      543.602446
        10         9        29     1      120.739975      420.515494
        10        11        12     1      117.020103      665.933627
        10        11        30     1      120.856552      424.003895
        11        10        22     1      118.342018      543.320580
        11        12        13     1      118.932083      369.413536
        11        12        14     1      122.162613      626.672045
        12        11        30     1      122.166687      405.876857
        12        14        31     1      121.146500      394.349182
        13        12        14     1      118.917458      376.731354
        15        18        19     1      109.499008      456.357146
        15        18        20     1      109.499008      456.357146
        15        18        23     1      109.499008      456.357146
        16        15        17     1      122.626404      696.669837
        16        15        18     1      104.873581      342.534802
        17        15        18     1      104.873581      342.534707
        19        18        20     1      109.103615      705.751918
        19        18        23     1      109.103615      705.751918
        20        18        23     1      109.103615      705.751918
        24        21        25     1      106.583694      718.443287
        24        21        32     1      107.552940      447.773390
        25        21        32     1      107.552940      447.773390

[ dihedrals ] ; propers for gromacs 4.5 or higher, use funct 9
;       ai        aj        ak        al funct           phase               k        pn
         1         2         3         4     9        0.000000       -0.213570         1
         1         2         3         4     9      180.000000       18.321849         2
         1         2         3         4     9        0.000000       -1.819225         3
         1         2         3         4     9      180.000000       -0.487318         4
         1         2         3        15     9        0.000000       -0.617328         1
         1         2         3        15     9      180.000000       11.790014         2
         1         2         3        15     9        0.000000       -0.066317         3
         1         2         3        15     9      180.000000       -0.382905         4
         1         6         5         4     9        0.000000       -0.126038         1
         1         6         5         4     9      180.000000       17.322875         2
         1         6         5         4     9        0.000000       -1.138847         3
         1         6         5         4     9      180.000000       -0.405016         4
         1         6         5        28     9        0.000000        0.241956         1
         1         6         5        28     9      180.000000       13.306436         2
         1         6         5        28     9        0.000000       -0.358720         3
         1         6         5        28     9      180.000000       -0.018738         4
         1         6         7         8     9        0.000000        0.742696         1
         1         6         7         8     9      180.000000        4.669837         2
         1         6         7         8     9        0.000000       -0.317412         3
         1         6         7         8     9      180.000000        0.135152         4
         2         1         6         5     9        0.000000       -0.097047         1
         2         1         6         5     9      180.000000       15.372850         2
         2         1         6         5     9        0.000000       -0.925027         3
         2         1         6         5     9      180.000000       -0.235829         4
         2         1         6         7     9        0.000000        0.609655         1
         2         1         6         7     9      180.000000       17.575094         2
         2         1         6         7     9        0.000000        0.427651         3
         2         1         6         7     9      180.000000       -0.241406         4
         2         1        21        24     9        0.000000        0.173844         1
         2         1        21        24     9      180.000000        0.337879         2
         2         1        21        24     9        0.000000       -0.462358         3
         2         1        21        24     9      180.000000        0.151255         4
         2         1        21        25     9        0.000000        0.173844         1
         2         1        21        25     9      180.000000        0.337878         2
         2         1        21        25     9        0.000000       -0.462358         3
         2         1        21        25     9      180.000000        0.151255         4
         2         1        21        32     9        0.000000        0.057070         1
         2         1        21        32     9      180.000000       -0.438444         2
         2         1        21        32     9        0.000000       -0.323643         3
         2         1        21        32     9      180.000000       -0.093191         4
         2         3         4         5     9        0.000000       -0.129905         1
         2         3         4         5     9      180.000000       17.993671         2
         2         3         4         5     9        0.000000       -1.733333         3
         2         3         4         5     9      180.000000       -0.393517         4
         2         3         4        27     9        0.000000        0.008973         1
         2         3         4        27     9      180.000000       14.062967         2
         2         3         4        27     9        0.000000       -0.659719         3
         2         3         4        27     9      180.000000       -0.020307         4
         2         3        15        16     9        0.000000       -0.148748         1
         2         3        15        16     9      180.000000        1.084927         2
         2         3        15        16     9        0.000000        0.227723         3
         2         3        15        16     9      180.000000       -0.012633         4
         2         3        15        17     9        0.000000       -0.148749         1
         2         3        15        17     9      180.000000        1.084926         2
         2         3        15        17     9        0.000000        0.227723         3
         2         3        15        17     9      180.000000       -0.012633         4
         2         3        15        18     9        0.000000        0.770220         1
         2         3        15        18     9      180.000000       -2.581349         2
         2         3        15        18     9        0.000000        0.126823         3
         2         3        15        18     9      180.000000        0.072571         4
         3         2         1         6     9        0.000000       -0.335640         1
         3         2         1         6     9      180.000000       19.977330         2
         3         2         1         6     9        0.000000       -1.727992         3
         3         2         1         6     9      180.000000       -0.561525         4
         3         2         1        21     9        0.000000        0.082320         1
         3         2         1        21     9      180.000000       17.372502         2
         3         2         1        21     9        0.000000       -0.305511         3
         3         2         1        21     9      180.000000       -0.492003         4
         3         4         5         6     9        0.000000       -0.228618         1
         3         4         5         6     9      180.000000       19.369012         2
         3         4         5         6     9        0.000000       -1.620028         3
         3         4         5         6     9      180.000000       -0.534748         4
         3         4         5        28     9        0.000000       -0.052752         1
         3         4         5        28     9      180.000000       14.640696         2
         3         4         5        28     9        0.000000       -0.563428         3
         3         4         5        28     9      180.000000        0.103477         4
         3        15        18        19     9        0.000000       -0.415175         1
         3        15        18        19     9      180.000000       -0.080742         2
         3        15        18        19     9        0.000000        0.289755         3
         3        15        18        19     9      180.000000       -0.023345         4
         3        15        18        20     9        0.000000       -0.415175         1
         3        15        18        20     9      180.000000       -0.080742         2
         3        15        18        20     9        0.000000        0.289755         3
         3        15        18        20     9      180.000000       -0.023345         4
         3        15        18        23     9        0.000000       -0.415175         1
         3        15        18        23     9      180.000000       -0.080742         2
         3        15        18        23     9        0.000000        0.289755         3
         3        15        18        23     9      180.000000       -0.023345         4
         4         3         2        26     9        0.000000       -0.014252         1
         4         3         2        26     9      180.000000       13.832891         2
         4         3         2        26     9        0.000000       -0.722461         3
         4         3         2        26     9      180.000000        0.030667         4
         4         3        15        16     9        0.000000       -0.142177         1
         4         3        15        16     9      180.000000        1.136142         2
         4         3        15        16     9        0.000000        0.251584         3
         4         3        15        16     9      180.000000        0.011522         4
         4         3        15        17     9        0.000000       -0.142177         1
         4         3        15        17     9      180.000000        1.136141         2
         4         3        15        17     9        0.000000        0.251584         3
         4         3        15        17     9      180.000000        0.011522         4
         4         3        15        18     9        0.000000        0.627697         1
         4         3        15        18     9      180.000000       -2.625958         2
         4         3        15        18     9        0.000000        0.154185         3
         4         3        15        18     9      180.000000        0.054457         4
         4         5         6         7     9        0.000000        0.613141         1
         4         5         6         7     9      180.000000       19.013042         2
         4         5         6         7     9        0.000000        0.537994         3
         4         5         6         7     9      180.000000       -0.400512         4
         5         4         3        15     9        0.000000       -0.403166         1
         5         4         3        15     9      180.000000       12.955772         2
         5         4         3        15     9        0.000000       -0.137140         3
         5         4         3        15     9      180.000000       -0.282922         4
         5         6         1        21     9        0.000000        0.046965         1
         5         6         1        21     9      180.000000       12.932250         2
         5         6         1        21     9        0.000000       -0.157288         3
         5         6         1        21     9      180.000000       -0.137937         4
         5         6         7         8     9        0.000000       -0.071591         1
         5         6         7         8     9      180.000000        4.855313         2
         5         6         7         8     9        0.000000       -0.373089         3
         5         6         7         8     9      180.000000        0.273763         4
         6         1         2        26     9        0.000000        0.153660         1
         6         1         2        26     9      180.000000       14.723889         2
         6         1         2        26     9        0.000000       -0.420626         3
         6         1         2        26     9      180.000000        0.041840         4
         6         1        21        24     9        0.000000       -0.383781         1
         6         1        21        24     9      180.000000        0.127020         2
         6         1        21        24     9        0.000000        0.221395         3
         6         1        21        24     9      180.000000        0.059060         4
         6         1        21        25     9        0.000000       -0.383782         1
         6         1        21        25     9      180.000000        0.127019         2
         6         1        21        25     9        0.000000        0.221395         3
         6         1        21        25     9      180.000000        0.059059         4
         6         1        21        32     9        0.000000        0.369411         1
         6         1        21        32     9      180.000000       -0.253484         2
         6         1        21        32     9        0.000000        0.239538         3
         6         1        21        32     9      180.000000       -0.207177         4
         6         5         4        27     9        0.000000        0.119032         1
         6         5         4        27     9      180.000000       14.976184         2
         6         5         4        27     9        0.000000       -0.381440         3
         6         5         4        27     9      180.000000       -0.001578         4
         6         7         8         9     9        0.000000        0.230695         1
         6         7         8         9     9      180.000000        4.595955         2
         6         7         8         9     9        0.000000       -0.065075         3
         6         7         8         9     9      180.000000        0.289105         4
         6         7         8        14     9        0.000000        0.173158         1
         6         7         8        14     9      180.000000        4.513966         2
         6         7         8        14     9        0.000000       -0.053258         3
         6         7         8        14     9      180.000000        0.295404         4
         7         6         1        21     9        0.000000        0.281451         1
         7         6         1        21     9      180.000000       15.827466         2
         7         6         1        21     9        0.000000        0.187408         3
         7         6         1        21     9      180.000000       -0.311735         4
         7         6         5        28     9        0.000000        0.143558         1
         7         6         5        28     9      180.000000       14.485686         2
         7         6         5        28     9        0.000000        0.083277         3
         7         6         5        28     9      180.000000        0.318661         4
         7         8         9        10     9        0.000000        0.544208         1
         7         8         9        10     9      180.000000       18.028150         2
         7         8         9        10     9        0.000000        0.610817         3
         7         8         9        10     9      180.000000       -0.389521         4
         7         8         9        29     9        0.000000        0.276171         1
         7         8         9        29     9      180.000000       13.459057         2
         7         8         9        29     9        0.000000        0.008509         3
         7         8         9        29     9      180.000000        0.382602         4
         7         8        14        12     9        0.000000        0.555182         1
         7         8        14        12     9      180.000000       17.894577         2
         7         8        14        12     9        0.000000        0.508477         3
         7         8        14        12     9      180.000000       -0.366774         4
         7         8        14        31     9        0.000000        0.224504         1
         7         8        14        31     9      180.000000       13.523990         2
         7         8        14        31     9        0.000000       -0.010474         3
         7         8        14        31     9      180.000000        0.394107         4
         8         9        10        11     9        0.000000        0.014281         1
         8         9        10        11     9      180.000000       17.149370         2
         8         9        10        11     9        0.000000       -1.274669         3
         8         9        10        11     9      180.000000       -0.408188         4
         8         9        10        22     9        0.000000        0.463607         1
         8         9        10        22     9      180.000000       22.892093         2
         8         9        10        22     9        0.000000        0.591092         3
         8         9        10        22     9      180.000000       -0.866328         4
         8        14        12        11     9        0.000000        0.002273         1
         8        14        12        11     9      180.000000       17.621741         2
         8        14        12        11     9        0.000000       -1.412308         3
         8        14        12        11     9      180.000000       -0.413129         4
         8        14        12        13     9        0.000000        0.440621         1
         8        14        12        13     9      180.000000       19.128239         2
         8        14        12        13     9        0.000000        0.403035         3
         8        14        12        13     9      180.000000       -0.607777         4
         9         8        14        12     9        0.000000       -0.185549         1
         9         8        14        12     9      180.000000       16.619848         2
         9         8        14        12     9        0.000000       -1.129332         3
         9         8        14        12     9      180.000000       -0.280780         4
         9         8        14        31     9        0.000000        0.140225         1
         9         8        14        31     9      180.000000       12.765880         2
         9         8        14        31     9        0.000000       -0.554342         3
         9         8        14        31     9      180.000000        0.219529         4
         9        10        11        12     9        0.000000       -0.153902         1
         9        10        11        12     9      180.000000       17.278478         2
         9        10        11        12     9        0.000000       -1.225087         3
         9        10        11        12     9      180.000000       -0.427313         4
         9        10        11        30     9        0.000000        0.077115         1
         9        10        11        30     9      180.000000       12.786848         2
         9        10        11        30     9        0.000000       -0.562901         3
         9        10        11        30     9      180.000000        0.171887         4
        10         9         8        14     9        0.000000       -0.130445         1
        10         9         8        14     9      180.000000       16.435454         2
        10         9         8        14     9        0.000000       -1.064780         3
        10         9         8        14     9      180.000000       -0.210854         4
        10        11        12        13     9        0.000000        0.426515         1
        10        11        12        13     9      180.000000       19.269612         2
        10        11        12        13     9        0.000000        0.466542         3
        10        11        12        13     9      180.000000       -0.633614         4
        10        11        12        14     9        0.000000       -0.163258         1
        10        11        12        14     9      180.000000       17.887113         2
        10        11        12        14     9        0.000000       -1.359108         3
        10        11        12        14     9      180.000000       -0.413216         4
        11        10         9        29     9        0.000000        0.194749         1
        11        10         9        29     9      180.000000       12.601219         2
        11        10         9        29     9        0.000000       -0.549894         3
        11        10         9        29     9      180.000000        0.167689         4
        11        12        14        31     9        0.000000        0.121078         1
        11        12        14        31     9      180.000000       13.480084         2
        11        12        14        31     9        0.000000       -0.631175         3
        11        12        14        31     9      180.000000        0.125127         4
        12        11        10        22     9        0.000000        0.492414         1
        12        11        10        22     9      180.000000       22.854105         2
        12        11        10        22     9        0.000000        0.593021         3
        12        11        10        22     9      180.000000       -0.774881         4
        13        12        11        30     9        0.000000        0.266809         1
        13        12        11        30     9      180.000000       13.085368         2
        13        12        11        30     9        0.000000       -0.134809         3
        13        12        11        30     9      180.000000        0.240906         4
        13        12        14        31     9        0.000000        0.204424         1
        13        12        14        31     9      180.000000       13.505933         2
        13        12        14        31     9        0.000000       -0.134096         3
        13        12        14        31     9      180.000000        0.248105         4
        14         8         9        29     9        0.000000        0.175609         1
        14         8         9        29     9      180.000000       12.473678         2
        14         8         9        29     9        0.000000       -0.522616         3
        14         8         9        29     9      180.000000        0.209404         4
        14        12        11        30     9        0.000000        0.071950         1
        14        12        11        30     9      180.000000       13.333475         2
        14        12        11        30     9        0.000000       -0.588284         3
        14        12        11        30     9      180.000000        0.130929         4
        15         3         2        26     9        0.000000        0.146825         1
        15         3         2        26     9      180.000000       10.859965         2
        15         3         2        26     9        0.000000       -0.297869         3
        15         3         2        26     9      180.000000       -0.008618         4
        15         3         4        27     9        0.000000        0.004859         1
        15         3         4        27     9      180.000000       11.110210         2
        15         3         4        27     9        0.000000       -0.246763         3
        15         3         4        27     9      180.000000       -0.047382         4
        16        15        18        19     9        0.000000        0.188235         1
        16        15        18        19     9      180.000000        0.057911         2
        16        15        18        19     9        0.000000        0.292166         3
        16        15        18        19     9      180.000000        0.118724         4
        16        15        18        20     9        0.000000        0.188235         1
        16        15        18        20     9      180.000000        0.057911         2
        16        15        18        20     9        0.000000        0.292166         3
        16        15        18        20     9      180.000000        0.118724         4
        16        15        18        23     9        0.000000        0.188235         1
        16        15        18        23     9      180.000000        0.057911         2
        16        15        18        23     9        0.000000        0.292166         3
        16        15        18        23     9      180.000000        0.118724         4
        17        15        18        19     9        0.000000        0.188235         1
        17        15        18        19     9      180.000000        0.057912         2
        17        15        18        19     9        0.000000        0.292166         3
        17        15        18        19     9      180.000000        0.118725         4
        17        15        18        20     9        0.000000        0.188235         1
        17        15        18        20     9      180.000000        0.057912         2
        17        15        18        20     9        0.000000        0.292166         3
        17        15        18        20     9      180.000000        0.118725         4
        17        15        18        23     9        0.000000        0.188235         1
        17        15        18        23     9      180.000000        0.057912         2
        17        15        18        23     9        0.000000        0.292166         3
        17        15        18        23     9      180.000000        0.118725         4
        21         1         2        26     9        0.000000        0.113545         1
        21         1         2        26     9      180.000000       13.154653         2
        21         1         2        26     9        0.000000       -0.689761         3
        21         1         2        26     9      180.000000        0.169582         4
        22        10         9        29     9        0.000000        0.316498         1
        22        10         9        29     9      180.000000       15.738546         2
        22        10         9        29     9        0.000000        0.250726         3
        22        10         9        29     9      180.000000        0.149137         4
        22        10        11        30     9        0.000000        0.277357         1
        22        10        11        30     9      180.000000       15.295311         2
        22        10        11        30     9        0.000000        0.235276         3
        22        10        11        30     9      180.000000        0.207846         4
        27         4         5        28     9        0.000000       -0.009460         1
        27         4         5        28     9      180.000000       12.824694         2
        27         4         5        28     9        0.000000       -0.761265         3
        27         4         5        28     9      180.000000        0.257472         4

[ dihedrals ] ; impropers
;       ai        aj        ak        al funct           phase               k        pn
        10         9        11        22     4      180.000000        2.018215         2
        10        11        22         9     4      180.000000        2.018215         2
        10        22         9        11     4      180.000000        2.018215         2

[ pairs ]
;       ai        aj funct
         1         4     1
         1         8     1
         1        15     1
         1        28     1
         2         5     1
         2         7     1
         2        16     1
         2        17     1
         2        18     1
         2        24     1
         2        25     1
         2        27     1
         2        32     1
         3         6     1
         3        19     1
         3        20     1
         3        21     1
         3        23     1
         3        28     1
         4         7     1
         4        16     1
         4        17     1
         4        18     1
         4        26     1
         5         8     1
         5        15     1
         5        21     1
         6         9     1
         6        14     1
         6        24     1
         6        25     1
         6        26     1
         6        27     1
         6        32     1
         7        10     1
         7        12     1
         7        21     1
         7        28     1
         7        29     1
         7        31     1
         8        11     1
         8        13     1
         8        22     1
         9        12     1
         9        30     1
         9        31     1
        10        13     1
        10        14     1
        11        29     1
        11        31     1
        12        22     1
        13        30     1
        13        31     1
        14        29     1
        14        30     1
        15        26     1
        15        27     1
        16        19     1
        16        20     1
        16        23     1
        17        19     1
        17        20     1
        17        23     1
        21        26     1
        22        29     1
        22        30     1
        27        28     1
