; ITP file created by ByteFF-ML, 2026-02-21 07:40:42.047541

[ atomtypes ]
;name           bonded.type        at.num        mass        charge   ptype           sigma         epsilon
 o0bf                                   8      0.0000       0.00000       A     3.24299e-01     3.89007e-01
 c1bf                                   6      0.0000       0.00000       A     3.39952e-01     4.50728e-01
 c2bf                                   6      0.0000       0.00000       A     3.39828e-01     4.49951e-01
 c3bf                                   6      0.0000       0.00000       A     3.39831e-01     4.49491e-01
 c4bf                                   6      0.0000       0.00000       A     3.31689e-01     4.11977e-01
 c5bf                                   6      0.0000       0.00000       A     3.31623e-01     4.13332e-01
 c6bf                                   6      0.0000       0.00000       A     3.31275e-01     4.12587e-01
 c7bf                                   6      0.0000       0.00000       A     3.31349e-01     4.13862e-01
 c8bf                                   6      0.0000       0.00000       A     3.31334e-01     4.13082e-01
 c9bf                                   6      0.0000       0.00000       A     3.31549e-01     4.12550e-01
 o10bf                                  8      0.0000       0.00000       A     3.15806e-01     3.06343e-01
 c11bf                                  6      0.0000       0.00000       A     3.31468e-01     4.12822e-01
 c12bf                                  6      0.0000       0.00000       A     3.31573e-01     4.13007e-01
 c13bf                                  6      0.0000       0.00000       A     3.31518e-01     4.12854e-01
 c14bf                                  6      0.0000       0.00000       A     3.31500e-01     4.13221e-01
 c15bf                                  6      0.0000       0.00000       A     3.31527e-01     4.14348e-01
 c16bf                                  6      0.0000       0.00000       A     3.48169e-01     6.71363e-01
 c17bf                                  6      0.0000       0.00000       A     3.31499e-01     4.14357e-01
 s18bf                                 16      0.0000       0.00000       A     4.06265e-01     2.57805e-01
 o19bf                                  8      0.0000       0.00000       A     3.05144e-01     6.13663e-01
 o20bf                                  8      0.0000       0.00000       A     3.05144e-01     6.13663e-01
 c21bf                                  6      0.0000       0.00000       A     3.40010e-01     4.52743e-01
 f22bf                                  9      0.0000       0.00000       A     3.03156e-01     3.45383e-01
 f23bf                                  9      0.0000       0.00000       A     3.03156e-01     3.45383e-01
 n24bf                                  7      0.0000       0.00000       A     3.27424e-01     4.58548e-01
 h25bf                                  1      0.0000       0.00000       A     5.38150e-02     1.94657e-02
 h26bf                                  1      0.0000       0.00000       A     2.41767e-01     8.71613e-02
 h27bf                                  1      0.0000       0.00000       A     2.60050e-01     8.74103e-02
 h28bf                                  1      0.0000       0.00000       A     2.60050e-01     8.74103e-02
 h29bf                                  1      0.0000       0.00000       A     2.60136e-01     8.66219e-02
 h30bf                                  1      0.0000       0.00000       A     2.60136e-01     8.66219e-02
 h31bf                                  1      0.0000       0.00000       A     2.62720e-01     6.76047e-02
 h32bf                                  1      0.0000       0.00000       A     2.62431e-01     6.72328e-02
 h33bf                                  1      0.0000       0.00000       A     2.62525e-01     6.72408e-02
 h34bf                                  1      0.0000       0.00000       A     2.62559e-01     6.73477e-02
 h35bf                                  1      0.0000       0.00000       A     2.62439e-01     6.70764e-02
 h36bf                                  1      0.0000       0.00000       A     2.62428e-01     6.73733e-02
 h37bf                                  1      0.0000       0.00000       A     2.06402e-01     8.82802e-02

[ moleculetype ]
;name             nrexcl
 156                   3

[ atoms ]
;       nr            type      resi   res      atom      cgnr      charge          mass ; qtot
         1            o0bf         1   UNL        o0         1    -0.65108       15.9990 ; qtot   -0.651
         2            c1bf         1   UNL        c1         2     0.20553       12.0110 ; qtot   -0.446
         3            c2bf         1   UNL        c2         3    -0.09396       12.0110 ; qtot   -0.540
         4            c3bf         1   UNL        c3         4    -0.02677       12.0110 ; qtot   -0.566
         5            c4bf         1   UNL        c4         5    -0.09605       12.0110 ; qtot   -0.662
         6            c5bf         1   UNL        c5         6     0.00696       12.0110 ; qtot   -0.655
         7            c6bf         1   UNL        c6         7    -0.22974       12.0110 ; qtot   -0.885
         8            c7bf         1   UNL        c7         8     0.01401       12.0110 ; qtot   -0.871
         9            c8bf         1   UNL        c8         9    -0.15263       12.0110 ; qtot   -1.024
        10            c9bf         1   UNL        c9        10     0.13919       12.0110 ; qtot   -0.885
        11           o10bf         1   UNL       o10        11    -0.24730       15.9990 ; qtot   -1.132
        12           c11bf         1   UNL       c11        12     0.11899       12.0110 ; qtot   -1.013
        13           c12bf         1   UNL       c12        13    -0.11950       12.0110 ; qtot   -1.132
        14           c13bf         1   UNL       c13        14    -0.09301       12.0110 ; qtot   -1.225
        15           c14bf         1   UNL       c14        15    -0.09376       12.0110 ; qtot   -1.319
        16           c15bf         1   UNL       c15        16     0.01138       12.0110 ; qtot   -1.308
        17           c16bf         1   UNL       c16        17     0.31628       12.0110 ; qtot   -0.991
        18           c17bf         1   UNL       c17        18    -0.10330       12.0110 ; qtot   -1.095
        19           s18bf         1   UNL       s18        19     0.94266       32.0670 ; qtot   -0.152
        20           o19bf         1   UNL       o19        20    -0.47324       15.9990 ; qtot   -0.625
        21           o20bf         1   UNL       o20        21    -0.47324       15.9990 ; qtot   -1.099
        22           c21bf         1   UNL       c21        22     0.04650       12.0110 ; qtot   -1.052
        23           f22bf         1   UNL       f22        23    -0.09035       18.9980 ; qtot   -1.142
        24           f23bf         1   UNL       f23        24    -0.09035       18.9980 ; qtot   -1.233
        25           n24bf         1   UNL       n24        25    -0.44663       14.0070 ; qtot   -1.679
        26           h25bf         1   UNL       h25        26     0.44651        1.0080 ; qtot   -1.233
        27           h26bf         1   UNL       h26        27     0.07075        1.0080 ; qtot   -1.162
        28           h27bf         1   UNL       h27        28     0.05515        1.0080 ; qtot   -1.107
        29           h28bf         1   UNL       h28        29     0.05515        1.0080 ; qtot   -1.052
        30           h29bf         1   UNL       h29        30     0.06112        1.0080 ; qtot   -0.991
        31           h30bf         1   UNL       h30        31     0.06112        1.0080 ; qtot   -0.930
        32           h31bf         1   UNL       h31        32     0.14936        1.0080 ; qtot   -0.780
        33           h32bf         1   UNL       h32        33     0.13696        1.0080 ; qtot   -0.643
        34           h33bf         1   UNL       h33        34     0.13410        1.0080 ; qtot   -0.509
        35           h34bf         1   UNL       h34        35     0.12924        1.0080 ; qtot   -0.380
        36           h35bf         1   UNL       h35        36     0.13031        1.0080 ; qtot   -0.250
        37           h36bf         1   UNL       h36        37     0.14333        1.0080 ; qtot   -0.106
        38           h37bf         1   UNL       h37        38     0.10631        1.0080 ; qtot   -0.000

[ bonds ]
;       ai        aj funct               r               k
         1         2     1        0.143414   196691.579077
         1        26     1        0.097098   465738.241797
         2         3     1        0.154626   158108.186182
         2         6     1        0.152215   168862.999341
         2        27     1        0.109568   293420.799365
         3         4     1        0.154937   163390.230811
         3        28     1        0.109328   304924.475488
         3        29     1        0.109328   304924.475488
         4         5     1        0.151185   188833.950977
         4        30     1        0.109495   299311.725293
         4        31     1        0.109495   299311.725293
         5         6     1        0.139845   280670.273877
         5        10     1        0.139626   293226.947168
         6         7     1        0.139881   292279.213965
         7         8     1        0.139866   299337.543311
         7        19     1        0.179452   126537.206909
         8         9     1        0.139457   319834.214648
         8        32     1        0.108390   327351.011719
         9        10     1        0.139918   294322.667920
         9        33     1        0.108424   325013.881006
        10        11     1        0.138453   237681.078418
        11        12     1        0.137899   244279.561035
        12        13     1        0.139944   292312.769727
        12        18     1        0.139597   298182.959521
        13        14     1        0.139753   315227.549951
        13        34     1        0.108469   324357.858203
        14        15     1        0.139537   312931.048779
        14        35     1        0.108541   323301.643359
        15        16     1        0.140545   292076.781299
        15        36     1        0.108458   326037.229590
        16        17     1        0.143738   269489.591113
        16        18     1        0.140446   297476.322168
        17        25     1        0.116541  1105043.226953
        18        37     1        0.108414   326735.388623
        19        20     1        0.146700   521071.028906
        19        21     1        0.146700   521071.028906
        19        22     1        0.188097   131432.172803
        22        23     1        0.135563   266389.794629
        22        24     1        0.135563   266389.794629
        22        38     1        0.109165   319633.952637

[ angles ]
;       ai        aj        ak funct           theta             cth
         1         2         3     1      112.156998      607.312682
         1         2         6     1      111.549759      638.787233
         1         2        27     1      107.443604      426.077828
         2         1        26     1      107.781982      582.188699
         2         3         4     1      105.773277      555.942743
         2         3        28     1      109.849350      488.075034
         2         3        29     1      109.849350      488.075034
         2         6         5     1      110.065781      401.214483
         2         6         7     1      129.890350      427.206344
         3         2         6     1      102.983192      505.970642
         3         2        27     1      111.370956      424.197339
         3         4         5     1      103.047203      527.255344
         3         4        30     1      112.041214      461.267103
         3         4        31     1      112.041214      461.267103
         4         3        28     1      111.460251      464.169746
         4         3        29     1      111.460251      464.169746
         4         5         6     1      111.529129      360.691911
         4         5        10     1      128.203049      426.831779
         5         4        30     1      111.159485      463.409826
         5         4        31     1      111.159485      463.409826
         5         6         7     1      119.386757      619.756341
         5        10         9     1      120.209274      675.627833
         5        10        11     1      118.795853      413.009691
         6         2        27     1      110.660851      434.596209
         6         5        10     1      120.050552      669.333127
         6         7         8     1      120.515137      691.685057
         6         7        19     1      122.334763      542.952782
         7         8         9     1      120.231178      598.543175
         7         8        32     1      119.771240      368.496849
         7        19        20     1      109.163193      624.467937
         7        19        21     1      109.163193      624.467937
         7        19        22     1      102.664406      534.672566
         8         7        19     1      117.328247      538.299921
         8         9        10     1      119.780197      704.977186
         8         9        33     1      120.681114      420.830399
         9         8        32     1      120.591515      398.783606
         9        10        11     1      121.054977      527.190959
        10         9        33     1      119.703087      428.792742
        10        11        12     1      118.675720      432.859303
        11        12        13     1      119.891220      517.000727
        11        12        18     1      119.503372      498.465478
        12        13        14     1      119.545517      728.437490
        12        13        34     1      119.600159      425.889492
        12        18        16     1      119.050827      685.614120
        12        18        37     1      120.249130      416.877286
        13        12        18     1      120.613083      636.657693
        13        14        15     1      120.699783      718.430008
        13        14        35     1      119.576332      426.853677
        14        13        34     1      120.986183      417.520502
        14        15        16     1      119.072487      646.869154
        14        15        36     1      121.099228      421.280873
        15        14        35     1      119.802902      429.905840
        15        16        17     1      119.789810      482.386037
        15        16        18     1      120.711388      691.715063
        16        15        36     1      119.892273      422.193601
        16        17        25     1      179.657593      167.360000
        16        18        37     1      120.619064      405.403144
        17        16        18     1      119.326767      474.561562
        19        22        23     1      109.016342      510.993377
        19        22        24     1      109.016342      510.993377
        19        22        38     1      108.633278      472.980655
        20        19        21     1      121.722717      711.025331
        20        19        22     1      105.477318      451.835993
        21        19        22     1      105.477318      451.835993
        23        22        24     1      108.734177      735.006145
        23        22        38     1      110.516922      439.201444
        24        22        38     1      110.516922      439.201444
        28         3        29     1      107.906326      358.976168
        30         4        31     1      106.852402      359.015399

[ dihedrals ] ; propers for gromacs 4.5 or higher, use funct 9
;       ai        aj        ak        al funct           phase               k        pn
         1         2         3         4     9        0.000000       -0.902817         1
         1         2         3         4     9      180.000000        0.141057         2
         1         2         3         4     9        0.000000        0.409037         3
         1         2         3         4     9      180.000000       -0.049955         4
         1         2         3        28     9        0.000000        0.082298         1
         1         2         3        28     9      180.000000        0.001184         2
         1         2         3        28     9        0.000000        0.517638         3
         1         2         3        28     9      180.000000       -0.006188         4
         1         2         3        29     9        0.000000        0.082298         1
         1         2         3        29     9      180.000000        0.001184         2
         1         2         3        29     9        0.000000        0.517638         3
         1         2         3        29     9      180.000000       -0.006188         4
         1         2         6         5     9        0.000000       -1.958399         1
         1         2         6         5     9      180.000000        2.726877         2
         1         2         6         5     9        0.000000        0.261060         3
         1         2         6         5     9      180.000000        1.312293         4
         1         2         6         7     9        0.000000       -1.105676         1
         1         2         6         7     9      180.000000        2.327193         2
         1         2         6         7     9        0.000000       -0.034757         3
         1         2         6         7     9      180.000000        0.591043         4
         2         3         4         5     9        0.000000        0.022335         1
         2         3         4         5     9      180.000000        4.696159         2
         2         3         4         5     9        0.000000       -0.144484         3
         2         3         4         5     9      180.000000       -1.953651         4
         2         3         4        30     9        0.000000        0.001739         1
         2         3         4        30     9      180.000000        0.010823         2
         2         3         4        30     9        0.000000        0.083595         3
         2         3         4        30     9      180.000000        0.109304         4
         2         3         4        31     9        0.000000        0.001739         1
         2         3         4        31     9      180.000000        0.010823         2
         2         3         4        31     9        0.000000        0.083595         3
         2         3         4        31     9      180.000000        0.109304         4
         2         6         5         4     9        0.000000       -0.144055         1
         2         6         5         4     9      180.000000       19.379185         2
         2         6         5         4     9        0.000000       -3.120841         3
         2         6         5         4     9      180.000000       -0.417088         4
         2         6         5        10     9        0.000000       -0.020887         1
         2         6         5        10     9      180.000000       15.133121         2
         2         6         5        10     9        0.000000       -1.577853         3
         2         6         5        10     9      180.000000       -0.350791         4
         2         6         7         8     9        0.000000       -0.041016         1
         2         6         7         8     9      180.000000       13.947036         2
         2         6         7         8     9        0.000000        0.006313         3
         2         6         7         8     9      180.000000       -0.417881         4
         2         6         7        19     9        0.000000       -0.217465         1
         2         6         7        19     9      180.000000        9.972021         2
         2         6         7        19     9        0.000000        0.391521         3
         2         6         7        19     9      180.000000       -0.461854         4
         3         2         1        26     9        0.000000        2.593792         1
         3         2         1        26     9      180.000000       -1.584537         2
         3         2         1        26     9        0.000000        0.778961         3
         3         2         1        26     9      180.000000        0.127682         4
         3         2         6         5     9        0.000000       -0.154399         1
         3         2         6         5     9      180.000000       13.137196         2
         3         2         6         5     9        0.000000       -1.506232         3
         3         2         6         5     9      180.000000       -0.593504         4
         3         2         6         7     9        0.000000       -1.436459         1
         3         2         6         7     9      180.000000        1.163880         2
         3         2         6         7     9        0.000000       -0.162158         3
         3         2         6         7     9      180.000000        0.668062         4
         3         4         5         6     9        0.000000       -1.020233         1
         3         4         5         6     9      180.000000       12.872690         2
         3         4         5         6     9        0.000000       -1.699732         3
         3         4         5         6     9      180.000000       -0.875797         4
         3         4         5        10     9        0.000000        0.060186         1
         3         4         5        10     9      180.000000        1.190371         2
         3         4         5        10     9        0.000000        0.104089         3
         3         4         5        10     9      180.000000        0.404802         4
         4         3         2         6     9        0.000000       -0.307899         1
         4         3         2         6     9      180.000000        5.268810         2
         4         3         2         6     9        0.000000       -0.080695         3
         4         3         2         6     9      180.000000       -2.289434         4
         4         3         2        27     9        0.000000       -0.086671         1
         4         3         2        27     9      180.000000        0.261047         2
         4         3         2        27     9        0.000000        0.294892         3
         4         3         2        27     9      180.000000       -0.060491         4
         4         5         6         7     9        0.000000       -0.314668         1
         4         5         6         7     9      180.000000       13.957765         2
         4         5         6         7     9        0.000000       -1.672209         3
         4         5         6         7     9      180.000000       -0.038655         4
         4         5        10         9     9        0.000000        0.037949         1
         4         5        10         9     9      180.000000       12.528272         2
         4         5        10         9     9        0.000000       -0.154416         3
         4         5        10         9     9      180.000000       -0.072390         4
         4         5        10        11     9        0.000000       -0.262009         1
         4         5        10        11     9      180.000000       15.801515         2
         4         5        10        11     9        0.000000       -0.025233         3
         4         5        10        11     9      180.000000       -0.295193         4
         5         4         3        28     9        0.000000        0.027465         1
         5         4         3        28     9      180.000000       -0.038271         2
         5         4         3        28     9        0.000000        0.158270         3
         5         4         3        28     9      180.000000        0.120993         4
         5         4         3        29     9        0.000000        0.027465         1
         5         4         3        29     9      180.000000       -0.038271         2
         5         4         3        29     9        0.000000        0.158270         3
         5         4         3        29     9      180.000000        0.120993         4
         5         6         2        27     9        0.000000        1.043600         1
         5         6         2        27     9      180.000000        0.473951         2
         5         6         2        27     9        0.000000       -0.284389         3
         5         6         2        27     9      180.000000        0.600762         4
         5         6         7         8     9        0.000000       -0.023079         1
         5         6         7         8     9      180.000000       18.920672         2
         5         6         7         8     9        0.000000       -1.883661         3
         5         6         7         8     9      180.000000       -0.423877         4
         5         6         7        19     9        0.000000       -0.404431         1
         5         6         7        19     9      180.000000       10.984298         2
         5         6         7        19     9        0.000000       -0.058488         3
         5         6         7        19     9      180.000000       -0.450364         4
         5        10         9         8     9        0.000000       -0.071877         1
         5        10         9         8     9      180.000000       17.636135         2
         5        10         9         8     9        0.000000       -1.221268         3
         5        10         9         8     9      180.000000       -0.411867         4
         5        10         9        33     9        0.000000        0.021986         1
         5        10         9        33     9      180.000000       13.345004         2
         5        10         9        33     9        0.000000       -0.364560         3
         5        10         9        33     9      180.000000        0.033824         4
         5        10        11        12     9        0.000000        0.037595         1
         5        10        11        12     9      180.000000        3.481207         2
         5        10        11        12     9        0.000000        0.568764         3
         5        10        11        12     9      180.000000        0.089978         4
         6         2         1        26     9        0.000000        5.443806         1
         6         2         1        26     9      180.000000       -2.823859         2
         6         2         1        26     9        0.000000        0.817803         3
         6         2         1        26     9      180.000000        0.226182         4
         6         2         3        28     9        0.000000        0.040009         1
         6         2         3        28     9      180.000000       -0.052121         2
         6         2         3        28     9        0.000000        0.115713         3
         6         2         3        28     9      180.000000        0.165914         4
         6         2         3        29     9        0.000000        0.040009         1
         6         2         3        29     9      180.000000       -0.052121         2
         6         2         3        29     9        0.000000        0.115713         3
         6         2         3        29     9      180.000000        0.165914         4
         6         5         4        30     9        0.000000       -0.007020         1
         6         5         4        30     9      180.000000       -0.118128         2
         6         5         4        30     9        0.000000       -0.454736         3
         6         5         4        30     9      180.000000        0.361555         4
         6         5         4        31     9        0.000000       -0.007020         1
         6         5         4        31     9      180.000000       -0.118128         2
         6         5         4        31     9        0.000000       -0.454736         3
         6         5         4        31     9      180.000000        0.361555         4
         6         5        10         9     9        0.000000        0.004169         1
         6         5        10         9     9      180.000000       17.066374         2
         6         5        10         9     9        0.000000       -1.151221         3
         6         5        10         9     9      180.000000       -0.473164         4
         6         5        10        11     9        0.000000        0.379850         1
         6         5        10        11     9      180.000000       17.439380         2
         6         5        10        11     9        0.000000        0.327529         3
         6         5        10        11     9      180.000000       -0.542905         4
         6         7         8         9     9        0.000000       -0.031629         1
         6         7         8         9     9      180.000000       19.664015         2
         6         7         8         9     9        0.000000       -1.826643         3
         6         7         8         9     9      180.000000       -0.525545         4
         6         7         8        32     9        0.000000        0.122487         1
         6         7         8        32     9      180.000000       14.803777         2
         6         7         8        32     9        0.000000       -0.510399         3
         6         7         8        32     9      180.000000       -0.039261         4
         6         7        19        20     9        0.000000       -0.059036         1
         6         7        19        20     9      180.000000        0.706279         2
         6         7        19        20     9        0.000000        0.546237         3
         6         7        19        20     9      180.000000       -0.149168         4
         6         7        19        21     9        0.000000       -0.059036         1
         6         7        19        21     9      180.000000        0.706279         2
         6         7        19        21     9        0.000000        0.546237         3
         6         7        19        21     9      180.000000       -0.149168         4
         6         7        19        22     9        0.000000        1.666853         1
         6         7        19        22     9      180.000000       -2.375779         2
         6         7        19        22     9        0.000000        0.487620         3
         6         7        19        22     9      180.000000        0.162506         4
         7         6         2        27     9        0.000000        0.868566         1
         7         6         2        27     9      180.000000        0.290202         2
         7         6         2        27     9        0.000000       -0.145128         3
         7         6         2        27     9      180.000000        0.244729         4
         7         6         5        10     9        0.000000       -0.192699         1
         7         6         5        10     9      180.000000       14.977965         2
         7         6         5        10     9        0.000000       -1.874325         3
         7         6         5        10     9      180.000000       -0.252605         4
         7         8         9        10     9        0.000000       -0.177317         1
         7         8         9        10     9      180.000000       18.599754         2
         7         8         9        10     9        0.000000       -1.887988         3
         7         8         9        10     9      180.000000       -0.452271         4
         7         8         9        33     9        0.000000        0.043744         1
         7         8         9        33     9      180.000000       14.393120         2
         7         8         9        33     9        0.000000       -0.748088         3
         7         8         9        33     9      180.000000        0.036763         4
         7        19        22        23     9        0.000000       -0.240302         1
         7        19        22        23     9      180.000000       -0.245744         2
         7        19        22        23     9        0.000000        0.189595         3
         7        19        22        23     9      180.000000        0.065751         4
         7        19        22        24     9        0.000000       -0.240302         1
         7        19        22        24     9      180.000000       -0.245744         2
         7        19        22        24     9        0.000000        0.189595         3
         7        19        22        24     9      180.000000        0.065751         4
         7        19        22        38     9        0.000000        0.285591         1
         7        19        22        38     9      180.000000       -0.147267         2
         7        19        22        38     9        0.000000        0.388709         3
         7        19        22        38     9      180.000000       -0.027904         4
         8         7        19        20     9        0.000000        0.007008         1
         8         7        19        20     9      180.000000        1.053377         2
         8         7        19        20     9        0.000000        0.030337         3
         8         7        19        20     9      180.000000       -0.007734         4
         8         7        19        21     9        0.000000        0.007008         1
         8         7        19        21     9      180.000000        1.053376         2
         8         7        19        21     9        0.000000        0.030338         3
         8         7        19        21     9      180.000000       -0.007734         4
         8         7        19        22     9        0.000000        0.176777         1
         8         7        19        22     9      180.000000       -1.769278         2
         8         7        19        22     9        0.000000       -0.016301         3
         8         7        19        22     9      180.000000        0.120854         4
         8         9        10        11     9        0.000000        0.659762         1
         8         9        10        11     9      180.000000       19.082649         2
         8         9        10        11     9        0.000000        0.441786         3
         8         9        10        11     9      180.000000       -0.247232         4
         9         8         7        19     9        0.000000       -0.214423         1
         9         8         7        19     9      180.000000       13.479864         2
         9         8         7        19     9        0.000000        0.052346         3
         9         8         7        19     9      180.000000       -0.324451         4
         9        10        11        12     9        0.000000        0.013460         1
         9        10        11        12     9      180.000000        4.546219         2
         9        10        11        12     9        0.000000       -0.381754         3
         9        10        11        12     9      180.000000        0.302115         4
        10         5         4        30     9        0.000000       -0.019425         1
        10         5         4        30     9      180.000000       -0.092426         2
        10         5         4        30     9        0.000000        0.129077         3
        10         5         4        30     9      180.000000        0.067235         4
        10         5         4        31     9        0.000000       -0.019425         1
        10         5         4        31     9      180.000000       -0.092426         2
        10         5         4        31     9        0.000000        0.129077         3
        10         5         4        31     9      180.000000        0.067235         4
        10         9         8        32     9        0.000000        0.186084         1
        10         9         8        32     9      180.000000       14.629246         2
        10         9         8        32     9        0.000000       -0.472920         3
        10         9         8        32     9      180.000000        0.085557         4
        10        11        12        13     9        0.000000        0.154591         1
        10        11        12        13     9      180.000000        4.757366         2
        10        11        12        13     9        0.000000       -0.037371         3
        10        11        12        13     9      180.000000        0.263802         4
        10        11        12        18     9        0.000000        0.070979         1
        10        11        12        18     9      180.000000        4.769955         2
        10        11        12        18     9        0.000000       -0.152151         3
        10        11        12        18     9      180.000000        0.281413         4
        11        10         9        33     9        0.000000        0.210735         1
        11        10         9        33     9      180.000000       14.071432         2
        11        10         9        33     9        0.000000        0.076599         3
        11        10         9        33     9      180.000000        0.386240         4
        11        12        13        14     9        0.000000        0.632159         1
        11        12        13        14     9      180.000000       17.613453         2
        11        12        13        14     9        0.000000        0.415208         3
        11        12        13        14     9      180.000000       -0.157928         4
        11        12        13        34     9        0.000000        0.167927         1
        11        12        13        34     9      180.000000       13.584398         2
        11        12        13        34     9        0.000000       -0.033224         3
        11        12        13        34     9      180.000000        0.322259         4
        11        12        18        16     9        0.000000        0.402515         1
        11        12        18        16     9      180.000000       17.277626         2
        11        12        18        16     9        0.000000        0.438304         3
        11        12        18        16     9      180.000000       -0.098861         4
        11        12        18        37     9        0.000000        0.214256         1
        11        12        18        37     9      180.000000       13.485619         2
        11        12        18        37     9        0.000000       -0.011974         3
        11        12        18        37     9      180.000000        0.357925         4
        12        13        14        15     9        0.000000       -0.073619         1
        12        13        14        15     9      180.000000       18.605550         2
        12        13        14        15     9        0.000000       -1.500488         3
        12        13        14        15     9      180.000000       -0.463634         4
        12        13        14        35     9        0.000000       -0.006574         1
        12        13        14        35     9      180.000000       14.674777         2
        12        13        14        35     9        0.000000       -0.525545         3
        12        13        14        35     9      180.000000        0.052273         4
        12        18        16        15     9        0.000000       -0.119213         1
        12        18        16        15     9      180.000000       18.156833         2
        12        18        16        15     9        0.000000       -1.662074         3
        12        18        16        15     9      180.000000       -0.418116         4
        12        18        16        17     9        0.000000       -0.101952         1
        12        18        16        17     9      180.000000       16.255386         2
        12        18        16        17     9        0.000000       -0.113497         3
        12        18        16        17     9      180.000000       -0.299087         4
        13        12        18        16     9        0.000000       -0.107940         1
        13        12        18        16     9      180.000000       16.744774         2
        13        12        18        16     9        0.000000       -0.898222         3
        13        12        18        16     9      180.000000       -0.227849         4
        13        12        18        37     9        0.000000        0.046653         1
        13        12        18        37     9      180.000000       12.697645         2
        13        12        18        37     9        0.000000       -0.488002         3
        13        12        18        37     9      180.000000        0.183078         4
        13        14        15        16     9        0.000000       -0.149690         1
        13        14        15        16     9      180.000000       18.938630         2
        13        14        15        16     9        0.000000       -1.518324         3
        13        14        15        16     9      180.000000       -0.443144         4
        13        14        15        36     9        0.000000        0.019598         1
        13        14        15        36     9      180.000000       14.892449         2
        13        14        15        36     9        0.000000       -0.721762         3
        13        14        15        36     9      180.000000        0.059336         4
        14        13        12        18     9        0.000000        0.028429         1
        14        13        12        18     9      180.000000       16.525753         2
        14        13        12        18     9        0.000000       -0.879564         3
        14        13        12        18     9      180.000000       -0.206655         4
        14        15        16        17     9        0.000000        0.059856         1
        14        15        16        17     9      180.000000       16.969509         2
        14        15        16        17     9        0.000000       -0.049690         3
        14        15        16        17     9      180.000000       -0.298569         4
        14        15        16        18     9        0.000000       -0.079191         1
        14        15        16        18     9      180.000000       18.507218         2
        14        15        16        18     9        0.000000       -1.598344         3
        14        15        16        18     9      180.000000       -0.420203         4
        15        14        13        34     9        0.000000        0.074524         1
        15        14        13        34     9      180.000000       14.174695         2
        15        14        13        34     9        0.000000       -0.590892         3
        15        14        13        34     9      180.000000        0.121429         4
        15        16        17        25     9        0.000000        0.000000         1
        15        16        17        25     9      180.000000        0.000000         2
        15        16        17        25     9        0.000000        0.000000         3
        15        16        17        25     9      180.000000        0.000000         4
        15        16        18        37     9        0.000000       -0.048173         1
        15        16        18        37     9      180.000000       13.965026         2
        15        16        18        37     9        0.000000       -0.653804         3
        15        16        18        37     9      180.000000        0.033362         4
        16        15        14        35     9        0.000000       -0.024931         1
        16        15        14        35     9      180.000000       14.495108         2
        16        15        14        35     9        0.000000       -0.568559         3
        16        15        14        35     9      180.000000        0.123923         4
        17        16        15        36     9        0.000000        0.047503         1
        17        16        15        36     9      180.000000       12.848971         2
        17        16        15        36     9        0.000000       -0.299787         3
        17        16        15        36     9      180.000000        0.127365         4
        17        16        18        37     9        0.000000        0.048451         1
        17        16        18        37     9      180.000000       12.739211         2
        17        16        18        37     9        0.000000       -0.295121         3
        17        16        18        37     9      180.000000        0.167617         4
        18        12        13        34     9        0.000000        0.123978         1
        18        12        13        34     9      180.000000       12.790682         2
        18        12        13        34     9        0.000000       -0.496829         3
        18        12        13        34     9      180.000000        0.154553         4
        18        16        15        36     9        0.000000       -0.032440         1
        18        16        15        36     9      180.000000       14.404029         2
        18        16        15        36     9        0.000000       -0.708767         3
        18        16        15        36     9      180.000000        0.009433         4
        18        16        17        25     9        0.000000        0.000000         1
        18        16        17        25     9      180.000000        0.000000         2
        18        16        17        25     9        0.000000        0.000000         3
        18        16        17        25     9      180.000000        0.000000         4
        19         7         8        32     9        0.000000        0.308508         1
        19         7         8        32     9      180.000000       11.874000         2
        19         7         8        32     9        0.000000       -0.236254         3
        19         7         8        32     9      180.000000       -0.048943         4
        20        19        22        23     9        0.000000        0.162715         1
        20        19        22        23     9      180.000000        0.105513         2
        20        19        22        23     9        0.000000        0.247104         3
        20        19        22        23     9      180.000000        0.112904         4
        20        19        22        24     9        0.000000        0.162715         1
        20        19        22        24     9      180.000000        0.105513         2
        20        19        22        24     9        0.000000        0.247104         3
        20        19        22        24     9      180.000000        0.112904         4
        20        19        22        38     9        0.000000       -0.205224         1
        20        19        22        38     9      180.000000        0.079964         2
        20        19        22        38     9        0.000000        0.303827         3
        20        19        22        38     9      180.000000       -0.009602         4
        21        19        22        23     9        0.000000        0.162715         1
        21        19        22        23     9      180.000000        0.105513         2
        21        19        22        23     9        0.000000        0.247105         3
        21        19        22        23     9      180.000000        0.112903         4
        21        19        22        24     9        0.000000        0.162715         1
        21        19        22        24     9      180.000000        0.105513         2
        21        19        22        24     9        0.000000        0.247105         3
        21        19        22        24     9      180.000000        0.112903         4
        21        19        22        38     9        0.000000       -0.205224         1
        21        19        22        38     9      180.000000        0.079963         2
        21        19        22        38     9        0.000000        0.303827         3
        21        19        22        38     9      180.000000       -0.009602         4
        26         1         2        27     9        0.000000        0.376805         1
        26         1         2        27     9      180.000000       -0.718637         2
        26         1         2        27     9        0.000000        0.858398         3
        26         1         2        27     9      180.000000        0.168857         4
        27         2         3        28     9        0.000000       -0.072729         1
        27         2         3        28     9      180.000000        0.009537         2
        27         2         3        28     9        0.000000        0.467678         3
        27         2         3        28     9      180.000000       -0.015391         4
        27         2         3        29     9        0.000000       -0.072729         1
        27         2         3        29     9      180.000000        0.009537         2
        27         2         3        29     9        0.000000        0.467678         3
        27         2         3        29     9      180.000000       -0.015391         4
        28         3         4        30     9        0.000000       -0.028728         1
        28         3         4        30     9      180.000000        0.026798         2
        28         3         4        30     9        0.000000        0.339073         3
        28         3         4        30     9      180.000000        0.001106         4
        28         3         4        31     9        0.000000       -0.028728         1
        28         3         4        31     9      180.000000        0.026798         2
        28         3         4        31     9        0.000000        0.339073         3
        28         3         4        31     9      180.000000        0.001106         4
        29         3         4        30     9        0.000000       -0.028728         1
        29         3         4        30     9      180.000000        0.026798         2
        29         3         4        30     9        0.000000        0.339073         3
        29         3         4        30     9      180.000000        0.001106         4
        29         3         4        31     9        0.000000       -0.028728         1
        29         3         4        31     9      180.000000        0.026798         2
        29         3         4        31     9        0.000000        0.339073         3
        29         3         4        31     9      180.000000        0.001106         4
        32         8         9        33     9        0.000000       -0.061453         1
        32         8         9        33     9      180.000000       12.696796         2
        32         8         9        33     9        0.000000       -0.850787         3
        32         8         9        33     9      180.000000        0.232287         4
        34        13        14        35     9        0.000000       -0.121939         1
        34        13        14        35     9      180.000000       11.939546         2
        34        13        14        35     9        0.000000       -0.592465         3
        34        13        14        35     9      180.000000        0.207435         4
        35        14        15        36     9        0.000000       -0.174245         1
        35        14        15        36     9      180.000000       11.809367         2
        35        14        15        36     9        0.000000       -0.635349         3
        35        14        15        36     9      180.000000        0.287123         4

[ pairs ]
;       ai        aj funct
         1         4     1
         1         5     1
         1         7     1
         1        28     1
         1        29     1
         2         8     1
         2        10     1
         2        19     1
         2        30     1
         2        31     1
         3         7     1
         3        10     1
         3        26     1
         4         7     1
         4         9     1
         4        11     1
         4        27     1
         5         8     1
         5        12     1
         5        19     1
         5        27     1
         5        28     1
         5        29     1
         5        33     1
         6         9     1
         6        11     1
         6        20     1
         6        21     1
         6        22     1
         6        26     1
         6        28     1
         6        29     1
         6        30     1
         6        31     1
         6        32     1
         7        10     1
         7        23     1
         7        24     1
         7        27     1
         7        33     1
         7        38     1
         8        11     1
         8        20     1
         8        21     1
         8        22     1
         9        12     1
         9        19     1
        10        13     1
        10        18     1
        10        30     1
        10        31     1
        10        32     1
        11        14     1
        11        16     1
        11        33     1
        11        34     1
        11        37     1
        12        15     1
        12        17     1
        12        35     1
        13        16     1
        13        36     1
        13        37     1
        14        17     1
        14        18     1
        15        25     1
        15        34     1
        15        37     1
        16        35     1
        17        36     1
        17        37     1
        18        25     1
        18        34     1
        18        36     1
        19        32     1
        20        23     1
        20        24     1
        20        38     1
        21        23     1
        21        24     1
        21        38     1
        26        27     1
        27        28     1
        27        29     1
        28        30     1
        28        31     1
        29        30     1
        29        31     1
        32        33     1
        34        35     1
        35        36     1
