; ITP file created by ByteFF-ML, 2026-02-21 07:41:39.540587

[ atomtypes ]
;name           bonded.type        at.num        mass        charge   ptype           sigma         epsilon
 n0bf                                   7      0.0000       0.00000       A     3.64462e-01     1.38405e-01
 c1bf                                   6      0.0000       0.00000       A     3.39929e-01     4.52650e-01
 c2bf                                   6      0.0000       0.00000       A     3.39971e-01     4.56621e-01
 c3bf                                   6      0.0000       0.00000       A     3.39939e-01     4.53785e-01
 c4bf                                   6      0.0000       0.00000       A     3.31735e-01     4.13160e-01
 c5bf                                   6      0.0000       0.00000       A     3.31745e-01     4.13588e-01
 c6bf                                   6      0.0000       0.00000       A     3.31274e-01     4.13573e-01
 c7bf                                   6      0.0000       0.00000       A     3.31375e-01     4.12999e-01
 c8bf                                   6      0.0000       0.00000       A     3.31334e-01     4.13082e-01
 c9bf                                   6      0.0000       0.00000       A     3.31541e-01     4.12619e-01
 o10bf                                  8      0.0000       0.00000       A     3.15848e-01     3.06354e-01
 c11bf                                  6      0.0000       0.00000       A     3.31461e-01     4.12807e-01
 c12bf                                  6      0.0000       0.00000       A     3.31497e-01     4.13743e-01
 c13bf                                  6      0.0000       0.00000       A     3.31573e-01     4.14252e-01
 f14bf                                  9      0.0000       0.00000       A     3.03468e-01     3.48235e-01
 c15bf                                  6      0.0000       0.00000       A     3.31552e-01     4.14123e-01
 c16bf                                  6      0.0000       0.00000       A     3.31534e-01     4.14279e-01
 c17bf                                  6      0.0000       0.00000       A     3.48195e-01     6.71490e-01
 c18bf                                  6      0.0000       0.00000       A     3.31496e-01     4.14341e-01
 s19bf                                 16      0.0000       0.00000       A     4.05496e-01     2.59021e-01
 o20bf                                  8      0.0000       0.00000       A     3.05055e-01     6.11844e-01
 o21bf                                  8      0.0000       0.00000       A     3.05055e-01     6.11844e-01
 c22bf                                  6      0.0000       0.00000       A     3.39729e-01     4.49365e-01
 f23bf                                  9      0.0000       0.00000       A     3.03760e-01     3.51143e-01
 f24bf                                  9      0.0000       0.00000       A     3.03760e-01     3.51143e-01
 n25bf                                  7      0.0000       0.00000       A     3.27424e-01     4.58548e-01
 h26bf                                  1      0.0000       0.00000       A     1.10530e-01     4.07445e-02
 h27bf                                  1      0.0000       0.00000       A     1.10530e-01     4.07445e-02
 h28bf                                  1      0.0000       0.00000       A     2.42923e-01     8.66378e-02
 h29bf                                  1      0.0000       0.00000       A     2.60013e-01     8.68517e-02
 h30bf                                  1      0.0000       0.00000       A     2.60013e-01     8.68517e-02
 h31bf                                  1      0.0000       0.00000       A     2.62720e-01     6.76047e-02
 h32bf                                  1      0.0000       0.00000       A     2.62431e-01     6.72328e-02
 h33bf                                  1      0.0000       0.00000       A     2.62432e-01     6.69886e-02
 h34bf                                  1      0.0000       0.00000       A     2.62464e-01     6.71849e-02
 h35bf                                  1      0.0000       0.00000       A     2.62428e-01     6.73733e-02
 h36bf                                  1      0.0000       0.00000       A     2.42015e-01     8.71422e-02
 h37bf                                  1      0.0000       0.00000       A     2.42015e-01     8.71422e-02
 h38bf                                  1      0.0000       0.00000       A     2.42015e-01     8.71422e-02

[ moleculetype ]
;name             nrexcl
 165                   3

[ atoms ]
;       nr            type      resi   res      atom      cgnr      charge          mass ; qtot
         1            n0bf         1   UNL        n0         1    -0.97950       14.0070 ; qtot   -0.980
         2            c1bf         1   UNL        c1         2     0.18671       12.0110 ; qtot   -0.793
         3            c2bf         1   UNL        c2         3     0.15453       12.0110 ; qtot   -0.638
         4            c3bf         1   UNL        c3         4    -0.06124       12.0110 ; qtot   -0.700
         5            c4bf         1   UNL        c4         5    -0.09906       12.0110 ; qtot   -0.799
         6            c5bf         1   UNL        c5         6     0.01265       12.0110 ; qtot   -0.786
         7            c6bf         1   UNL        c6         7    -0.23024       12.0110 ; qtot   -1.016
         8            c7bf         1   UNL        c7         8     0.00393       12.0110 ; qtot   -1.012
         9            c8bf         1   UNL        c8         9    -0.15292       12.0110 ; qtot   -1.165
        10            c9bf         1   UNL        c9        10     0.14434       12.0110 ; qtot   -1.021
        11           o10bf         1   UNL       o10        11    -0.24299       15.9990 ; qtot   -1.264
        12           c11bf         1   UNL       c11        12     0.15070       12.0110 ; qtot   -1.113
        13           c12bf         1   UNL       c12        13    -0.16635       12.0110 ; qtot   -1.279
        14           c13bf         1   UNL       c13        14     0.19192       12.0110 ; qtot   -1.088
        15           f14bf         1   UNL       f14        15    -0.16215       18.9980 ; qtot   -1.250
        16           c15bf         1   UNL       c15        16    -0.13469       12.0110 ; qtot   -1.384
        17           c16bf         1   UNL       c16        17     0.04075       12.0110 ; qtot   -1.344
        18           c17bf         1   UNL       c17        18     0.31339       12.0110 ; qtot   -1.030
        19           c18bf         1   UNL       c18        19    -0.11736       12.0110 ; qtot   -1.148
        20           s19bf         1   UNL       s19        20     0.99993       32.0670 ; qtot   -0.148
        21           o20bf         1   UNL       o20        21    -0.51016       15.9990 ; qtot   -0.658
        22           o21bf         1   UNL       o21        22    -0.51016       15.9990 ; qtot   -1.168
        23           c22bf         1   UNL       c22        23    -0.29990       12.0110 ; qtot   -1.468
        24           f23bf         1   UNL       f23        24    -0.10328       18.9980 ; qtot   -1.571
        25           f24bf         1   UNL       f24        25    -0.10328       18.9980 ; qtot   -1.674
        26           n25bf         1   UNL       n25        26    -0.43909       14.0070 ; qtot   -2.114
        27           h26bf         1   UNL       h26        27     0.40446        1.0080 ; qtot   -1.709
        28           h27bf         1   UNL       h27        28     0.40446        1.0080 ; qtot   -1.305
        29           h28bf         1   UNL       h28        29     0.08598        1.0080 ; qtot   -1.219
        30           h29bf         1   UNL       h29        30     0.08850        1.0080 ; qtot   -1.130
        31           h30bf         1   UNL       h30        31     0.08850        1.0080 ; qtot   -1.042
        32           h31bf         1   UNL       h31        32     0.14741        1.0080 ; qtot   -0.894
        33           h32bf         1   UNL       h32        33     0.13696        1.0080 ; qtot   -0.757
        34           h33bf         1   UNL       h33        34     0.15329        1.0080 ; qtot   -0.604
        35           h34bf         1   UNL       h34        35     0.14757        1.0080 ; qtot   -0.456
        36           h35bf         1   UNL       h35        36     0.14589        1.0080 ; qtot   -0.310
        37           h36bf         1   UNL       h36        37     0.10350        1.0080 ; qtot   -0.207
        38           h37bf         1   UNL       h37        38     0.10350        1.0080 ; qtot   -0.103
        39           h38bf         1   UNL       h38        39     0.10350        1.0080 ; qtot    0.000

[ bonds ]
;       ai        aj funct               r               k
         1         2     1        0.146324   204985.559766
         1        27     1        0.101809   402053.798437
         1        28     1        0.101809   402053.798437
         2         3     1        0.155064   151140.296509
         2         6     1        0.152451   165584.992139
         2        29     1        0.109545   293700.124268
         3         4     1        0.153246   172644.138672
         3        24     1        0.137912   219061.129248
         3        25     1        0.137912   219061.129248
         4         5     1        0.151012   191844.035596
         4        30     1        0.109315   306072.726074
         4        31     1        0.109315   306072.700537
         5         6     1        0.139954   278800.012598
         5        10     1        0.139505   295606.188574
         6         7     1        0.139979   288740.587793
         7         8     1        0.139897   298263.375879
         7        20     1        0.180745   125182.450488
         8         9     1        0.139491   319883.475732
         8        32     1        0.108390   326866.342920
         9        10     1        0.139903   294337.964648
         9        33     1        0.108424   325013.881006
        10        11     1        0.138518   236605.838428
        11        12     1        0.137421   250794.179785
        12        13     1        0.139961   293934.708154
        12        19     1        0.139702   295896.749805
        13        14     1        0.139111   310051.892920
        13        34     1        0.108374   328151.165967
        14        15     1        0.135083   300333.720410
        14        16     1        0.138892   307835.578271
        16        17     1        0.140515   294475.124463
        16        35     1        0.108386   329357.334717
        17        18     1        0.143765   270871.863770
        17        19     1        0.140387   298138.014209
        18        26     1        0.116512  1108338.024805
        19        36     1        0.108395   327534.189404
        20        21     1        0.147217   501654.909277
        20        22     1        0.147217   501654.909277
        20        23     1        0.180879   139630.223340
        23        37     1        0.109031   319070.297559
        23        38     1        0.109031   319070.297559
        23        39     1        0.109031   319070.297559

[ angles ]
;       ai        aj        ak funct           theta             cth
         1         2         3     1      113.823715      502.347820
         1         2         6     1      113.215126      596.032238
         1         2        29     1      108.014671      440.942947
         2         1        27     1      109.748451      561.291236
         2         1        28     1      109.748451      561.291236
         2         3         4     1      107.744644      438.613835
         2         3        24     1      110.648392      546.508441
         2         3        25     1      110.648392      546.508441
         2         6         5     1      110.251892      396.386405
         2         6         7     1      129.583588      420.115264
         3         2         6     1      101.504402      549.211225
         3         2        29     1      107.029320      476.465832
         3         4         5     1      102.407692      559.798719
         3         4        30     1      110.242264      489.327598
         3         4        31     1      110.242264      489.327598
         4         3        24     1      111.432266      571.032877
         4         3        25     1      111.432266      571.032877
         4         5         6     1      111.646988      375.447284
         4         5        10     1      127.697716      427.540976
         5         4        30     1      112.458206      449.845375
         5         4        31     1      112.458206      449.845375
         5         6         7     1      119.339767      635.151196
         5        10         9     1      120.081154      667.553318
         5        10        11     1      118.827438      413.512261
         6         2        29     1      110.238304      439.660857
         6         5        10     1      120.279076      656.234761
         6         7         8     1      120.230911      690.945694
         6         7        20     1      122.875160      539.135750
         7         8         9     1      120.490700      614.719657
         7         8        32     1      119.442589      370.222551
         7        20        21     1      108.003647      632.058141
         7        20        22     1      108.003647      632.058141
         7        20        23     1      103.544395      643.527367
         8         7        20     1      117.108604      533.249638
         8         9        10     1      119.668617      702.206665
         8         9        33     1      120.741478      422.255593
         9         8        32     1      120.542442      398.465445
         9        10        11     1      120.996071      528.557577
        10         9        33     1      119.735863      429.447673
        10        11        12     1      118.772202      431.725583
        11        12        13     1      119.322159      518.676887
        11        12        19     1      119.615601      500.976988
        12        13        14     1      118.171036      766.741494
        12        13        34     1      121.308182      417.404883
        12        19        17     1      118.959595      688.354954
        12        19        36     1      120.280678      422.219011
        13        12        19     1      120.802040      630.818314
        13        14        15     1      118.343826      541.971774
        13        14        16     1      122.953712      628.021298
        14        13        34     1      120.554909      416.906303
        14        16        17     1      117.516953      637.448450
        14        16        35     1      120.746925      422.893797
        15        14        16     1      118.731651      524.645196
        16        17        18     1      119.386719      476.745240
        16        17        19     1      121.187233      684.585996
        17        16        35     1      121.582848      413.830549
        17        18        26     1      179.655121      167.360000
        17        19        36     1      120.651222      407.470181
        18        17        19     1      119.288147      472.497366
        20        23        37     1      107.865311      563.860907
        20        23        38     1      107.865311      563.860907
        20        23        39     1      107.865311      563.860907
        21        20        22     1      120.529579      735.112060
        21        20        23     1      107.401512      727.988548
        22        20        23     1      107.401512      727.988548
        24         3        25     1      106.000198      743.264080
        27         1        28     1      106.799057      423.882275
        30         4        31     1      107.746216      357.059001
        37        23        38     1      111.062515      345.412483
        37        23        39     1      111.062515      345.412452
        38        23        39     1      111.062515      345.412483

[ dihedrals ] ; propers for gromacs 4.5 or higher, use funct 9
;       ai        aj        ak        al funct           phase               k        pn
         1         2         3         4     9        0.000000       -0.683112         1
         1         2         3         4     9      180.000000        1.203437         2
         1         2         3         4     9        0.000000        0.661443         3
         1         2         3         4     9      180.000000        0.116616         4
         1         2         3        24     9        0.000000        0.852116         1
         1         2         3        24     9      180.000000        0.873827         2
         1         2         3        24     9        0.000000        0.785242         3
         1         2         3        24     9      180.000000       -0.132169         4
         1         2         3        25     9        0.000000        0.852116         1
         1         2         3        25     9      180.000000        0.873827         2
         1         2         3        25     9        0.000000        0.785242         3
         1         2         3        25     9      180.000000       -0.132169         4
         1         2         6         5     9        0.000000       -0.470900         1
         1         2         6         5     9      180.000000        3.093970         2
         1         2         6         5     9        0.000000        0.135381         3
         1         2         6         5     9      180.000000        1.508643         4
         1         2         6         7     9        0.000000       -1.253610         1
         1         2         6         7     9      180.000000        2.387033         2
         1         2         6         7     9        0.000000        0.309542         3
         1         2         6         7     9      180.000000        0.438491         4
         2         3         4         5     9        0.000000       -1.423725         1
         2         3         4         5     9      180.000000        4.885015         2
         2         3         4         5     9        0.000000       -0.147643         3
         2         3         4         5     9      180.000000       -1.363878         4
         2         3         4        30     9        0.000000        0.020425         1
         2         3         4        30     9      180.000000       -0.020131         2
         2         3         4        30     9        0.000000        0.089169         3
         2         3         4        30     9      180.000000        0.054347         4
         2         3         4        31     9        0.000000        0.020425         1
         2         3         4        31     9      180.000000       -0.020131         2
         2         3         4        31     9        0.000000        0.089170         3
         2         3         4        31     9      180.000000        0.054348         4
         2         6         5         4     9        0.000000       -0.040307         1
         2         6         5         4     9      180.000000       17.782415         2
         2         6         5         4     9        0.000000       -2.405830         3
         2         6         5         4     9      180.000000       -0.308617         4
         2         6         5        10     9        0.000000        0.012994         1
         2         6         5        10     9      180.000000       14.291974         2
         2         6         5        10     9        0.000000       -1.182459         3
         2         6         5        10     9      180.000000       -0.247773         4
         2         6         7         8     9        0.000000       -0.189818         1
         2         6         7         8     9      180.000000       13.270900         2
         2         6         7         8     9        0.000000       -0.218496         3
         2         6         7         8     9      180.000000       -0.237961         4
         2         6         7        20     9        0.000000       -0.194668         1
         2         6         7        20     9      180.000000        9.722809         2
         2         6         7        20     9        0.000000        0.390814         3
         2         6         7        20     9      180.000000       -0.393043         4
         3         2         1        27     9        0.000000        0.996636         1
         3         2         1        27     9      180.000000       -2.910698         2
         3         2         1        27     9        0.000000        0.541184         3
         3         2         1        27     9      180.000000       -0.016666         4
         3         2         1        28     9        0.000000        0.996636         1
         3         2         1        28     9      180.000000       -2.910698         2
         3         2         1        28     9        0.000000        0.541184         3
         3         2         1        28     9      180.000000       -0.016666         4
         3         2         6         5     9        0.000000       -1.653077         1
         3         2         6         5     9      180.000000       12.962150         2
         3         2         6         5     9        0.000000       -1.310167         3
         3         2         6         5     9      180.000000        0.072688         4
         3         2         6         7     9        0.000000       -1.350044         1
         3         2         6         7     9      180.000000        1.583790         2
         3         2         6         7     9        0.000000       -0.064526         3
         3         2         6         7     9      180.000000        0.940130         4
         3         4         5         6     9        0.000000       -0.982959         1
         3         4         5         6     9      180.000000       13.440289         2
         3         4         5         6     9        0.000000       -1.974722         3
         3         4         5         6     9      180.000000       -0.915715         4
         3         4         5        10     9        0.000000        0.577810         1
         3         4         5        10     9      180.000000        0.589675         2
         3         4         5        10     9        0.000000       -0.109907         3
         3         4         5        10     9      180.000000        0.557368         4
         4         3         2         6     9        0.000000       -1.325010         1
         4         3         2         6     9      180.000000        4.679302         2
         4         3         2         6     9        0.000000        0.033175         3
         4         3         2         6     9      180.000000       -1.361289         4
         4         3         2        29     9        0.000000        0.021225         1
         4         3         2        29     9      180.000000        0.159124         2
         4         3         2        29     9        0.000000        0.407773         3
         4         3         2        29     9      180.000000       -0.046762         4
         4         5         6         7     9        0.000000       -0.175481         1
         4         5         6         7     9      180.000000       13.905167         2
         4         5         6         7     9        0.000000       -1.159869         3
         4         5         6         7     9      180.000000       -0.110276         4
         4         5        10         9     9        0.000000       -0.206128         1
         4         5        10         9     9      180.000000       12.471292         2
         4         5        10         9     9        0.000000       -0.139822         3
         4         5        10         9     9      180.000000       -0.043679         4
         4         5        10        11     9        0.000000       -0.235120         1
         4         5        10        11     9      180.000000       15.744495         2
         4         5        10        11     9        0.000000        0.101328         3
         4         5        10        11     9      180.000000       -0.302176         4
         5         4         3        24     9        0.000000        0.331519         1
         5         4         3        24     9      180.000000        0.182223         2
         5         4         3        24     9        0.000000        0.395617         3
         5         4         3        24     9      180.000000        0.156108         4
         5         4         3        25     9        0.000000        0.331519         1
         5         4         3        25     9      180.000000        0.182223         2
         5         4         3        25     9        0.000000        0.395617         3
         5         4         3        25     9      180.000000        0.156108         4
         5         6         2        29     9        0.000000        0.826263         1
         5         6         2        29     9      180.000000        1.476638         2
         5         6         2        29     9        0.000000       -0.435802         3
         5         6         2        29     9      180.000000        0.639434         4
         5         6         7         8     9        0.000000        0.018880         1
         5         6         7         8     9      180.000000       18.944469         2
         5         6         7         8     9        0.000000       -1.968507         3
         5         6         7         8     9      180.000000       -0.353617         4
         5         6         7        20     9        0.000000       -0.217606         1
         5         6         7        20     9      180.000000       11.250767         2
         5         6         7        20     9        0.000000       -0.022190         3
         5         6         7        20     9      180.000000       -0.451469         4
         5        10         9         8     9        0.000000       -0.137355         1
         5        10         9         8     9      180.000000       17.742098         2
         5        10         9         8     9        0.000000       -1.228205         3
         5        10         9         8     9      180.000000       -0.409671         4
         5        10         9        33     9        0.000000       -0.027476         1
         5        10         9        33     9      180.000000       13.399627         2
         5        10         9        33     9        0.000000       -0.412499         3
         5        10         9        33     9      180.000000        0.020772         4
         5        10        11        12     9        0.000000       -0.123944         1
         5        10        11        12     9      180.000000        3.567519         2
         5        10        11        12     9        0.000000        0.427980         3
         5        10        11        12     9      180.000000        0.099835         4
         6         2         1        27     9        0.000000        3.525494         1
         6         2         1        27     9      180.000000       -1.151601         2
         6         2         1        27     9        0.000000        0.908710         3
         6         2         1        27     9      180.000000        0.085267         4
         6         2         1        28     9        0.000000        3.525494         1
         6         2         1        28     9      180.000000       -1.151601         2
         6         2         1        28     9        0.000000        0.908710         3
         6         2         1        28     9      180.000000        0.085267         4
         6         2         3        24     9        0.000000        0.564034         1
         6         2         3        24     9      180.000000        0.452474         2
         6         2         3        24     9        0.000000        0.337500         3
         6         2         3        24     9      180.000000        0.193659         4
         6         2         3        25     9        0.000000        0.564034         1
         6         2         3        25     9      180.000000        0.452474         2
         6         2         3        25     9        0.000000        0.337500         3
         6         2         3        25     9      180.000000        0.193659         4
         6         5         4        30     9        0.000000        0.045358         1
         6         5         4        30     9      180.000000       -0.083341         2
         6         5         4        30     9        0.000000       -0.438901         3
         6         5         4        30     9      180.000000        0.344377         4
         6         5         4        31     9        0.000000        0.045358         1
         6         5         4        31     9      180.000000       -0.083341         2
         6         5         4        31     9        0.000000       -0.438900         3
         6         5         4        31     9      180.000000        0.344377         4
         6         5        10         9     9        0.000000       -0.019559         1
         6         5        10         9     9      180.000000       17.190590         2
         6         5        10         9     9        0.000000       -1.163910         3
         6         5        10         9     9      180.000000       -0.517711         4
         6         5        10        11     9        0.000000        0.317691         1
         6         5        10        11     9      180.000000       17.690164         2
         6         5        10        11     9        0.000000        0.260066         3
         6         5        10        11     9      180.000000       -0.642142         4
         6         7         8         9     9        0.000000       -0.044549         1
         6         7         8         9     9      180.000000       19.453128         2
         6         7         8         9     9        0.000000       -1.793762         3
         6         7         8         9     9      180.000000       -0.509763         4
         6         7         8        32     9        0.000000        0.040228         1
         6         7         8        32     9      180.000000       14.884014         2
         6         7         8        32     9        0.000000       -0.527176         3
         6         7         8        32     9      180.000000       -0.009103         4
         6         7        20        21     9        0.000000       -0.292486         1
         6         7        20        21     9      180.000000        0.533539         2
         6         7        20        21     9        0.000000        0.811800         3
         6         7        20        21     9      180.000000       -0.268188         4
         6         7        20        22     9        0.000000       -0.292486         1
         6         7        20        22     9      180.000000        0.533539         2
         6         7        20        22     9        0.000000        0.811800         3
         6         7        20        22     9      180.000000       -0.268188         4
         6         7        20        23     9        0.000000        2.386155         1
         6         7        20        23     9      180.000000       -1.680053         2
         6         7        20        23     9        0.000000        0.750019         3
         6         7        20        23     9      180.000000        0.174453         4
         7         6         2        29     9        0.000000        0.558786         1
         7         6         2        29     9      180.000000        0.603531         2
         7         6         2        29     9        0.000000       -0.164261         3
         7         6         2        29     9      180.000000        0.151048         4
         7         6         5        10     9        0.000000       -0.201915         1
         7         6         5        10     9      180.000000       14.892773         2
         7         6         5        10     9        0.000000       -1.616814         3
         7         6         5        10     9      180.000000       -0.251535         4
         7         8         9        10     9        0.000000       -0.276690         1
         7         8         9        10     9      180.000000       18.453231         2
         7         8         9        10     9        0.000000       -1.830194         3
         7         8         9        10     9      180.000000       -0.473791         4
         7         8         9        33     9        0.000000        0.077882         1
         7         8         9        33     9      180.000000       14.320243         2
         7         8         9        33     9        0.000000       -0.639395         3
         7         8         9        33     9      180.000000        0.050473         4
         7        20        23        37     9        0.000000        0.010807         1
         7        20        23        37     9      180.000000       -0.135558         2
         7        20        23        37     9        0.000000        0.287415         3
         7        20        23        37     9      180.000000       -0.004977         4
         7        20        23        38     9        0.000000        0.010807         1
         7        20        23        38     9      180.000000       -0.135558         2
         7        20        23        38     9        0.000000        0.287415         3
         7        20        23        38     9      180.000000       -0.004977         4
         7        20        23        39     9        0.000000        0.010807         1
         7        20        23        39     9      180.000000       -0.135558         2
         7        20        23        39     9        0.000000        0.287415         3
         7        20        23        39     9      180.000000       -0.004977         4
         8         7        20        21     9        0.000000        0.000995         1
         8         7        20        21     9      180.000000        0.857302         2
         8         7        20        21     9        0.000000       -0.241111         3
         8         7        20        21     9      180.000000        0.049206         4
         8         7        20        22     9        0.000000        0.000995         1
         8         7        20        22     9      180.000000        0.857302         2
         8         7        20        22     9        0.000000       -0.241111         3
         8         7        20        22     9      180.000000        0.049206         4
         8         7        20        23     9        0.000000       -0.065023         1
         8         7        20        23     9      180.000000       -0.937582         2
         8         7        20        23     9        0.000000       -0.172920         3
         8         7        20        23     9      180.000000        0.400478         4
         8         9        10        11     9        0.000000        0.618250         1
         8         9        10        11     9      180.000000       19.288897         2
         8         9        10        11     9        0.000000        0.427948         3
         8         9        10        11     9      180.000000       -0.268958         4
         9         8         7        20     9        0.000000       -0.156027         1
         9         8         7        20     9      180.000000       13.672143         2
         9         8         7        20     9        0.000000        0.094614         3
         9         8         7        20     9      180.000000       -0.340763         4
         9        10        11        12     9        0.000000        0.001149         1
         9        10        11        12     9      180.000000        4.399241         2
         9        10        11        12     9        0.000000       -0.388465         3
         9        10        11        12     9      180.000000        0.307537         4
        10         5         4        30     9        0.000000        0.096592         1
        10         5         4        30     9      180.000000        0.112066         2
        10         5         4        30     9        0.000000        0.046059         3
        10         5         4        30     9      180.000000        0.075430         4
        10         5         4        31     9        0.000000        0.096593         1
        10         5         4        31     9      180.000000        0.112066         2
        10         5         4        31     9        0.000000        0.046059         3
        10         5         4        31     9      180.000000        0.075431         4
        10         9         8        32     9        0.000000        0.220356         1
        10         9         8        32     9      180.000000       14.577163         2
        10         9         8        32     9        0.000000       -0.459851         3
        10         9         8        32     9      180.000000        0.086512         4
        10        11        12        13     9        0.000000        0.010988         1
        10        11        12        13     9      180.000000        5.014360         2
        10        11        12        13     9        0.000000       -0.105964         3
        10        11        12        13     9      180.000000        0.266653         4
        10        11        12        19     9        0.000000        0.057804         1
        10        11        12        19     9      180.000000        5.013404         2
        10        11        12        19     9        0.000000       -0.129420         3
        10        11        12        19     9      180.000000        0.291010         4
        11        10         9        33     9        0.000000        0.188471         1
        11        10         9        33     9      180.000000       14.117537         2
        11        10         9        33     9        0.000000        0.059336         3
        11        10         9        33     9      180.000000        0.375293         4
        11        12        13        14     9        0.000000        0.439834         1
        11        12        13        14     9      180.000000       17.679830         2
        11        12        13        14     9        0.000000        0.518615         3
        11        12        13        14     9      180.000000       -0.304267         4
        11        12        13        34     9        0.000000        0.247031         1
        11        12        13        34     9      180.000000       13.315015         2
        11        12        13        34     9        0.000000       -0.057326         3
        11        12        13        34     9      180.000000        0.357953         4
        11        12        19        17     9        0.000000        0.414466         1
        11        12        19        17     9      180.000000       17.167011         2
        11        12        19        17     9        0.000000        0.430918         3
        11        12        19        17     9      180.000000       -0.092908         4
        11        12        19        36     9        0.000000        0.203641         1
        11        12        19        36     9      180.000000       13.434097         2
        11        12        19        36     9        0.000000       -0.034857         3
        11        12        19        36     9      180.000000        0.337343         4
        12        13        14        15     9        0.000000        0.459528         1
        12        13        14        15     9      180.000000       22.775544         2
        12        13        14        15     9        0.000000        0.620336         3
        12        13        14        15     9      180.000000       -0.895479         4
        12        13        14        16     9        0.000000       -0.037834         1
        12        13        14        16     9      180.000000       16.924316         2
        12        13        14        16     9        0.000000       -1.235725         3
        12        13        14        16     9      180.000000       -0.383379         4
        12        19        17        16     9        0.000000       -0.147115         1
        12        19        17        16     9      180.000000       18.104643         2
        12        19        17        16     9        0.000000       -1.723479         3
        12        19        17        16     9      180.000000       -0.396032         4
        12        19        17        18     9        0.000000       -0.086532         1
        12        19        17        18     9      180.000000       16.262249         2
        12        19        17        18     9        0.000000       -0.126424         3
        12        19        17        18     9      180.000000       -0.295179         4
        13        12        19        17     9        0.000000       -0.151288         1
        13        12        19        17     9      180.000000       16.720497         2
        13        12        19        17     9        0.000000       -0.954879         3
        13        12        19        17     9      180.000000       -0.285399         4
        13        12        19        36     9        0.000000        0.129425         1
        13        12        19        36     9      180.000000       12.822899         2
        13        12        19        36     9        0.000000       -0.471795         3
        13        12        19        36     9      180.000000        0.176763         4
        13        14        16        17     9        0.000000       -0.213127         1
        13        14        16        17     9      180.000000       17.562477         2
        13        14        16        17     9        0.000000       -1.146983         3
        13        14        16        17     9      180.000000       -0.459047         4
        13        14        16        35     9        0.000000        0.012917         1
        13        14        16        35     9      180.000000       13.202101         2
        13        14        16        35     9        0.000000       -0.546497         3
        13        14        16        35     9      180.000000        0.094661         4
        14        13        12        19     9        0.000000       -0.098513         1
        14        13        12        19     9      180.000000       16.419685         2
        14        13        12        19     9        0.000000       -1.019756         3
        14        13        12        19     9      180.000000       -0.197813         4
        14        16        17        18     9        0.000000        0.094774         1
        14        16        17        18     9      180.000000       16.943641         2
        14        16        17        18     9        0.000000       -0.003519         3
        14        16        17        18     9      180.000000       -0.413924         4
        14        16        17        19     9        0.000000       -0.159527         1
        14        16        17        19     9      180.000000       18.380973         2
        14        16        17        19     9        0.000000       -1.728032         3
        14        16        17        19     9      180.000000       -0.402124         4
        15        14        13        34     9        0.000000        0.330038         1
        15        14        13        34     9      180.000000       15.871795         2
        15        14        13        34     9        0.000000        0.248138         3
        15        14        13        34     9      180.000000        0.119632         4
        15        14        16        17     9        0.000000        0.384623         1
        15        14        16        17     9      180.000000       22.626144         2
        15        14        16        17     9        0.000000        0.654396         3
        15        14        16        17     9      180.000000       -0.714402         4
        15        14        16        35     9        0.000000        0.323706         1
        15        14        16        35     9      180.000000       15.967908         2
        15        14        16        35     9        0.000000        0.305032         3
        15        14        16        35     9      180.000000        0.124130         4
        16        14        13        34     9        0.000000        0.166901         1
        16        14        13        34     9      180.000000       12.714126         2
        16        14        13        34     9        0.000000       -0.506238         3
        16        14        13        34     9      180.000000        0.156592         4
        16        17        18        26     9        0.000000        0.000000         1
        16        17        18        26     9      180.000000        0.000000         2
        16        17        18        26     9        0.000000        0.000000         3
        16        17        18        26     9      180.000000        0.000000         4
        16        17        19        36     9        0.000000       -0.033626         1
        16        17        19        36     9      180.000000       14.163344         2
        16        17        19        36     9        0.000000       -0.688105         3
        16        17        19        36     9      180.000000        0.029301         4
        18        17        16        35     9        0.000000        0.029971         1
        18        17        16        35     9      180.000000       12.807836         2
        18        17        16        35     9        0.000000       -0.300729         3
        18        17        16        35     9      180.000000        0.113751         4
        18        17        19        36     9        0.000000        0.024029         1
        18        17        19        36     9      180.000000       12.824091         2
        18        17        19        36     9        0.000000       -0.314228         3
        18        17        19        36     9      180.000000        0.157371         4
        19        12        13        34     9        0.000000        0.123404         1
        19        12        13        34     9      180.000000       12.520774         2
        19        12        13        34     9        0.000000       -0.483970         3
        19        12        13        34     9      180.000000        0.186258         4
        19        17        16        35     9        0.000000       -0.016357         1
        19        17        16        35     9      180.000000       14.310019         2
        19        17        16        35     9        0.000000       -0.696961         3
        19        17        16        35     9      180.000000        0.020091         4
        19        17        18        26     9        0.000000        0.000000         1
        19        17        18        26     9      180.000000        0.000000         2
        19        17        18        26     9        0.000000        0.000000         3
        19        17        18        26     9      180.000000        0.000000         4
        20         7         8        32     9        0.000000        0.355485         1
        20         7         8        32     9      180.000000       12.116981         2
        20         7         8        32     9        0.000000       -0.187284         3
        20         7         8        32     9      180.000000       -0.043119         4
        21        20        23        37     9        0.000000        0.059750         1
        21        20        23        37     9      180.000000       -0.041016         2
        21        20        23        37     9        0.000000        0.366984         3
        21        20        23        37     9      180.000000        0.002866         4
        21        20        23        38     9        0.000000        0.059750         1
        21        20        23        38     9      180.000000       -0.041016         2
        21        20        23        38     9        0.000000        0.366984         3
        21        20        23        38     9      180.000000        0.002866         4
        21        20        23        39     9        0.000000        0.059750         1
        21        20        23        39     9      180.000000       -0.041016         2
        21        20        23        39     9        0.000000        0.366984         3
        21        20        23        39     9      180.000000        0.002866         4
        22        20        23        37     9        0.000000        0.059750         1
        22        20        23        37     9      180.000000       -0.041016         2
        22        20        23        37     9        0.000000        0.366984         3
        22        20        23        37     9      180.000000        0.002866         4
        22        20        23        38     9        0.000000        0.059750         1
        22        20        23        38     9      180.000000       -0.041016         2
        22        20        23        38     9        0.000000        0.366984         3
        22        20        23        38     9      180.000000        0.002866         4
        22        20        23        39     9        0.000000        0.059750         1
        22        20        23        39     9      180.000000       -0.041016         2
        22        20        23        39     9        0.000000        0.366984         3
        22        20        23        39     9      180.000000        0.002866         4
        24         3         2        29     9        0.000000       -0.152341         1
        24         3         2        29     9      180.000000        0.104913         2
        24         3         2        29     9        0.000000        0.517019         3
        24         3         2        29     9      180.000000        0.025729         4
        24         3         4        30     9        0.000000        0.047316         1
        24         3         4        30     9      180.000000       -0.033975         2
        24         3         4        30     9        0.000000        0.495160         3
        24         3         4        30     9      180.000000       -0.043080         4
        24         3         4        31     9        0.000000        0.047316         1
        24         3         4        31     9      180.000000       -0.033975         2
        24         3         4        31     9        0.000000        0.495160         3
        24         3         4        31     9      180.000000       -0.043081         4
        25         3         2        29     9        0.000000       -0.152341         1
        25         3         2        29     9      180.000000        0.104913         2
        25         3         2        29     9        0.000000        0.517019         3
        25         3         2        29     9      180.000000        0.025729         4
        25         3         4        30     9        0.000000        0.047316         1
        25         3         4        30     9      180.000000       -0.033975         2
        25         3         4        30     9        0.000000        0.495160         3
        25         3         4        30     9      180.000000       -0.043080         4
        25         3         4        31     9        0.000000        0.047316         1
        25         3         4        31     9      180.000000       -0.033975         2
        25         3         4        31     9        0.000000        0.495160         3
        25         3         4        31     9      180.000000       -0.043081         4
        27         1         2        29     9        0.000000       -0.983776         1
        27         1         2        29     9      180.000000        0.792506         2
        27         1         2        29     9        0.000000        0.813471         3
        27         1         2        29     9      180.000000        0.107918         4
        28         1         2        29     9        0.000000       -0.983776         1
        28         1         2        29     9      180.000000        0.792506         2
        28         1         2        29     9        0.000000        0.813471         3
        28         1         2        29     9      180.000000        0.107918         4
        32         8         9        33     9        0.000000       -0.056667         1
        32         8         9        33     9      180.000000       12.514562         2
        32         8         9        33     9        0.000000       -0.867612         3
        32         8         9        33     9      180.000000        0.240636         4

[ dihedrals ] ; impropers
;       ai        aj        ak        al funct           phase               k        pn
        14        13        15        16     4      180.000000        1.740412         2
        14        15        16        13     4      180.000000        1.740412         2
        14        16        13        15     4      180.000000        1.740412         2

[ pairs ]
;       ai        aj funct
         1         4     1
         1         5     1
         1         7     1
         1        24     1
         1        25     1
         2         8     1
         2        10     1
         2        20     1
         2        30     1
         2        31     1
         3         7     1
         3        10     1
         3        27     1
         3        28     1
         4         7     1
         4         9     1
         4        11     1
         4        29     1
         5         8     1
         5        12     1
         5        20     1
         5        24     1
         5        25     1
         5        29     1
         5        33     1
         6         9     1
         6        11     1
         6        21     1
         6        22     1
         6        23     1
         6        24     1
         6        25     1
         6        27     1
         6        28     1
         6        30     1
         6        31     1
         6        32     1
         7        10     1
         7        29     1
         7        33     1
         7        37     1
         7        38     1
         7        39     1
         8        11     1
         8        21     1
         8        22     1
         8        23     1
         9        12     1
         9        20     1
        10        13     1
        10        19     1
        10        30     1
        10        31     1
        10        32     1
        11        14     1
        11        17     1
        11        33     1
        11        34     1
        11        36     1
        12        15     1
        12        16     1
        12        18     1
        13        17     1
        13        35     1
        13        36     1
        14        18     1
        14        19     1
        15        17     1
        15        34     1
        15        35     1
        16        26     1
        16        34     1
        16        36     1
        18        35     1
        18        36     1
        19        26     1
        19        34     1
        19        35     1
        20        32     1
        21        37     1
        21        38     1
        21        39     1
        22        37     1
        22        38     1
        22        39     1
        24        29     1
        24        30     1
        24        31     1
        25        29     1
        25        30     1
        25        31     1
        27        29     1
        28        29     1
        32        33     1
