; ITP file created by ByteFF-ML, 2026-02-21 07:40:37.249540

[ atomtypes ]
;name           bonded.type        at.num        mass        charge   ptype           sigma         epsilon
 o0bf                                   8      0.0000       0.00000       A     3.23829e-01     3.88924e-01
 c1bf                                   6      0.0000       0.00000       A     3.40155e-01     4.48409e-01
 c2bf                                   6      0.0000       0.00000       A     3.39806e-01     4.53836e-01
 c3bf                                   6      0.0000       0.00000       A     3.39919e-01     4.53552e-01
 c4bf                                   6      0.0000       0.00000       A     3.31691e-01     4.12736e-01
 c5bf                                   6      0.0000       0.00000       A     3.31635e-01     4.12518e-01
 c6bf                                   6      0.0000       0.00000       A     3.31287e-01     4.12704e-01
 c7bf                                   6      0.0000       0.00000       A     3.31361e-01     4.13455e-01
 c8bf                                   6      0.0000       0.00000       A     3.31334e-01     4.13082e-01
 c9bf                                   6      0.0000       0.00000       A     3.31551e-01     4.12804e-01
 o10bf                                  8      0.0000       0.00000       A     3.15848e-01     3.06354e-01
 c11bf                                  6      0.0000       0.00000       A     3.31461e-01     4.12807e-01
 c12bf                                  6      0.0000       0.00000       A     3.31497e-01     4.13743e-01
 c13bf                                  6      0.0000       0.00000       A     3.31573e-01     4.14252e-01
 f14bf                                  9      0.0000       0.00000       A     3.03468e-01     3.48235e-01
 c15bf                                  6      0.0000       0.00000       A     3.31552e-01     4.14123e-01
 c16bf                                  6      0.0000       0.00000       A     3.31534e-01     4.14279e-01
 c17bf                                  6      0.0000       0.00000       A     3.48195e-01     6.71490e-01
 c18bf                                  6      0.0000       0.00000       A     3.31496e-01     4.14341e-01
 s19bf                                 16      0.0000       0.00000       A     4.05767e-01     2.58289e-01
 o20bf                                  8      0.0000       0.00000       A     3.05024e-01     6.11172e-01
 o21bf                                  8      0.0000       0.00000       A     3.05024e-01     6.11172e-01
 c22bf                                  6      0.0000       0.00000       A     3.40534e-01     4.53127e-01
 f23bf                                  9      0.0000       0.00000       A     3.03598e-01     3.48417e-01
 f24bf                                  9      0.0000       0.00000       A     3.03598e-01     3.48417e-01
 n25bf                                  7      0.0000       0.00000       A     3.27424e-01     4.58548e-01
 cl26bf                                17      0.0000       0.00000       A     3.46956e-01     1.10813e+00
 h27bf                                  1      0.0000       0.00000       A     5.36710e-02     1.95151e-02
 h28bf                                  1      0.0000       0.00000       A     2.41570e-01     8.63936e-02
 h29bf                                  1      0.0000       0.00000       A     2.60031e-01     8.68485e-02
 h30bf                                  1      0.0000       0.00000       A     2.60031e-01     8.68485e-02
 h31bf                                  1      0.0000       0.00000       A     2.62720e-01     6.76047e-02
 h32bf                                  1      0.0000       0.00000       A     2.62431e-01     6.72328e-02
 h33bf                                  1      0.0000       0.00000       A     2.62432e-01     6.69886e-02
 h34bf                                  1      0.0000       0.00000       A     2.62464e-01     6.71849e-02
 h35bf                                  1      0.0000       0.00000       A     2.62428e-01     6.73733e-02
 h36bf                                  1      0.0000       0.00000       A     2.25969e-01     8.90543e-02
 h37bf                                  1      0.0000       0.00000       A     2.25969e-01     8.90543e-02

[ moleculetype ]
;name             nrexcl
 215                   3

[ atoms ]
;       nr            type      resi   res      atom      cgnr      charge          mass ; qtot
         1            o0bf         1   UNL        o0         1    -0.64391       15.9990 ; qtot   -0.644
         2            c1bf         1   UNL        c1         2     0.18363       12.0110 ; qtot   -0.460
         3            c2bf         1   UNL        c2         3     0.15503       12.0110 ; qtot   -0.305
         4            c3bf         1   UNL        c3         4    -0.06008       12.0110 ; qtot   -0.365
         5            c4bf         1   UNL        c4         5    -0.09878       12.0110 ; qtot   -0.464
         6            c5bf         1   UNL        c5         6     0.00354       12.0110 ; qtot   -0.461
         7            c6bf         1   UNL        c6         7    -0.22288       12.0110 ; qtot   -0.683
         8            c7bf         1   UNL        c7         8     0.01054       12.0110 ; qtot   -0.673
         9            c8bf         1   UNL        c8         9    -0.15238       12.0110 ; qtot   -0.825
        10            c9bf         1   UNL        c9        10     0.14670       12.0110 ; qtot   -0.679
        11           o10bf         1   UNL       o10        11    -0.24267       15.9990 ; qtot   -0.921
        12           c11bf         1   UNL       c11        12     0.15070       12.0110 ; qtot   -0.771
        13           c12bf         1   UNL       c12        13    -0.16635       12.0110 ; qtot   -0.937
        14           c13bf         1   UNL       c13        14     0.19192       12.0110 ; qtot   -0.745
        15           f14bf         1   UNL       f14        15    -0.16215       18.9980 ; qtot   -0.907
        16           c15bf         1   UNL       c15        16    -0.13469       12.0110 ; qtot   -1.042
        17           c16bf         1   UNL       c16        17     0.04075       12.0110 ; qtot   -1.001
        18           c17bf         1   UNL       c17        18     0.31339       12.0110 ; qtot   -0.688
        19           c18bf         1   UNL       c18        19    -0.11736       12.0110 ; qtot   -0.805
        20           s19bf         1   UNL       s19        20     0.99866       32.0670 ; qtot    0.194
        21           o20bf         1   UNL       o20        21    -0.49372       15.9990 ; qtot   -0.300
        22           o21bf         1   UNL       o21        22    -0.49372       15.9990 ; qtot   -0.794
        23           c22bf         1   UNL       c22        23    -0.06293       12.0110 ; qtot   -0.857
        24           f23bf         1   UNL       f23        24    -0.10126       18.9980 ; qtot   -0.958
        25           f24bf         1   UNL       f24        25    -0.10126       18.9980 ; qtot   -1.059
        26           n25bf         1   UNL       n25        26    -0.43909       14.0070 ; qtot   -1.498
        27          cl26bf         1   UNL      cl26        27    -0.20004       35.4530 ; qtot   -1.698
        28           h27bf         1   UNL       h27        28     0.46187        1.0080 ; qtot   -1.237
        29           h28bf         1   UNL       h28        29     0.09424        1.0080 ; qtot   -1.142
        30           h29bf         1   UNL       h29        30     0.09046        1.0080 ; qtot   -1.052
        31           h30bf         1   UNL       h30        31     0.09046        1.0080 ; qtot   -0.961
        32           h31bf         1   UNL       h31        32     0.14870        1.0080 ; qtot   -0.813
        33           h32bf         1   UNL       h32        33     0.13696        1.0080 ; qtot   -0.676
        34           h33bf         1   UNL       h33        34     0.15329        1.0080 ; qtot   -0.522
        35           h34bf         1   UNL       h34        35     0.14757        1.0080 ; qtot   -0.375
        36           h35bf         1   UNL       h35        36     0.14589        1.0080 ; qtot   -0.229
        37           h36bf         1   UNL       h36        37     0.11449        1.0080 ; qtot   -0.114
        38           h37bf         1   UNL       h37        38     0.11448        1.0080 ; qtot    0.000

[ bonds ]
;       ai        aj funct               r               k
         1         2     1        0.142089   213175.719336
         1        28     1        0.097160   464731.313574
         2         3     1        0.155081   154333.290674
         2         6     1        0.151888   172091.068726
         2        29     1        0.109501   296513.675293
         3         4     1        0.153347   171559.079663
         3        24     1        0.137650   224399.891797
         3        25     1        0.137650   224399.891797
         4         5     1        0.151012   191627.672437
         4        30     1        0.109299   306936.288965
         4        31     1        0.109299   306936.288965
         5         6     1        0.139847   281173.686914
         5        10     1        0.139546   294819.568994
         6         7     1        0.139883   291705.037598
         7         8     1        0.139857   298619.695166
         7        20     1        0.180109   126773.335791
         8         9     1        0.139473   319732.398193
         8        32     1        0.108389   327250.242285
         9        10     1        0.139916   293970.996387
         9        33     1        0.108424   325013.881006
        10        11     1        0.138436   237751.101172
        11        12     1        0.137421   250794.179785
        12        13     1        0.139961   293934.708154
        12        19     1        0.139702   295896.749805
        13        14     1        0.139111   310051.892920
        13        34     1        0.108374   328151.165967
        14        15     1        0.135083   300333.720410
        14        16     1        0.138892   307835.578271
        16        17     1        0.140515   294475.124463
        16        35     1        0.108386   329357.334717
        17        18     1        0.143765   270871.863770
        17        19     1        0.140387   298138.014209
        18        26     1        0.116512  1108338.024805
        19        36     1        0.108395   327534.189404
        20        21     1        0.147029   509363.898633
        20        22     1        0.147029   509363.898633
        20        23     1        0.184645   127084.556543
        23        27     1        0.178410   137699.183740
        23        37     1        0.108914   323660.337598
        23        38     1        0.108914   323660.337598

[ angles ]
;       ai        aj        ak funct           theta             cth
         1         2         3     1      112.810814      504.488564
         1         2         6     1      112.466515      634.689740
         1         2        29     1      108.656921      411.490871
         2         1        28     1      107.962692      571.596608
         2         3         4     1      107.597389      448.756217
         2         3        24     1      110.369896      538.766547
         2         3        25     1      110.369896      538.766547
         2         6         5     1      110.079956      407.967420
         2         6         7     1      129.555466      417.024156
         3         2         6     1      101.931992      557.861602
         3         2        29     1      108.538002      462.332255
         3         4         5     1      102.386635      561.213028
         3         4        30     1      110.204872      490.175876
         3         4        31     1      110.204872      490.175876
         4         3        24     1      111.618088      567.835311
         4         3        25     1      111.618088      567.835311
         4         5         6     1      111.710304      376.275517
         4         5        10     1      127.936508      423.123025
         5         4        30     1      112.423706      451.867914
         5         4        31     1      112.423706      451.867914
         5         6         7     1      119.590736      622.981295
         5        10         9     1      119.993675      670.718515
         5        10        11     1      118.782387      416.829117
         6         2        29     1      111.617775      426.723087
         6         5        10     1      120.161110      665.454870
         6         7         8     1      120.166893      689.825636
         6         7        20     1      122.399925      541.394316
         7         8         9     1      120.331039      609.618172
         7         8        32     1      119.706642      369.358886
         7        20        21     1      108.549767      630.364839
         7        20        22     1      108.549767      630.364839
         7        20        23     1      103.269485      591.735045
         8         7        20     1      117.436073      534.571726
         8         9        10     1      119.799194      705.643194
         8         9        33     1      120.685646      421.229576
         9         8        32     1      120.578018      398.297762
         9        10        11     1      121.095520      530.219405
        10         9        33     1      119.696922      429.475508
        10        11        12     1      118.801376      430.087409
        11        12        13     1      119.322159      518.676887
        11        12        19     1      119.615601      500.976988
        12        13        14     1      118.171036      766.741494
        12        13        34     1      121.308182      417.404883
        12        19        17     1      118.959595      688.354954
        12        19        36     1      120.280678      422.219011
        13        12        19     1      120.802040      630.818314
        13        14        15     1      118.343826      541.971774
        13        14        16     1      122.953712      628.021298
        14        13        34     1      120.554909      416.906303
        14        16        17     1      117.516953      637.448450
        14        16        35     1      120.746925      422.893797
        15        14        16     1      118.731651      524.645196
        16        17        18     1      119.386719      476.745240
        16        17        19     1      121.187233      684.585996
        17        16        35     1      121.582848      413.830549
        17        18        26     1      179.655121      167.360000
        17        19        36     1      120.651222      407.470181
        18        17        19     1      119.288147      472.497366
        20        23        27     1      112.366623      529.101422
        20        23        37     1      106.813782      532.849855
        20        23        38     1      106.813782      532.849855
        21        20        22     1      120.933167      725.627578
        21        20        23     1      106.435684      616.599124
        22        20        23     1      106.435684      616.599124
        24         3        25     1      106.171570      726.740804
        27        23        37     1      109.149574      408.484260
        27        23        38     1      109.149574      408.484260
        30         4        31     1      107.711754      357.271981
        37        23        38     1      111.411499      326.950526

[ dihedrals ] ; propers for gromacs 4.5 or higher, use funct 9
;       ai        aj        ak        al funct           phase               k        pn
         1         2         3         4     9        0.000000       -2.316051         1
         1         2         3         4     9      180.000000        1.227582         2
         1         2         3         4     9        0.000000        0.447916         3
         1         2         3         4     9      180.000000       -0.134155         4
         1         2         3        24     9        0.000000        0.925729         1
         1         2         3        24     9      180.000000        0.198236         2
         1         2         3        24     9        0.000000        0.694412         3
         1         2         3        24     9      180.000000       -0.120878         4
         1         2         3        25     9        0.000000        0.925729         1
         1         2         3        25     9      180.000000        0.198236         2
         1         2         3        25     9        0.000000        0.694412         3
         1         2         3        25     9      180.000000       -0.120878         4
         1         2         6         5     9        0.000000       -2.816229         1
         1         2         6         5     9      180.000000        3.207901         2
         1         2         6         5     9        0.000000        0.261491         3
         1         2         6         5     9      180.000000        1.248414         4
         1         2         6         7     9        0.000000       -0.983179         1
         1         2         6         7     9      180.000000        2.527657         2
         1         2         6         7     9        0.000000        0.070622         3
         1         2         6         7     9      180.000000        0.456837         4
         2         3         4         5     9        0.000000       -0.920327         1
         2         3         4         5     9      180.000000        4.722876         2
         2         3         4         5     9        0.000000       -0.153619         3
         2         3         4         5     9      180.000000       -1.127137         4
         2         3         4        30     9        0.000000        0.020287         1
         2         3         4        30     9      180.000000        0.002269         2
         2         3         4        30     9        0.000000        0.073985         3
         2         3         4        30     9      180.000000        0.044940         4
         2         3         4        31     9        0.000000        0.020287         1
         2         3         4        31     9      180.000000        0.002269         2
         2         3         4        31     9        0.000000        0.073985         3
         2         3         4        31     9      180.000000        0.044940         4
         2         6         5         4     9        0.000000       -0.153799         1
         2         6         5         4     9      180.000000       18.999741         2
         2         6         5         4     9        0.000000       -2.779279         3
         2         6         5         4     9      180.000000       -0.444733         4
         2         6         5        10     9        0.000000        0.063139         1
         2         6         5        10     9      180.000000       14.785063         2
         2         6         5        10     9        0.000000       -1.414393         3
         2         6         5        10     9      180.000000       -0.349783         4
         2         6         7         8     9        0.000000       -0.018517         1
         2         6         7         8     9      180.000000       14.009631         2
         2         6         7         8     9        0.000000       -0.028264         3
         2         6         7         8     9      180.000000       -0.446474         4
         2         6         7        20     9        0.000000       -0.202228         1
         2         6         7        20     9      180.000000        9.624039         2
         2         6         7        20     9        0.000000        0.484204         3
         2         6         7        20     9      180.000000       -0.492812         4
         3         2         1        28     9        0.000000        1.285396         1
         3         2         1        28     9      180.000000       -3.328465         2
         3         2         1        28     9        0.000000        0.697280         3
         3         2         1        28     9      180.000000        0.165302         4
         3         2         6         5     9        0.000000       -0.651081         1
         3         2         6         5     9      180.000000       13.690075         2
         3         2         6         5     9        0.000000       -1.382098         3
         3         2         6         5     9      180.000000       -0.191267         4
         3         2         6         7     9        0.000000       -0.771051         1
         3         2         6         7     9      180.000000        1.807791         2
         3         2         6         7     9        0.000000       -0.173535         3
         3         2         6         7     9      180.000000        0.888369         4
         3         4         5         6     9        0.000000       -0.669975         1
         3         4         5         6     9      180.000000       13.014978         2
         3         4         5         6     9        0.000000       -1.985788         3
         3         4         5         6     9      180.000000       -0.713148         4
         3         4         5        10     9        0.000000        0.744579         1
         3         4         5        10     9      180.000000        0.850537         2
         3         4         5        10     9        0.000000       -0.120015         3
         3         4         5        10     9      180.000000        0.560066         4
         4         3         2         6     9        0.000000       -0.980394         1
         4         3         2         6     9      180.000000        5.139986         2
         4         3         2         6     9        0.000000       -0.082991         3
         4         3         2         6     9      180.000000       -1.624667         4
         4         3         2        29     9        0.000000       -0.231699         1
         4         3         2        29     9      180.000000        0.281539         2
         4         3         2        29     9        0.000000        0.367337         3
         4         3         2        29     9      180.000000       -0.065595         4
         4         5         6         7     9        0.000000       -0.271736         1
         4         5         6         7     9      180.000000       13.734274         2
         4         5         6         7     9        0.000000       -1.358053         3
         4         5         6         7     9      180.000000       -0.081994         4
         4         5        10         9     9        0.000000       -0.200842         1
         4         5        10         9     9      180.000000       12.558635         2
         4         5        10         9     9        0.000000       -0.129322         3
         4         5        10         9     9      180.000000       -0.064886         4
         4         5        10        11     9        0.000000       -0.264645         1
         4         5        10        11     9      180.000000       15.816694         2
         4         5        10        11     9        0.000000        0.151765         3
         4         5        10        11     9      180.000000       -0.343676         4
         5         4         3        24     9        0.000000        0.329691         1
         5         4         3        24     9      180.000000        0.109473         2
         5         4         3        24     9        0.000000        0.398011         3
         5         4         3        24     9      180.000000        0.211076         4
         5         4         3        25     9        0.000000        0.329691         1
         5         4         3        25     9      180.000000        0.109473         2
         5         4         3        25     9        0.000000        0.398011         3
         5         4         3        25     9      180.000000        0.211076         4
         5         6         2        29     9        0.000000        1.136838         1
         5         6         2        29     9      180.000000        0.765494         2
         5         6         2        29     9        0.000000       -0.316417         3
         5         6         2        29     9      180.000000        0.654200         4
         5         6         7         8     9        0.000000        0.090549         1
         5         6         7         8     9      180.000000       18.850189         2
         5         6         7         8     9        0.000000       -1.804529         3
         5         6         7         8     9      180.000000       -0.419799         4
         5         6         7        20     9        0.000000       -0.302429         1
         5         6         7        20     9      180.000000       11.129393         2
         5         6         7        20     9        0.000000       -0.012881         3
         5         6         7        20     9      180.000000       -0.463855         4
         5        10         9         8     9        0.000000       -0.116712         1
         5        10         9         8     9      180.000000       17.663741         2
         5        10         9         8     9        0.000000       -1.211328         3
         5        10         9         8     9      180.000000       -0.422642         4
         5        10         9        33     9        0.000000       -0.020368         1
         5        10         9        33     9      180.000000       13.417529         2
         5        10         9        33     9        0.000000       -0.402825         3
         5        10         9        33     9      180.000000        0.028412         4
         5        10        11        12     9        0.000000       -0.140295         1
         5        10        11        12     9      180.000000        3.609871         2
         5        10        11        12     9        0.000000        0.431686         3
         5        10        11        12     9      180.000000        0.110571         4
         6         2         1        28     9        0.000000        5.658360         1
         6         2         1        28     9      180.000000       -2.637818         2
         6         2         1        28     9        0.000000        0.882112         3
         6         2         1        28     9      180.000000        0.134549         4
         6         2         3        24     9        0.000000        0.301746         1
         6         2         3        24     9      180.000000        0.329130         2
         6         2         3        24     9        0.000000        0.320242         3
         6         2         3        24     9      180.000000        0.199332         4
         6         2         3        25     9        0.000000        0.301746         1
         6         2         3        25     9      180.000000        0.329130         2
         6         2         3        25     9        0.000000        0.320242         3
         6         2         3        25     9      180.000000        0.199332         4
         6         5         4        30     9        0.000000        0.050049         1
         6         5         4        30     9      180.000000       -0.025868         2
         6         5         4        30     9        0.000000       -0.463038         3
         6         5         4        30     9      180.000000        0.384186         4
         6         5         4        31     9        0.000000        0.050049         1
         6         5         4        31     9      180.000000       -0.025868         2
         6         5         4        31     9        0.000000       -0.463038         3
         6         5         4        31     9      180.000000        0.384186         4
         6         5        10         9     9        0.000000       -0.012000         1
         6         5        10         9     9      180.000000       17.030395         2
         6         5        10         9     9        0.000000       -1.112427         3
         6         5        10         9     9      180.000000       -0.476700         4
         6         5        10        11     9        0.000000        0.335805         1
         6         5        10        11     9      180.000000       17.722513         2
         6         5        10        11     9        0.000000        0.291056         3
         6         5        10        11     9      180.000000       -0.619704         4
         6         7         8         9     9        0.000000       -0.070888         1
         6         7         8         9     9      180.000000       19.762151         2
         6         7         8         9     9        0.000000       -1.728102         3
         6         7         8         9     9      180.000000       -0.558488         4
         6         7         8        32     9        0.000000        0.063136         1
         6         7         8        32     9      180.000000       14.599252         2
         6         7         8        32     9        0.000000       -0.479565         3
         6         7         8        32     9      180.000000       -0.027910         4
         6         7        20        21     9        0.000000       -0.054584         1
         6         7        20        21     9      180.000000        0.683945         2
         6         7        20        21     9        0.000000        0.670733         3
         6         7        20        21     9      180.000000       -0.180414         4
         6         7        20        22     9        0.000000       -0.054584         1
         6         7        20        22     9      180.000000        0.683945         2
         6         7        20        22     9        0.000000        0.670733         3
         6         7        20        22     9      180.000000       -0.180414         4
         6         7        20        23     9        0.000000        1.598559         1
         6         7        20        23     9      180.000000       -1.792079         2
         6         7        20        23     9        0.000000        0.677070         3
         6         7        20        23     9      180.000000        0.240162         4
         7         6         2        29     9        0.000000        0.818698         1
         7         6         2        29     9      180.000000        0.297787         2
         7         6         2        29     9        0.000000       -0.046743         3
         7         6         2        29     9      180.000000        0.224038         4
         7         6         5        10     9        0.000000       -0.142153         1
         7         6         5        10     9      180.000000       14.543892         2
         7         6         5        10     9        0.000000       -1.845963         3
         7         6         5        10     9      180.000000       -0.207634         4
         7         8         9        10     9        0.000000       -0.255346         1
         7         8         9        10     9      180.000000       18.444201         2
         7         8         9        10     9        0.000000       -1.829542         3
         7         8         9        10     9      180.000000       -0.456148         4
         7         8         9        33     9        0.000000        0.052324         1
         7         8         9        33     9      180.000000       14.381753         2
         7         8         9        33     9        0.000000       -0.726283         3
         7         8         9        33     9      180.000000        0.041207         4
         7        20        23        27     9        0.000000        0.419434         1
         7        20        23        27     9      180.000000       -0.853381         2
         7        20        23        27     9        0.000000        0.634335         3
         7        20        23        27     9      180.000000        0.036292         4
         7        20        23        37     9        0.000000        0.166299         1
         7        20        23        37     9      180.000000        0.051086         2
         7        20        23        37     9        0.000000        0.439302         3
         7        20        23        37     9      180.000000       -0.024636         4
         7        20        23        38     9        0.000000        0.166299         1
         7        20        23        38     9      180.000000        0.051086         2
         7        20        23        38     9        0.000000        0.439302         3
         7        20        23        38     9      180.000000       -0.024636         4
         8         7        20        21     9        0.000000       -0.138936         1
         8         7        20        21     9      180.000000        0.886936         2
         8         7        20        21     9        0.000000       -0.054546         3
         8         7        20        21     9      180.000000        0.016087         4
         8         7        20        22     9        0.000000       -0.138936         1
         8         7        20        22     9      180.000000        0.886936         2
         8         7        20        22     9        0.000000       -0.054546         3
         8         7        20        22     9      180.000000        0.016087         4
         8         7        20        23     9        0.000000       -0.302598         1
         8         7        20        23     9      180.000000       -1.360938         2
         8         7        20        23     9        0.000000       -0.032978         3
         8         7        20        23     9      180.000000        0.219995         4
         8         9        10        11     9        0.000000        0.654297         1
         8         9        10        11     9      180.000000       19.268581         2
         8         9        10        11     9        0.000000        0.438132         3
         8         9        10        11     9      180.000000       -0.278803         4
         9         8         7        20     9        0.000000       -0.156691         1
         9         8         7        20     9      180.000000       13.437600         2
         9         8         7        20     9        0.000000        0.067301         3
         9         8         7        20     9      180.000000       -0.325243         4
         9        10        11        12     9        0.000000       -0.019099         1
         9        10        11        12     9      180.000000        4.418909         2
         9        10        11        12     9        0.000000       -0.387242         3
         9        10        11        12     9      180.000000        0.307253         4
        10         5         4        30     9        0.000000        0.060682         1
        10         5         4        30     9      180.000000        0.095287         2
        10         5         4        30     9        0.000000        0.060273         3
        10         5         4        30     9      180.000000        0.065591         4
        10         5         4        31     9        0.000000        0.060682         1
        10         5         4        31     9      180.000000        0.095287         2
        10         5         4        31     9        0.000000        0.060273         3
        10         5         4        31     9      180.000000        0.065591         4
        10         9         8        32     9        0.000000        0.190370         1
        10         9         8        32     9      180.000000       14.556106         2
        10         9         8        32     9        0.000000       -0.476016         3
        10         9         8        32     9      180.000000        0.094413         4
        10        11        12        13     9        0.000000        0.061628         1
        10        11        12        13     9      180.000000        4.970901         2
        10        11        12        13     9        0.000000       -0.107231         3
        10        11        12        13     9      180.000000        0.264917         4
        10        11        12        19     9        0.000000        0.085009         1
        10        11        12        19     9      180.000000        4.973204         2
        10        11        12        19     9        0.000000       -0.130706         3
        10        11        12        19     9      180.000000        0.288730         4
        11        10         9        33     9        0.000000        0.188711         1
        11        10         9        33     9      180.000000       14.146181         2
        11        10         9        33     9        0.000000        0.067127         3
        11        10         9        33     9      180.000000        0.374404         4
        11        12        13        14     9        0.000000        0.439834         1
        11        12        13        14     9      180.000000       17.679830         2
        11        12        13        14     9        0.000000        0.518615         3
        11        12        13        14     9      180.000000       -0.304267         4
        11        12        13        34     9        0.000000        0.247031         1
        11        12        13        34     9      180.000000       13.315015         2
        11        12        13        34     9        0.000000       -0.057326         3
        11        12        13        34     9      180.000000        0.357953         4
        11        12        19        17     9        0.000000        0.414466         1
        11        12        19        17     9      180.000000       17.167011         2
        11        12        19        17     9        0.000000        0.430918         3
        11        12        19        17     9      180.000000       -0.092908         4
        11        12        19        36     9        0.000000        0.203641         1
        11        12        19        36     9      180.000000       13.434097         2
        11        12        19        36     9        0.000000       -0.034857         3
        11        12        19        36     9      180.000000        0.337343         4
        12        13        14        15     9        0.000000        0.459528         1
        12        13        14        15     9      180.000000       22.775544         2
        12        13        14        15     9        0.000000        0.620336         3
        12        13        14        15     9      180.000000       -0.895479         4
        12        13        14        16     9        0.000000       -0.037834         1
        12        13        14        16     9      180.000000       16.924316         2
        12        13        14        16     9        0.000000       -1.235725         3
        12        13        14        16     9      180.000000       -0.383379         4
        12        19        17        16     9        0.000000       -0.147115         1
        12        19        17        16     9      180.000000       18.104643         2
        12        19        17        16     9        0.000000       -1.723479         3
        12        19        17        16     9      180.000000       -0.396032         4
        12        19        17        18     9        0.000000       -0.086532         1
        12        19        17        18     9      180.000000       16.262249         2
        12        19        17        18     9        0.000000       -0.126424         3
        12        19        17        18     9      180.000000       -0.295179         4
        13        12        19        17     9        0.000000       -0.151288         1
        13        12        19        17     9      180.000000       16.720497         2
        13        12        19        17     9        0.000000       -0.954879         3
        13        12        19        17     9      180.000000       -0.285399         4
        13        12        19        36     9        0.000000        0.129425         1
        13        12        19        36     9      180.000000       12.822899         2
        13        12        19        36     9        0.000000       -0.471795         3
        13        12        19        36     9      180.000000        0.176763         4
        13        14        16        17     9        0.000000       -0.213127         1
        13        14        16        17     9      180.000000       17.562477         2
        13        14        16        17     9        0.000000       -1.146983         3
        13        14        16        17     9      180.000000       -0.459047         4
        13        14        16        35     9        0.000000        0.012917         1
        13        14        16        35     9      180.000000       13.202101         2
        13        14        16        35     9        0.000000       -0.546497         3
        13        14        16        35     9      180.000000        0.094661         4
        14        13        12        19     9        0.000000       -0.098513         1
        14        13        12        19     9      180.000000       16.419685         2
        14        13        12        19     9        0.000000       -1.019756         3
        14        13        12        19     9      180.000000       -0.197813         4
        14        16        17        18     9        0.000000        0.094774         1
        14        16        17        18     9      180.000000       16.943641         2
        14        16        17        18     9        0.000000       -0.003519         3
        14        16        17        18     9      180.000000       -0.413924         4
        14        16        17        19     9        0.000000       -0.159527         1
        14        16        17        19     9      180.000000       18.380973         2
        14        16        17        19     9        0.000000       -1.728032         3
        14        16        17        19     9      180.000000       -0.402124         4
        15        14        13        34     9        0.000000        0.330038         1
        15        14        13        34     9      180.000000       15.871795         2
        15        14        13        34     9        0.000000        0.248138         3
        15        14        13        34     9      180.000000        0.119632         4
        15        14        16        17     9        0.000000        0.384623         1
        15        14        16        17     9      180.000000       22.626144         2
        15        14        16        17     9        0.000000        0.654396         3
        15        14        16        17     9      180.000000       -0.714402         4
        15        14        16        35     9        0.000000        0.323706         1
        15        14        16        35     9      180.000000       15.967908         2
        15        14        16        35     9        0.000000        0.305032         3
        15        14        16        35     9      180.000000        0.124130         4
        16        14        13        34     9        0.000000        0.166901         1
        16        14        13        34     9      180.000000       12.714126         2
        16        14        13        34     9        0.000000       -0.506238         3
        16        14        13        34     9      180.000000        0.156592         4
        16        17        18        26     9        0.000000        0.000000         1
        16        17        18        26     9      180.000000        0.000000         2
        16        17        18        26     9        0.000000        0.000000         3
        16        17        18        26     9      180.000000        0.000000         4
        16        17        19        36     9        0.000000       -0.033626         1
        16        17        19        36     9      180.000000       14.163344         2
        16        17        19        36     9        0.000000       -0.688105         3
        16        17        19        36     9      180.000000        0.029301         4
        18        17        16        35     9        0.000000        0.029971         1
        18        17        16        35     9      180.000000       12.807836         2
        18        17        16        35     9        0.000000       -0.300729         3
        18        17        16        35     9      180.000000        0.113751         4
        18        17        19        36     9        0.000000        0.024029         1
        18        17        19        36     9      180.000000       12.824091         2
        18        17        19        36     9        0.000000       -0.314228         3
        18        17        19        36     9      180.000000        0.157371         4
        19        12        13        34     9        0.000000        0.123404         1
        19        12        13        34     9      180.000000       12.520774         2
        19        12        13        34     9        0.000000       -0.483970         3
        19        12        13        34     9      180.000000        0.186258         4
        19        17        16        35     9        0.000000       -0.016357         1
        19        17        16        35     9      180.000000       14.310019         2
        19        17        16        35     9        0.000000       -0.696961         3
        19        17        16        35     9      180.000000        0.020091         4
        19        17        18        26     9        0.000000        0.000000         1
        19        17        18        26     9      180.000000        0.000000         2
        19        17        18        26     9        0.000000        0.000000         3
        19        17        18        26     9      180.000000        0.000000         4
        20         7         8        32     9        0.000000        0.325309         1
        20         7         8        32     9      180.000000       12.118073         2
        20         7         8        32     9        0.000000       -0.154766         3
        20         7         8        32     9      180.000000       -0.076007         4
        21        20        23        27     9        0.000000       -1.050468         1
        21        20        23        27     9      180.000000        0.636670         2
        21        20        23        27     9        0.000000        0.472256         3
        21        20        23        27     9      180.000000        0.029949         4
        21        20        23        37     9        0.000000        0.070689         1
        21        20        23        37     9      180.000000        0.061374         2
        21        20        23        37     9        0.000000        0.460968         3
        21        20        23        37     9      180.000000       -0.006510         4
        21        20        23        38     9        0.000000        0.070689         1
        21        20        23        38     9      180.000000        0.061374         2
        21        20        23        38     9        0.000000        0.460968         3
        21        20        23        38     9      180.000000       -0.006510         4
        22        20        23        27     9        0.000000       -1.050468         1
        22        20        23        27     9      180.000000        0.636670         2
        22        20        23        27     9        0.000000        0.472256         3
        22        20        23        27     9      180.000000        0.029949         4
        22        20        23        37     9        0.000000        0.070689         1
        22        20        23        37     9      180.000000        0.061374         2
        22        20        23        37     9        0.000000        0.460968         3
        22        20        23        37     9      180.000000       -0.006510         4
        22        20        23        38     9        0.000000        0.070689         1
        22        20        23        38     9      180.000000        0.061374         2
        22        20        23        38     9        0.000000        0.460968         3
        22        20        23        38     9      180.000000       -0.006510         4
        24         3         2        29     9        0.000000       -0.105367         1
        24         3         2        29     9      180.000000        0.049510         2
        24         3         2        29     9        0.000000        0.512239         3
        24         3         2        29     9      180.000000        0.003501         4
        24         3         4        30     9        0.000000        0.023670         1
        24         3         4        30     9      180.000000       -0.092713         2
        24         3         4        30     9        0.000000        0.509467         3
        24         3         4        30     9      180.000000       -0.035231         4
        24         3         4        31     9        0.000000        0.023670         1
        24         3         4        31     9      180.000000       -0.092713         2
        24         3         4        31     9        0.000000        0.509467         3
        24         3         4        31     9      180.000000       -0.035231         4
        25         3         2        29     9        0.000000       -0.105367         1
        25         3         2        29     9      180.000000        0.049510         2
        25         3         2        29     9        0.000000        0.512239         3
        25         3         2        29     9      180.000000        0.003501         4
        25         3         4        30     9        0.000000        0.023670         1
        25         3         4        30     9      180.000000       -0.092713         2
        25         3         4        30     9        0.000000        0.509467         3
        25         3         4        30     9      180.000000       -0.035231         4
        25         3         4        31     9        0.000000        0.023670         1
        25         3         4        31     9      180.000000       -0.092713         2
        25         3         4        31     9        0.000000        0.509467         3
        25         3         4        31     9      180.000000       -0.035231         4
        28         1         2        29     9        0.000000        0.165312         1
        28         1         2        29     9      180.000000       -0.087621         2
        28         1         2        29     9        0.000000        0.730153         3
        28         1         2        29     9      180.000000        0.188148         4
        32         8         9        33     9        0.000000       -0.067660         1
        32         8         9        33     9      180.000000       12.654910         2
        32         8         9        33     9        0.000000       -0.845301         3
        32         8         9        33     9      180.000000        0.244148         4

[ dihedrals ] ; impropers
;       ai        aj        ak        al funct           phase               k        pn
        14        13        15        16     4      180.000000        1.740412         2
        14        15        16        13     4      180.000000        1.740412         2
        14        16        13        15     4      180.000000        1.740412         2

[ pairs ]
;       ai        aj funct
         1         4     1
         1         5     1
         1         7     1
         1        24     1
         1        25     1
         2         8     1
         2        10     1
         2        20     1
         2        30     1
         2        31     1
         3         7     1
         3        10     1
         3        28     1
         4         7     1
         4         9     1
         4        11     1
         4        29     1
         5         8     1
         5        12     1
         5        20     1
         5        24     1
         5        25     1
         5        29     1
         5        33     1
         6         9     1
         6        11     1
         6        21     1
         6        22     1
         6        23     1
         6        24     1
         6        25     1
         6        28     1
         6        30     1
         6        31     1
         6        32     1
         7        10     1
         7        27     1
         7        29     1
         7        33     1
         7        37     1
         7        38     1
         8        11     1
         8        21     1
         8        22     1
         8        23     1
         9        12     1
         9        20     1
        10        13     1
        10        19     1
        10        30     1
        10        31     1
        10        32     1
        11        14     1
        11        17     1
        11        33     1
        11        34     1
        11        36     1
        12        15     1
        12        16     1
        12        18     1
        13        17     1
        13        35     1
        13        36     1
        14        18     1
        14        19     1
        15        17     1
        15        34     1
        15        35     1
        16        26     1
        16        34     1
        16        36     1
        18        35     1
        18        36     1
        19        26     1
        19        34     1
        19        35     1
        20        32     1
        21        27     1
        21        37     1
        21        38     1
        22        27     1
        22        37     1
        22        38     1
        24        29     1
        24        30     1
        24        31     1
        25        29     1
        25        30     1
        25        31     1
        28        29     1
        32        33     1
