; ITP file created by ByteFF-ML, 2026-02-21 07:41:30.238217

[ atomtypes ]
;name           bonded.type        at.num        mass        charge   ptype           sigma         epsilon
 o0bf                                   8      0.0000       0.00000       A     3.23882e-01     3.88798e-01
 c1bf                                   6      0.0000       0.00000       A     3.40054e-01     4.49190e-01
 c2bf                                   6      0.0000       0.00000       A     3.39708e-01     4.52551e-01
 c3bf                                   6      0.0000       0.00000       A     3.39849e-01     4.53210e-01
 c4bf                                   6      0.0000       0.00000       A     3.31745e-01     4.12246e-01
 c5bf                                   6      0.0000       0.00000       A     3.31642e-01     4.12525e-01
 c6bf                                   6      0.0000       0.00000       A     3.31254e-01     4.13379e-01
 c7bf                                   6      0.0000       0.00000       A     3.31352e-01     4.14121e-01
 c8bf                                   6      0.0000       0.00000       A     3.31334e-01     4.13082e-01
 c9bf                                   6      0.0000       0.00000       A     3.31552e-01     4.12630e-01
 o10bf                                  8      0.0000       0.00000       A     3.15848e-01     3.06354e-01
 c11bf                                  6      0.0000       0.00000       A     3.31461e-01     4.12807e-01
 c12bf                                  6      0.0000       0.00000       A     3.31497e-01     4.13743e-01
 c13bf                                  6      0.0000       0.00000       A     3.31573e-01     4.14252e-01
 f14bf                                  9      0.0000       0.00000       A     3.03468e-01     3.48235e-01
 c15bf                                  6      0.0000       0.00000       A     3.31552e-01     4.14123e-01
 c16bf                                  6      0.0000       0.00000       A     3.31534e-01     4.14279e-01
 c17bf                                  6      0.0000       0.00000       A     3.48195e-01     6.71490e-01
 c18bf                                  6      0.0000       0.00000       A     3.31496e-01     4.14341e-01
 s19bf                                 16      0.0000       0.00000       A     4.05925e-01     2.58262e-01
 o20bf                                  8      0.0000       0.00000       A     3.05136e-01     6.14715e-01
 o21bf                                  8      0.0000       0.00000       A     3.05136e-01     6.14715e-01
 c22bf                                  6      0.0000       0.00000       A     3.39605e-01     4.51520e-01
 f23bf                                  9      0.0000       0.00000       A     3.03686e-01     3.46328e-01
 n24bf                                  7      0.0000       0.00000       A     3.27424e-01     4.58548e-01
 f25bf                                  9      0.0000       0.00000       A     3.02962e-01     3.48010e-01
 f26bf                                  9      0.0000       0.00000       A     3.02962e-01     3.48010e-01
 f27bf                                  9      0.0000       0.00000       A     3.02962e-01     3.48010e-01
 h28bf                                  1      0.0000       0.00000       A     5.37016e-02     1.95981e-02
 h29bf                                  1      0.0000       0.00000       A     2.41687e-01     8.67831e-02
 h30bf                                  1      0.0000       0.00000       A     2.42038e-01     8.75476e-02
 h31bf                                  1      0.0000       0.00000       A     2.59940e-01     8.71406e-02
 h32bf                                  1      0.0000       0.00000       A     2.59940e-01     8.71406e-02
 h33bf                                  1      0.0000       0.00000       A     2.62720e-01     6.76047e-02
 h34bf                                  1      0.0000       0.00000       A     2.62431e-01     6.72328e-02
 h35bf                                  1      0.0000       0.00000       A     2.62432e-01     6.69886e-02
 h36bf                                  1      0.0000       0.00000       A     2.62464e-01     6.71849e-02
 h37bf                                  1      0.0000       0.00000       A     2.62428e-01     6.73733e-02

[ moleculetype ]
;name             nrexcl
 227                   3

[ atoms ]
;       nr            type      resi   res      atom      cgnr      charge          mass ; qtot
         1            o0bf         1   UNL        o0         1    -0.64869       15.9990 ; qtot   -0.649
         2            c1bf         1   UNL        c1         2     0.19159       12.0110 ; qtot   -0.457
         3            c2bf         1   UNL        c2         3     0.16740       12.0110 ; qtot   -0.290
         4            c3bf         1   UNL        c3         4    -0.05045       12.0110 ; qtot   -0.340
         5            c4bf         1   UNL        c4         5    -0.09745       12.0110 ; qtot   -0.438
         6            c5bf         1   UNL        c5         6     0.00986       12.0110 ; qtot   -0.428
         7            c6bf         1   UNL        c6         7    -0.22539       12.0110 ; qtot   -0.653
         8            c7bf         1   UNL        c7         8     0.01617       12.0110 ; qtot   -0.637
         9            c8bf         1   UNL        c8         9    -0.15206       12.0110 ; qtot   -0.789
        10            c9bf         1   UNL        c9        10     0.14349       12.0110 ; qtot   -0.646
        11           o10bf         1   UNL       o10        11    -0.24293       15.9990 ; qtot   -0.888
        12           c11bf         1   UNL       c11        12     0.15070       12.0110 ; qtot   -0.738
        13           c12bf         1   UNL       c12        13    -0.16635       12.0110 ; qtot   -0.904
        14           c13bf         1   UNL       c13        14     0.19192       12.0110 ; qtot   -0.712
        15           f14bf         1   UNL       f14        15    -0.16215       18.9980 ; qtot   -0.874
        16           c15bf         1   UNL       c15        16    -0.13469       12.0110 ; qtot   -1.009
        17           c16bf         1   UNL       c16        17     0.04075       12.0110 ; qtot   -0.968
        18           c17bf         1   UNL       c17        18     0.31339       12.0110 ; qtot   -0.655
        19           c18bf         1   UNL       c18        19    -0.11736       12.0110 ; qtot   -0.772
        20           s19bf         1   UNL       s19        20     0.96276       32.0670 ; qtot    0.191
        21           o20bf         1   UNL       o20        21    -0.45928       15.9990 ; qtot   -0.269
        22           o21bf         1   UNL       o21        22    -0.45928       15.9990 ; qtot   -0.728
        23           c22bf         1   UNL       c22        23     0.16659       12.0110 ; qtot   -0.561
        24           f23bf         1   UNL       f23        24    -0.25937       18.9980 ; qtot   -0.821
        25           n24bf         1   UNL       n24        25    -0.43909       14.0070 ; qtot   -1.260
        26           f25bf         1   UNL       f25        26    -0.08289       18.9980 ; qtot   -1.343
        27           f26bf         1   UNL       f26        27    -0.08289       18.9980 ; qtot   -1.426
        28           f27bf         1   UNL       f27        28    -0.08289       18.9980 ; qtot   -1.509
        29           h28bf         1   UNL       h28        29     0.45625        1.0080 ; qtot   -1.052
        30           h29bf         1   UNL       h29        30     0.08484        1.0080 ; qtot   -0.967
        31           h30bf         1   UNL       h30        31     0.07512        1.0080 ; qtot   -0.892
        32           h31bf         1   UNL       h31        32     0.07941        1.0080 ; qtot   -0.813
        33           h32bf         1   UNL       h32        33     0.07941        1.0080 ; qtot   -0.734
        34           h33bf         1   UNL       h33        34     0.14984        1.0080 ; qtot   -0.584
        35           h34bf         1   UNL       h34        35     0.13696        1.0080 ; qtot   -0.447
        36           h35bf         1   UNL       h35        36     0.15329        1.0080 ; qtot   -0.293
        37           h36bf         1   UNL       h36        37     0.14757        1.0080 ; qtot   -0.146
        38           h37bf         1   UNL       h37        38     0.14590        1.0080 ; qtot    0.000

[ bonds ]
;       ai        aj funct               r               k
         1         2     1        0.142676   207202.793750
         1        29     1        0.097138   464796.075684
         2         3     1        0.154542   156795.731982
         2         6     1        0.151956   171868.282983
         2        30     1        0.109527   294905.833350
         3         4     1        0.153775   169350.541064
         3        24     1        0.140708   207586.833569
         3        31     1        0.109234   307356.961768
         4         5     1        0.151083   190188.988306
         4        32     1        0.109388   303648.360596
         4        33     1        0.109388   303648.360596
         5         6     1        0.139844   280970.437061
         5        10     1        0.139572   294296.262549
         6         7     1        0.139882   292767.279199
         7         8     1        0.139871   299461.091846
         7        20     1        0.179133   127461.726880
         8         9     1        0.139448   319876.376416
         8        34     1        0.108389   327451.066113
         9        10     1        0.139918   294150.471191
         9        35     1        0.108424   325013.881006
        10        11     1        0.138527   236552.772314
        11        12     1        0.137421   250794.179785
        12        13     1        0.139961   293934.708154
        12        19     1        0.139702   295896.749805
        13        14     1        0.139111   310051.892920
        13        36     1        0.108374   328151.165967
        14        15     1        0.135083   300333.720410
        14        16     1        0.138892   307835.578271
        16        17     1        0.140515   294475.124463
        16        37     1        0.108386   329357.334717
        17        18     1        0.143765   270871.863770
        17        19     1        0.140387   298138.014209
        18        25     1        0.116512  1108338.024805
        19        38     1        0.108395   327534.189404
        20        21     1        0.146431   531792.426758
        20        22     1        0.146431   531792.426758
        20        23     1        0.190227   134210.329395
        23        26     1        0.133876   269218.718994
        23        27     1        0.133876   269218.718994
        23        28     1        0.133876   269218.718994

[ angles ]
;       ai        aj        ak funct           theta             cth
         1         2         3     1      112.076553      545.231203
         1         2         6     1      112.095848      638.885615
         1         2        30     1      108.159409      416.588078
         2         1        29     1      107.778091      574.351041
         2         3         4     1      106.203697      494.475400
         2         3        24     1      109.360512      586.854137
         2         3        31     1      110.755737      445.801255
         2         6         5     1      110.112389      403.664769
         2         6         7     1      129.756134      420.454141
         3         2         6     1      102.524887      533.506669
         3         2        30     1      109.563194      449.329015
         3         4         5     1      102.730896      543.457714
         3         4        32     1      110.933975      477.962435
         3         4        33     1      110.933975      477.962435
         4         3        24     1      110.392319      620.818684
         4         3        31     1      112.748581      425.987299
         4         5         6     1      111.527359      368.918531
         4         5        10     1      128.156815      424.368725
         5         4        32     1      111.941040      456.215160
         5         4        33     1      111.941040      456.215160
         5         6         7     1      119.419022      605.025195
         5        10         9     1      120.062302      670.752161
         5        10        11     1      118.743408      416.116472
         6         2        30     1      111.306656      429.697521
         6         5        10     1      120.162170      666.991566
         6         7         8     1      120.483971      684.865180
         6         7        20     1      122.126930      545.980972
         7         8         9     1      120.176453      591.869562
         7         8        34     1      119.825378      369.675291
         7        20        21     1      109.419678      623.786160
         7        20        22     1      109.419678      623.786160
         7        20        23     1      102.500839      448.188687
         8         7        20     1      117.372940      534.528377
         8         9        10     1      119.790733      705.485758
         8         9        35     1      120.673767      420.757682
         9         8        34     1      120.598717      398.852875
         9        10        11     1      121.043007      529.270382
        10         9        35     1      119.702965      429.237598
        10        11        12     1      118.779800      430.598503
        11        12        13     1      119.322159      518.676887
        11        12        19     1      119.615601      500.976988
        12        13        14     1      118.171036      766.741494
        12        13        36     1      121.308182      417.404883
        12        19        17     1      118.959595      688.354954
        12        19        38     1      120.280678      422.219011
        13        12        19     1      120.802040      630.818314
        13        14        15     1      118.343826      541.971774
        13        14        16     1      122.953712      628.021298
        14        13        36     1      120.554909      416.906303
        14        16        17     1      117.516953      637.448450
        14        16        37     1      120.746925      422.893797
        15        14        16     1      118.731651      524.645196
        16        17        18     1      119.386719      476.745240
        16        17        19     1      121.187233      684.585996
        17        16        37     1      121.582848      413.830549
        17        18        25     1      179.655121      167.360000
        17        19        38     1      120.651222      407.470181
        18        17        19     1      119.288147      472.497366
        20        23        26     1      109.502701      457.627458
        20        23        27     1      109.502701      457.627458
        20        23        28     1      109.502701      457.627458
        21        20        22     1      122.141808      706.229909
        21        20        23     1      104.918198      350.942736
        22        20        23     1      104.918198      350.942736
        24         3        31     1      106.464981      464.443600
        26        23        27     1      109.097572      705.605016
        26        23        28     1      109.097572      705.605016
        27        23        28     1      109.097572      705.605016
        32         4        33     1      107.379860      358.922732

[ dihedrals ] ; propers for gromacs 4.5 or higher, use funct 9
;       ai        aj        ak        al funct           phase               k        pn
         1         2         3         4     9        0.000000       -1.282025         1
         1         2         3         4     9      180.000000        0.703224         2
         1         2         3         4     9        0.000000        0.469689         3
         1         2         3         4     9      180.000000       -0.077183         4
         1         2         3        24     9        0.000000        1.478963         1
         1         2         3        24     9      180.000000       -2.411119         2
         1         2         3        24     9        0.000000        0.893152         3
         1         2         3        24     9      180.000000       -0.117928         4
         1         2         3        31     9        0.000000        0.145319         1
         1         2         3        31     9      180.000000       -0.122641         2
         1         2         3        31     9        0.000000        0.693439         3
         1         2         3        31     9      180.000000       -0.016019         4
         1         2         6         5     9        0.000000       -2.620060         1
         1         2         6         5     9      180.000000        3.184326         2
         1         2         6         5     9        0.000000        0.218099         3
         1         2         6         5     9      180.000000        1.252219         4
         1         2         6         7     9        0.000000       -1.010147         1
         1         2         6         7     9      180.000000        2.637295         2
         1         2         6         7     9        0.000000       -0.021568         3
         1         2         6         7     9      180.000000        0.537290         4
         2         3         4         5     9        0.000000       -0.468139         1
         2         3         4         5     9      180.000000        5.011316         2
         2         3         4         5     9        0.000000       -0.144218         3
         2         3         4         5     9      180.000000       -1.599629         4
         2         3         4        32     9        0.000000        0.014334         1
         2         3         4        32     9      180.000000        0.017567         2
         2         3         4        32     9        0.000000        0.066436         3
         2         3         4        32     9      180.000000        0.087075         4
         2         3         4        33     9        0.000000        0.014334         1
         2         3         4        33     9      180.000000        0.017567         2
         2         3         4        33     9        0.000000        0.066436         3
         2         3         4        33     9      180.000000        0.087075         4
         2         6         5         4     9        0.000000       -0.096797         1
         2         6         5         4     9      180.000000       19.866502         2
         2         6         5         4     9        0.000000       -3.007613         3
         2         6         5         4     9      180.000000       -0.502491         4
         2         6         5        10     9        0.000000        0.061436         1
         2         6         5        10     9      180.000000       14.822975         2
         2         6         5        10     9        0.000000       -1.426618         3
         2         6         5        10     9      180.000000       -0.361938         4
         2         6         7         8     9        0.000000       -0.038281         1
         2         6         7         8     9      180.000000       13.827400         2
         2         6         7         8     9        0.000000        0.007400         3
         2         6         7         8     9      180.000000       -0.401967         4
         2         6         7        20     9        0.000000       -0.259640         1
         2         6         7        20     9      180.000000        9.343878         2
         2         6         7        20     9        0.000000        0.422134         3
         2         6         7        20     9      180.000000       -0.448044         4
         3         2         1        29     9        0.000000        2.251856         1
         3         2         1        29     9      180.000000       -2.851958         2
         3         2         1        29     9        0.000000        0.803560         3
         3         2         1        29     9      180.000000        0.202467         4
         3         2         6         5     9        0.000000       -0.780463         1
         3         2         6         5     9      180.000000       13.317538         2
         3         2         6         5     9        0.000000       -1.312244         3
         3         2         6         5     9      180.000000       -0.236370         4
         3         2         6         7     9        0.000000       -1.227521         1
         3         2         6         7     9      180.000000        1.591837         2
         3         2         6         7     9        0.000000       -0.184527         3
         3         2         6         7     9      180.000000        0.756991         4
         3         4         5         6     9        0.000000       -0.741275         1
         3         4         5         6     9      180.000000       12.759954         2
         3         4         5         6     9        0.000000       -1.835878         3
         3         4         5         6     9      180.000000       -0.736749         4
         3         4         5        10     9        0.000000        0.493363         1
         3         4         5        10     9      180.000000        0.917502         2
         3         4         5        10     9        0.000000       -0.085900         3
         3         4         5        10     9      180.000000        0.551456         4
         4         3         2         6     9        0.000000       -0.847313         1
         4         3         2         6     9      180.000000        4.478998         2
         4         3         2         6     9        0.000000       -0.006448         3
         4         3         2         6     9      180.000000       -1.615456         4
         4         3         2        30     9        0.000000       -0.223968         1
         4         3         2        30     9      180.000000        0.183459         2
         4         3         2        30     9        0.000000        0.381643         3
         4         3         2        30     9      180.000000       -0.140578         4
         4         5         6         7     9        0.000000       -0.289210         1
         4         5         6         7     9      180.000000       13.992891         2
         4         5         6         7     9        0.000000       -1.529834         3
         4         5         6         7     9      180.000000       -0.086550         4
         4         5        10         9     9        0.000000       -0.124014         1
         4         5        10         9     9      180.000000       12.435533         2
         4         5        10         9     9        0.000000       -0.110988         3
         4         5        10         9     9      180.000000       -0.074424         4
         4         5        10        11     9        0.000000       -0.298851         1
         4         5        10        11     9      180.000000       15.684594         2
         4         5        10        11     9        0.000000        0.091076         3
         4         5        10        11     9      180.000000       -0.308842         4
         5         4         3        24     9        0.000000       -0.302704         1
         5         4         3        24     9      180.000000       -0.349681         2
         5         4         3        24     9        0.000000        0.457128         3
         5         4         3        24     9      180.000000        0.271305         4
         5         4         3        31     9        0.000000        0.408465         1
         5         4         3        31     9      180.000000        0.072769         2
         5         4         3        31     9        0.000000        0.378311         3
         5         4         3        31     9      180.000000        0.051980         4
         5         6         2        30     9        0.000000        0.877496         1
         5         6         2        30     9      180.000000        0.588110         2
         5         6         2        30     9        0.000000       -0.264047         3
         5         6         2        30     9      180.000000        0.634459         4
         5         6         7         8     9        0.000000        0.034870         1
         5         6         7         8     9      180.000000       18.744484         2
         5         6         7         8     9        0.000000       -1.829311         3
         5         6         7         8     9      180.000000       -0.381359         4
         5         6         7        20     9        0.000000       -0.630793         1
         5         6         7        20     9      180.000000       10.717399         2
         5         6         7        20     9        0.000000       -0.081242         3
         5         6         7        20     9      180.000000       -0.452120         4
         5        10         9         8     9        0.000000       -0.097341         1
         5        10         9         8     9      180.000000       17.607490         2
         5        10         9         8     9        0.000000       -1.219025         3
         5        10         9         8     9      180.000000       -0.406929         4
         5        10         9        35     9        0.000000       -0.016574         1
         5        10         9        35     9      180.000000       13.390404         2
         5        10         9        35     9        0.000000       -0.386542         3
         5        10         9        35     9      180.000000        0.027089         4
         5        10        11        12     9        0.000000       -0.110949         1
         5        10        11        12     9      180.000000        3.509364         2
         5        10        11        12     9        0.000000        0.466523         3
         5        10        11        12     9      180.000000        0.104261         4
         6         2         1        29     9        0.000000        5.253337         1
         6         2         1        29     9      180.000000       -2.908295         2
         6         2         1        29     9        0.000000        0.876366         3
         6         2         1        29     9      180.000000        0.178768         4
         6         2         3        24     9        0.000000       -0.345005         1
         6         2         3        24     9      180.000000       -0.236443         2
         6         2         3        24     9        0.000000        0.408509         3
         6         2         3        24     9      180.000000        0.224378         4
         6         2         3        31     9        0.000000        0.392828         1
         6         2         3        31     9      180.000000        0.171620         2
         6         2         3        31     9        0.000000        0.374490         3
         6         2         3        31     9      180.000000       -0.036588         4
         6         5         4        32     9        0.000000        0.010236         1
         6         5         4        32     9      180.000000       -0.053142         2
         6         5         4        32     9        0.000000       -0.442392         3
         6         5         4        32     9      180.000000        0.360210         4
         6         5         4        33     9        0.000000        0.010236         1
         6         5         4        33     9      180.000000       -0.053142         2
         6         5         4        33     9        0.000000       -0.442392         3
         6         5         4        33     9      180.000000        0.360210         4
         6         5        10         9     9        0.000000        0.000354         1
         6         5        10         9     9      180.000000       16.979307         2
         6         5        10         9     9        0.000000       -1.139972         3
         6         5        10         9     9      180.000000       -0.462105         4
         6         5        10        11     9        0.000000        0.333183         1
         6         5        10        11     9      180.000000       17.584453         2
         6         5        10        11     9        0.000000        0.295125         3
         6         5        10        11     9      180.000000       -0.585186         4
         6         7         8         9     9        0.000000       -0.054682         1
         6         7         8         9     9      180.000000       19.713170         2
         6         7         8         9     9        0.000000       -1.799899         3
         6         7         8         9     9      180.000000       -0.534647         4
         6         7         8        34     9        0.000000        0.074304         1
         6         7         8        34     9      180.000000       14.739985         2
         6         7         8        34     9        0.000000       -0.536267         3
         6         7         8        34     9      180.000000       -0.039341         4
         6         7        20        21     9        0.000000       -0.060684         1
         6         7        20        21     9      180.000000        0.911694         2
         6         7        20        21     9        0.000000        0.495813         3
         6         7        20        21     9      180.000000       -0.119706         4
         6         7        20        22     9        0.000000       -0.060684         1
         6         7        20        22     9      180.000000        0.911694         2
         6         7        20        22     9        0.000000        0.495813         3
         6         7        20        22     9      180.000000       -0.119706         4
         6         7        20        23     9        0.000000        2.067494         1
         6         7        20        23     9      180.000000       -3.057841         2
         6         7        20        23     9        0.000000        0.469730         3
         6         7        20        23     9      180.000000        0.159450         4
         7         6         2        30     9        0.000000        0.709300         1
         7         6         2        30     9      180.000000        0.180415         2
         7         6         2        30     9        0.000000       -0.077386         3
         7         6         2        30     9      180.000000        0.276276         4
         7         6         5        10     9        0.000000       -0.079571         1
         7         6         5        10     9      180.000000       14.974969         2
         7         6         5        10     9        0.000000       -1.899498         3
         7         6         5        10     9      180.000000       -0.254586         4
         7         8         9        10     9        0.000000       -0.171179         1
         7         8         9        10     9      180.000000       18.671172         2
         7         8         9        10     9        0.000000       -1.903737         3
         7         8         9        10     9      180.000000       -0.457085         4
         7         8         9        35     9        0.000000        0.053819         1
         7         8         9        35     9      180.000000       14.500811         2
         7         8         9        35     9        0.000000       -0.755145         3
         7         8         9        35     9      180.000000        0.031633         4
         7        20        23        26     9        0.000000       -0.194763         1
         7        20        23        26     9      180.000000       -0.206982         2
         7        20        23        26     9        0.000000        0.204144         3
         7        20        23        26     9      180.000000        0.009496         4
         7        20        23        27     9        0.000000       -0.194763         1
         7        20        23        27     9      180.000000       -0.206982         2
         7        20        23        27     9        0.000000        0.204144         3
         7        20        23        27     9      180.000000        0.009496         4
         7        20        23        28     9        0.000000       -0.194763         1
         7        20        23        28     9      180.000000       -0.206982         2
         7        20        23        28     9        0.000000        0.204144         3
         7        20        23        28     9      180.000000        0.009496         4
         8         7        20        21     9        0.000000       -0.042132         1
         8         7        20        21     9      180.000000        1.076258         2
         8         7        20        21     9        0.000000        0.043950         3
         8         7        20        21     9      180.000000       -0.023632         4
         8         7        20        22     9        0.000000       -0.042132         1
         8         7        20        22     9      180.000000        1.076258         2
         8         7        20        22     9        0.000000        0.043950         3
         8         7        20        22     9      180.000000       -0.023632         4
         8         7        20        23     9        0.000000        0.404427         1
         8         7        20        23     9      180.000000       -2.195289         2
         8         7        20        23     9        0.000000       -0.023482         3
         8         7        20        23     9      180.000000        0.153973         4
         8         9        10        11     9        0.000000        0.680376         1
         8         9        10        11     9      180.000000       19.173729         2
         8         9        10        11     9        0.000000        0.466264         3
         8         9        10        11     9      180.000000       -0.266843         4
         9         8         7        20     9        0.000000       -0.265341         1
         9         8         7        20     9      180.000000       13.319955         2
         9         8         7        20     9        0.000000        0.004736         3
         9         8         7        20     9      180.000000       -0.283153         4
         9        10        11        12     9        0.000000       -0.011950         1
         9        10        11        12     9      180.000000        4.389122         2
         9        10        11        12     9        0.000000       -0.384120         3
         9        10        11        12     9      180.000000        0.305668         4
        10         5         4        32     9        0.000000        0.040841         1
        10         5         4        32     9      180.000000       -0.011028         2
        10         5         4        32     9        0.000000        0.070053         3
        10         5         4        32     9      180.000000        0.077228         4
        10         5         4        33     9        0.000000        0.040841         1
        10         5         4        33     9      180.000000       -0.011028         2
        10         5         4        33     9        0.000000        0.070053         3
        10         5         4        33     9      180.000000        0.077228         4
        10         9         8        34     9        0.000000        0.178222         1
        10         9         8        34     9      180.000000       14.638238         2
        10         9         8        34     9        0.000000       -0.479112         3
        10         9         8        34     9      180.000000        0.082694         4
        10        11        12        13     9        0.000000        0.048783         1
        10        11        12        13     9      180.000000        5.010500         2
        10        11        12        13     9        0.000000       -0.107309         3
        10        11        12        13     9      180.000000        0.262221         4
        10        11        12        19     9        0.000000        0.079165         1
        10        11        12        19     9      180.000000        5.010496         2
        10        11        12        19     9        0.000000       -0.130942         3
        10        11        12        19     9      180.000000        0.287359         4
        11        10         9        35     9        0.000000        0.196242         1
        11        10         9        35     9      180.000000       14.114555         2
        11        10         9        35     9        0.000000        0.070337         3
        11        10         9        35     9      180.000000        0.379064         4
        11        12        13        14     9        0.000000        0.439834         1
        11        12        13        14     9      180.000000       17.679830         2
        11        12        13        14     9        0.000000        0.518615         3
        11        12        13        14     9      180.000000       -0.304267         4
        11        12        13        36     9        0.000000        0.247031         1
        11        12        13        36     9      180.000000       13.315015         2
        11        12        13        36     9        0.000000       -0.057326         3
        11        12        13        36     9      180.000000        0.357953         4
        11        12        19        17     9        0.000000        0.414466         1
        11        12        19        17     9      180.000000       17.167011         2
        11        12        19        17     9        0.000000        0.430918         3
        11        12        19        17     9      180.000000       -0.092908         4
        11        12        19        38     9        0.000000        0.203641         1
        11        12        19        38     9      180.000000       13.434097         2
        11        12        19        38     9        0.000000       -0.034857         3
        11        12        19        38     9      180.000000        0.337343         4
        12        13        14        15     9        0.000000        0.459528         1
        12        13        14        15     9      180.000000       22.775544         2
        12        13        14        15     9        0.000000        0.620336         3
        12        13        14        15     9      180.000000       -0.895479         4
        12        13        14        16     9        0.000000       -0.037834         1
        12        13        14        16     9      180.000000       16.924316         2
        12        13        14        16     9        0.000000       -1.235725         3
        12        13        14        16     9      180.000000       -0.383379         4
        12        19        17        16     9        0.000000       -0.147115         1
        12        19        17        16     9      180.000000       18.104643         2
        12        19        17        16     9        0.000000       -1.723479         3
        12        19        17        16     9      180.000000       -0.396032         4
        12        19        17        18     9        0.000000       -0.086532         1
        12        19        17        18     9      180.000000       16.262249         2
        12        19        17        18     9        0.000000       -0.126424         3
        12        19        17        18     9      180.000000       -0.295179         4
        13        12        19        17     9        0.000000       -0.151288         1
        13        12        19        17     9      180.000000       16.720497         2
        13        12        19        17     9        0.000000       -0.954879         3
        13        12        19        17     9      180.000000       -0.285399         4
        13        12        19        38     9        0.000000        0.129425         1
        13        12        19        38     9      180.000000       12.822899         2
        13        12        19        38     9        0.000000       -0.471795         3
        13        12        19        38     9      180.000000        0.176763         4
        13        14        16        17     9        0.000000       -0.213127         1
        13        14        16        17     9      180.000000       17.562477         2
        13        14        16        17     9        0.000000       -1.146983         3
        13        14        16        17     9      180.000000       -0.459047         4
        13        14        16        37     9        0.000000        0.012917         1
        13        14        16        37     9      180.000000       13.202101         2
        13        14        16        37     9        0.000000       -0.546497         3
        13        14        16        37     9      180.000000        0.094661         4
        14        13        12        19     9        0.000000       -0.098513         1
        14        13        12        19     9      180.000000       16.419685         2
        14        13        12        19     9        0.000000       -1.019756         3
        14        13        12        19     9      180.000000       -0.197813         4
        14        16        17        18     9        0.000000        0.094774         1
        14        16        17        18     9      180.000000       16.943641         2
        14        16        17        18     9        0.000000       -0.003519         3
        14        16        17        18     9      180.000000       -0.413924         4
        14        16        17        19     9        0.000000       -0.159527         1
        14        16        17        19     9      180.000000       18.380973         2
        14        16        17        19     9        0.000000       -1.728032         3
        14        16        17        19     9      180.000000       -0.402124         4
        15        14        13        36     9        0.000000        0.330038         1
        15        14        13        36     9      180.000000       15.871795         2
        15        14        13        36     9        0.000000        0.248138         3
        15        14        13        36     9      180.000000        0.119632         4
        15        14        16        17     9        0.000000        0.384623         1
        15        14        16        17     9      180.000000       22.626144         2
        15        14        16        17     9        0.000000        0.654396         3
        15        14        16        17     9      180.000000       -0.714402         4
        15        14        16        37     9        0.000000        0.323706         1
        15        14        16        37     9      180.000000       15.967908         2
        15        14        16        37     9        0.000000        0.305032         3
        15        14        16        37     9      180.000000        0.124130         4
        16        14        13        36     9        0.000000        0.166901         1
        16        14        13        36     9      180.000000       12.714126         2
        16        14        13        36     9        0.000000       -0.506238         3
        16        14        13        36     9      180.000000        0.156592         4
        16        17        18        25     9        0.000000        0.000000         1
        16        17        18        25     9      180.000000        0.000000         2
        16        17        18        25     9        0.000000        0.000000         3
        16        17        18        25     9      180.000000        0.000000         4
        16        17        19        38     9        0.000000       -0.033626         1
        16        17        19        38     9      180.000000       14.163344         2
        16        17        19        38     9        0.000000       -0.688105         3
        16        17        19        38     9      180.000000        0.029301         4
        18        17        16        37     9        0.000000        0.029971         1
        18        17        16        37     9      180.000000       12.807836         2
        18        17        16        37     9        0.000000       -0.300729         3
        18        17        16        37     9      180.000000        0.113751         4
        18        17        19        38     9        0.000000        0.024029         1
        18        17        19        38     9      180.000000       12.824091         2
        18        17        19        38     9        0.000000       -0.314228         3
        18        17        19        38     9      180.000000        0.157371         4
        19        12        13        36     9        0.000000        0.123404         1
        19        12        13        36     9      180.000000       12.520774         2
        19        12        13        36     9        0.000000       -0.483970         3
        19        12        13        36     9      180.000000        0.186258         4
        19        17        16        37     9        0.000000       -0.016357         1
        19        17        16        37     9      180.000000       14.310019         2
        19        17        16        37     9        0.000000       -0.696961         3
        19        17        16        37     9      180.000000        0.020091         4
        19        17        18        25     9        0.000000        0.000000         1
        19        17        18        25     9      180.000000        0.000000         2
        19        17        18        25     9        0.000000        0.000000         3
        19        17        18        25     9      180.000000        0.000000         4
        20         7         8        34     9        0.000000        0.280607         1
        20         7         8        34     9      180.000000       11.728460         2
        20         7         8        34     9        0.000000       -0.308481         3
        20         7         8        34     9      180.000000       -0.032112         4
        21        20        23        26     9        0.000000        0.201334         1
        21        20        23        26     9      180.000000        0.027334         2
        21        20        23        26     9        0.000000        0.263610         3
        21        20        23        26     9      180.000000        0.122726         4
        21        20        23        27     9        0.000000        0.201334         1
        21        20        23        27     9      180.000000        0.027334         2
        21        20        23        27     9        0.000000        0.263610         3
        21        20        23        27     9      180.000000        0.122726         4
        21        20        23        28     9        0.000000        0.201334         1
        21        20        23        28     9      180.000000        0.027334         2
        21        20        23        28     9        0.000000        0.263610         3
        21        20        23        28     9      180.000000        0.122726         4
        22        20        23        26     9        0.000000        0.201334         1
        22        20        23        26     9      180.000000        0.027334         2
        22        20        23        26     9        0.000000        0.263610         3
        22        20        23        26     9      180.000000        0.122726         4
        22        20        23        27     9        0.000000        0.201334         1
        22        20        23        27     9      180.000000        0.027334         2
        22        20        23        27     9        0.000000        0.263610         3
        22        20        23        27     9      180.000000        0.122726         4
        22        20        23        28     9        0.000000        0.201334         1
        22        20        23        28     9      180.000000        0.027334         2
        22        20        23        28     9        0.000000        0.263610         3
        22        20        23        28     9      180.000000        0.122726         4
        24         3         2        30     9        0.000000        0.325998         1
        24         3         2        30     9      180.000000       -0.242516         2
        24         3         2        30     9        0.000000        0.628056         3
        24         3         2        30     9      180.000000       -0.023867         4
        24         3         4        32     9        0.000000        0.181913         1
        24         3         4        32     9      180.000000       -0.144922         2
        24         3         4        32     9        0.000000        0.551549         3
        24         3         4        32     9      180.000000       -0.061526         4
        24         3         4        33     9        0.000000        0.181913         1
        24         3         4        33     9      180.000000       -0.144922         2
        24         3         4        33     9        0.000000        0.551549         3
        24         3         4        33     9      180.000000       -0.061526         4
        29         1         2        30     9        0.000000        0.151554         1
        29         1         2        30     9      180.000000       -0.438882         2
        29         1         2        30     9        0.000000        0.800630         3
        29         1         2        30     9      180.000000        0.155090         4
        30         2         3        31     9        0.000000       -0.232965         1
        30         2         3        31     9      180.000000       -0.073481         2
        30         2         3        31     9        0.000000        0.650956         3
        30         2         3        31     9      180.000000       -0.029348         4
        31         3         4        32     9        0.000000       -0.037126         1
        31         3         4        32     9      180.000000       -0.048082         2
        31         3         4        32     9        0.000000        0.492772         3
        31         3         4        32     9      180.000000        0.022808         4
        31         3         4        33     9        0.000000       -0.037126         1
        31         3         4        33     9      180.000000       -0.048082         2
        31         3         4        33     9        0.000000        0.492772         3
        31         3         4        33     9      180.000000        0.022808         4
        34         8         9        35     9        0.000000       -0.061472         1
        34         8         9        35     9      180.000000       12.728388         2
        34         8         9        35     9        0.000000       -0.852951         3
        34         8         9        35     9      180.000000        0.229385         4

[ dihedrals ] ; impropers
;       ai        aj        ak        al funct           phase               k        pn
        14        13        15        16     4      180.000000        1.740412         2
        14        15        16        13     4      180.000000        1.740412         2
        14        16        13        15     4      180.000000        1.740412         2

[ pairs ]
;       ai        aj funct
         1         4     1
         1         5     1
         1         7     1
         1        24     1
         1        31     1
         2         8     1
         2        10     1
         2        20     1
         2        32     1
         2        33     1
         3         7     1
         3        10     1
         3        29     1
         4         7     1
         4         9     1
         4        11     1
         4        30     1
         5         8     1
         5        12     1
         5        20     1
         5        24     1
         5        30     1
         5        31     1
         5        35     1
         6         9     1
         6        11     1
         6        21     1
         6        22     1
         6        23     1
         6        24     1
         6        29     1
         6        31     1
         6        32     1
         6        33     1
         6        34     1
         7        10     1
         7        26     1
         7        27     1
         7        28     1
         7        30     1
         7        35     1
         8        11     1
         8        21     1
         8        22     1
         8        23     1
         9        12     1
         9        20     1
        10        13     1
        10        19     1
        10        32     1
        10        33     1
        10        34     1
        11        14     1
        11        17     1
        11        35     1
        11        36     1
        11        38     1
        12        15     1
        12        16     1
        12        18     1
        13        17     1
        13        37     1
        13        38     1
        14        18     1
        14        19     1
        15        17     1
        15        36     1
        15        37     1
        16        25     1
        16        36     1
        16        38     1
        18        37     1
        18        38     1
        19        25     1
        19        36     1
        19        37     1
        20        34     1
        21        26     1
        21        27     1
        21        28     1
        22        26     1
        22        27     1
        22        28     1
        24        30     1
        24        32     1
        24        33     1
        29        30     1
        30        31     1
        31        32     1
        31        33     1
        34        35     1
