; ITP file created by ByteFF-ML, 2026-02-21 07:41:24.943483

[ atomtypes ]
;name           bonded.type        at.num        mass        charge   ptype           sigma         epsilon
 o0bf                                   8      0.0000       0.00000       A     3.24066e-01     3.87414e-01
 c1bf                                   6      0.0000       0.00000       A     3.39973e-01     4.51689e-01
 c2bf                                   6      0.0000       0.00000       A     3.39813e-01     4.54428e-01
 c3bf                                   6      0.0000       0.00000       A     3.40021e-01     4.51017e-01
 c4bf                                   6      0.0000       0.00000       A     3.31726e-01     4.12957e-01
 c5bf                                   6      0.0000       0.00000       A     3.31753e-01     4.12060e-01
 c6bf                                   6      0.0000       0.00000       A     3.31324e-01     4.11969e-01
 c7bf                                   6      0.0000       0.00000       A     3.31349e-01     4.13862e-01
 c8bf                                   6      0.0000       0.00000       A     3.31334e-01     4.13082e-01
 c9bf                                   6      0.0000       0.00000       A     3.31551e-01     4.12439e-01
 o10bf                                  8      0.0000       0.00000       A     3.15825e-01     3.06080e-01
 c11bf                                  6      0.0000       0.00000       A     3.31480e-01     4.12370e-01
 c12bf                                  6      0.0000       0.00000       A     3.31471e-01     4.13591e-01
 c13bf                                  6      0.0000       0.00000       A     3.31523e-01     4.13698e-01
 f14bf                                  9      0.0000       0.00000       A     3.03477e-01     3.47249e-01
 c15bf                                  6      0.0000       0.00000       A     3.31562e-01     4.12226e-01
 c16bf                                  6      0.0000       0.00000       A     3.31523e-01     4.13698e-01
 f17bf                                  9      0.0000       0.00000       A     3.03477e-01     3.47249e-01
 c18bf                                  6      0.0000       0.00000       A     3.31471e-01     4.13591e-01
 s19bf                                 16      0.0000       0.00000       A     4.06265e-01     2.57805e-01
 o20bf                                  8      0.0000       0.00000       A     3.05144e-01     6.13663e-01
 o21bf                                  8      0.0000       0.00000       A     3.05144e-01     6.13663e-01
 c22bf                                  6      0.0000       0.00000       A     3.40010e-01     4.52743e-01
 f23bf                                  9      0.0000       0.00000       A     3.03156e-01     3.45383e-01
 f24bf                                  9      0.0000       0.00000       A     3.03156e-01     3.45383e-01
 o25bf                                  8      0.0000       0.00000       A     3.24412e-01     3.88049e-01
 h26bf                                  1      0.0000       0.00000       A     5.37442e-02     1.97801e-02
 h27bf                                  1      0.0000       0.00000       A     2.41684e-01     8.81812e-02
 h28bf                                  1      0.0000       0.00000       A     2.42674e-01     8.90623e-02
 h29bf                                  1      0.0000       0.00000       A     2.59956e-01     8.74008e-02
 h30bf                                  1      0.0000       0.00000       A     2.59956e-01     8.74008e-02
 h31bf                                  1      0.0000       0.00000       A     2.62720e-01     6.76047e-02
 h32bf                                  1      0.0000       0.00000       A     2.62431e-01     6.72328e-02
 h33bf                                  1      0.0000       0.00000       A     2.62432e-01     6.69886e-02
 h34bf                                  1      0.0000       0.00000       A     2.62457e-01     6.72600e-02
 h35bf                                  1      0.0000       0.00000       A     2.62432e-01     6.69886e-02
 h36bf                                  1      0.0000       0.00000       A     2.06402e-01     8.82802e-02
 h37bf                                  1      0.0000       0.00000       A     5.40763e-02     2.02461e-02

[ moleculetype ]
;name             nrexcl
 23                    3

[ atoms ]
;       nr            type      resi   res      atom      cgnr      charge          mass ; qtot
         1            o0bf         1   UNL        o0         1    -0.65157       15.9990 ; qtot   -0.652
         2            c1bf         1   UNL        c1         2     0.18474       12.0110 ; qtot   -0.467
         3            c2bf         1   UNL        c2         3     0.13683       12.0110 ; qtot   -0.330
         4            c3bf         1   UNL        c3         4    -0.04587       12.0110 ; qtot   -0.376
         5            c4bf         1   UNL        c4         5    -0.09429       12.0110 ; qtot   -0.470
         6            c5bf         1   UNL        c5         6     0.01562       12.0110 ; qtot   -0.455
         7            c6bf         1   UNL        c6         7    -0.23007       12.0110 ; qtot   -0.685
         8            c7bf         1   UNL        c7         8     0.01387       12.0110 ; qtot   -0.671
         9            c8bf         1   UNL        c8         9    -0.15213       12.0110 ; qtot   -0.823
        10            c9bf         1   UNL        c9        10     0.13978       12.0110 ; qtot   -0.683
        11           o10bf         1   UNL       o10        11    -0.24485       15.9990 ; qtot   -0.928
        12           c11bf         1   UNL       c11        12     0.17049       12.0110 ; qtot   -0.757
        13           c12bf         1   UNL       c12        13    -0.19455       12.0110 ; qtot   -0.952
        14           c13bf         1   UNL       c13        14     0.21416       12.0110 ; qtot   -0.738
        15           f14bf         1   UNL       f14        15    -0.16893       18.9980 ; qtot   -0.907
        16           c15bf         1   UNL       c15        16    -0.20519       12.0110 ; qtot   -1.112
        17           c16bf         1   UNL       c16        17     0.21416       12.0110 ; qtot   -0.898
        18           f17bf         1   UNL       f17        18    -0.16893       18.9980 ; qtot   -1.067
        19           c18bf         1   UNL       c18        19    -0.19455       12.0110 ; qtot   -1.261
        20           s19bf         1   UNL       s19        20     0.94319       32.0670 ; qtot   -0.318
        21           o20bf         1   UNL       o20        21    -0.47324       15.9990 ; qtot   -0.791
        22           o21bf         1   UNL       o21        22    -0.47324       15.9990 ; qtot   -1.265
        23           c22bf         1   UNL       c22        23     0.04650       12.0110 ; qtot   -1.218
        24           f23bf         1   UNL       f23        24    -0.09035       18.9980 ; qtot   -1.308
        25           f24bf         1   UNL       f24        25    -0.09035       18.9980 ; qtot   -1.399
        26           o25bf         1   UNL       o25        26    -0.66001       15.9990 ; qtot   -2.059
        27           h26bf         1   UNL       h26        27     0.45761        1.0080 ; qtot   -1.601
        28           h27bf         1   UNL       h27        28     0.07918        1.0080 ; qtot   -1.522
        29           h28bf         1   UNL       h28        29     0.06426        1.0080 ; qtot   -1.458
        30           h29bf         1   UNL       h29        30     0.07174        1.0080 ; qtot   -1.386
        31           h30bf         1   UNL       h30        31     0.07174        1.0080 ; qtot   -1.314
        32           h31bf         1   UNL       h31        32     0.14936        1.0080 ; qtot   -1.165
        33           h32bf         1   UNL       h32        33     0.13696        1.0080 ; qtot   -1.028
        34           h33bf         1   UNL       h33        34     0.15184        1.0080 ; qtot   -0.876
        35           h34bf         1   UNL       h34        35     0.15488        1.0080 ; qtot   -0.721
        36           h35bf         1   UNL       h35        36     0.15184        1.0080 ; qtot   -0.569
        37           h36bf         1   UNL       h36        37     0.10634        1.0080 ; qtot   -0.463
        38           h37bf         1   UNL       h37        38     0.46303        1.0080 ; qtot    0.000

[ bonds ]
;       ai        aj funct               r               k
         1         2     1        0.143014   200842.623438
         1        27     1        0.097169   462803.006445
         2         3     1        0.155191   145692.592651
         2         6     1        0.151869   170824.849463
         2        28     1        0.109587   293151.459473
         3         4     1        0.154523   161199.798022
         3        26     1        0.142495   210211.805811
         3        29     1        0.109542   296509.027539
         4         5     1        0.151071   189703.847070
         4        30     1        0.109430   301490.347168
         4        31     1        0.109430   301490.347168
         5         6     1        0.139926   279483.462256
         5        10     1        0.139564   294208.338281
         6         7     1        0.139856   293217.600586
         7         8     1        0.139870   299155.744629
         7        20     1        0.179405   126543.118750
         8         9     1        0.139457   319834.214648
         8        32     1        0.108390   327351.011719
         9        10     1        0.139911   294346.085449
         9        33     1        0.108424   325013.881006
        10        11     1        0.138475   237596.933643
        11        12     1        0.137741   245997.238086
        12        13     1        0.139918   295879.154736
        12        19     1        0.139918   295879.154736
        13        14     1        0.139068   313332.594287
        13        34     1        0.108342   328712.956836
        14        15     1        0.135332   295656.292383
        14        16     1        0.139193   307109.941309
        16        17     1        0.139193   307109.941309
        16        35     1        0.108340   330516.029980
        17        18     1        0.135332   295656.343457
        17        19     1        0.139068   313332.594287
        19        36     1        0.108342   328712.956836
        20        21     1        0.146700   521071.028906
        20        22     1        0.146700   521071.028906
        20        23     1        0.188097   131432.172803
        23        24     1        0.135563   266389.794629
        23        25     1        0.135563   266389.794629
        23        37     1        0.109165   319633.952637
        26        38     1        0.097185   462430.879687

[ angles ]
;       ai        aj        ak funct           theta             cth
         1         2         3     1      111.319824      558.596177
         1         2         6     1      112.285339      650.362375
         1         2        28     1      107.941101      423.754813
         2         1        27     1      107.447510      575.681397
         2         3         4     1      105.020035      484.175103
         2         3        26     1      110.623672      568.158164
         2         3        29     1      109.040649      448.689725
         2         6         5     1      109.782249      415.730446
         2         6         7     1      130.040985      423.819198
         3         2         6     1      102.721939      516.333984
         3         2        28     1      109.764481      450.060717
         3         4         5     1      102.827126      535.287276
         3         4        30     1      111.061668      479.814514
         3         4        31     1      111.061668      479.814514
         3        26        38     1      107.432335      581.540631
         4         3        26     1      112.231041      611.828600
         4         3        29     1      110.847450      425.455616
         4         5         6     1      111.438332      386.965031
         4         5        10     1      128.077560      423.575414
         5         4        30     1      111.658310      464.718794
         5         4        31     1      111.658310      464.718794
         5         6         7     1      119.370728      613.367977
         5        10         9     1      120.177490      673.658220
         5        10        11     1      118.760880      412.889922
         6         2        28     1      111.079689      436.240991
         6         5        10     1      120.134933      665.591813
         6         7         8     1      120.444717      689.468116
         6         7        20     1      122.255905      547.441057
         7         8         9     1      120.213036      597.347080
         7         8        32     1      119.759445      368.840196
         7        20        21     1      109.186119      624.816966
         7        20        22     1      109.186119      624.816966
         7        20        23     1      102.716293      535.556533
         8         7        20     1      117.321266      538.129588
         8         9        10     1      119.776085      704.204561
         8         9        33     1      120.681114      420.830399
         9         8        32     1      120.591515      398.783606
         9        10        11     1      121.061096      526.724587
        10         9        33     1      119.707077      428.659629
        10        11        12     1      118.678665      433.294072
        11        12        13     1      119.299660      523.265490
        11        12        19     1      119.299660      523.265522
        12        13        14     1      117.765762      757.211875
        12        13        34     1      121.505287      422.511219
        12        19        17     1      117.765762      757.211811
        12        19        36     1      121.505272      422.511219
        13        12        19     1      121.322914      594.753468
        13        14        15     1      118.323303      545.830176
        13        14        16     1      123.319374      593.687229
        14        13        34     1      120.737038      422.168767
        14        16        17     1      116.348099      707.791822
        14        16        35     1      121.833984      423.997160
        15        14        16     1      118.382629      543.369292
        16        17        18     1      118.382629      543.369292
        16        17        19     1      123.319374      593.687229
        17        16        35     1      121.833984      423.997160
        17        19        36     1      120.737022      422.168767
        18        17        19     1      118.323303      545.830112
        20        23        24     1      109.016342      510.993377
        20        23        25     1      109.016342      510.993377
        20        23        37     1      108.633278      472.980655
        21        20        22     1      121.722733      711.025459
        21        20        23     1      105.477318      451.835993
        22        20        23     1      105.477318      451.835993
        24        23        25     1      108.734177      735.006145
        24        23        37     1      110.516922      439.201444
        25        23        37     1      110.516922      439.201444
        26         3        29     1      108.980713      459.538304
        30         4        31     1      107.420044      359.425876

[ dihedrals ] ; propers for gromacs 4.5 or higher, use funct 9
;       ai        aj        ak        al funct           phase               k        pn
         1         2         3         4     9        0.000000       -1.152120         1
         1         2         3         4     9      180.000000        1.001513         2
         1         2         3         4     9        0.000000        0.502803         3
         1         2         3         4     9      180.000000       -0.051675         4
         1         2         3        26     9        0.000000        5.709380         1
         1         2         3        26     9      180.000000       -1.738647         2
         1         2         3        26     9        0.000000        1.053614         3
         1         2         3        26     9      180.000000       -0.240087         4
         1         2         3        29     9        0.000000        0.380167         1
         1         2         3        29     9      180.000000       -0.337969         2
         1         2         3        29     9        0.000000        0.599815         3
         1         2         3        29     9      180.000000        0.030653         4
         1         2         6         5     9        0.000000       -1.647204         1
         1         2         6         5     9      180.000000        3.202563         2
         1         2         6         5     9        0.000000        0.285648         3
         1         2         6         5     9      180.000000        1.279752         4
         1         2         6         7     9        0.000000       -1.213040         1
         1         2         6         7     9      180.000000        2.478461         2
         1         2         6         7     9        0.000000       -0.029016         3
         1         2         6         7     9      180.000000        0.516504         4
         2         3         4         5     9        0.000000       -0.529873         1
         2         3         4         5     9      180.000000        5.335204         2
         2         3         4         5     9        0.000000       -0.106266         3
         2         3         4         5     9      180.000000       -1.668702         4
         2         3         4        30     9        0.000000        0.015605         1
         2         3         4        30     9      180.000000       -0.011951         2
         2         3         4        30     9        0.000000        0.050928         3
         2         3         4        30     9      180.000000        0.071140         4
         2         3         4        31     9        0.000000        0.015605         1
         2         3         4        31     9      180.000000       -0.011951         2
         2         3         4        31     9        0.000000        0.050928         3
         2         3         4        31     9      180.000000        0.071140         4
         2         3        26        38     9        0.000000        5.300864         1
         2         3        26        38     9      180.000000       -5.352798         2
         2         3        26        38     9        0.000000        0.798342         3
         2         3        26        38     9      180.000000        0.190799         4
         2         6         5         4     9        0.000000       -0.015750         1
         2         6         5         4     9      180.000000       20.323968         2
         2         6         5         4     9        0.000000       -2.972626         3
         2         6         5         4     9      180.000000       -0.611458         4
         2         6         5        10     9        0.000000        0.059543         1
         2         6         5        10     9      180.000000       14.883687         2
         2         6         5        10     9        0.000000       -1.465620         3
         2         6         5        10     9      180.000000       -0.429413         4
         2         6         7         8     9        0.000000       -0.000707         1
         2         6         7         8     9      180.000000       13.547391         2
         2         6         7         8     9        0.000000        0.073609         3
         2         6         7         8     9      180.000000       -0.416533         4
         2         6         7        20     9        0.000000       -0.289302         1
         2         6         7        20     9      180.000000        9.553269         2
         2         6         7        20     9        0.000000        0.526187         3
         2         6         7        20     9      180.000000       -0.461092         4
         3         2         1        27     9        0.000000        3.865404         1
         3         2         1        27     9      180.000000       -4.226555         2
         3         2         1        27     9        0.000000        0.773340         3
         3         2         1        27     9      180.000000        0.151174         4
         3         2         6         5     9        0.000000       -1.019049         1
         3         2         6         5     9      180.000000       13.724005         2
         3         2         6         5     9        0.000000       -1.454075         3
         3         2         6         5     9      180.000000       -0.405002         4
         3         2         6         7     9        0.000000       -1.870699         1
         3         2         6         7     9      180.000000        1.474022         2
         3         2         6         7     9        0.000000       -0.305220         3
         3         2         6         7     9      180.000000        0.846798         4
         3         4         5         6     9        0.000000       -1.239662         1
         3         4         5         6     9      180.000000       13.045037         2
         3         4         5         6     9        0.000000       -1.781675         3
         3         4         5         6     9      180.000000       -0.730386         4
         3         4         5        10     9        0.000000        0.439693         1
         3         4         5        10     9      180.000000        0.554046         2
         3         4         5        10     9        0.000000       -0.035085         3
         3         4         5        10     9      180.000000        0.592345         4
         4         3         2         6     9        0.000000       -0.916154         1
         4         3         2         6     9      180.000000        5.293344         2
         4         3         2         6     9        0.000000        0.053698         3
         4         3         2         6     9      180.000000       -1.821328         4
         4         3         2        28     9        0.000000       -0.053213         1
         4         3         2        28     9      180.000000        0.337104         2
         4         3         2        28     9        0.000000        0.365001         3
         4         3         2        28     9      180.000000       -0.087902         4
         4         3        26        38     9        0.000000        3.660154         1
         4         3        26        38     9      180.000000       -3.103424         2
         4         3        26        38     9        0.000000        0.917049         3
         4         3        26        38     9      180.000000        0.302410         4
         4         5         6         7     9        0.000000       -0.286033         1
         4         5         6         7     9      180.000000       14.105689         2
         4         5         6         7     9        0.000000       -1.518693         3
         4         5         6         7     9      180.000000       -0.133687         4
         4         5        10         9     9        0.000000       -0.027103         1
         4         5        10         9     9      180.000000       12.426954         2
         4         5        10         9     9        0.000000       -0.096532         3
         4         5        10         9     9      180.000000       -0.113461         4
         4         5        10        11     9        0.000000       -0.292685         1
         4         5        10        11     9      180.000000       16.021530         2
         4         5        10        11     9        0.000000        0.041170         3
         4         5        10        11     9      180.000000       -0.382003         4
         5         4         3        26     9        0.000000        0.375490         1
         5         4         3        26     9      180.000000        0.251671         2
         5         4         3        26     9        0.000000        0.706608         3
         5         4         3        26     9      180.000000        0.294160         4
         5         4         3        29     9        0.000000        0.105965         1
         5         4         3        29     9      180.000000        0.277399         2
         5         4         3        29     9        0.000000        0.416859         3
         5         4         3        29     9      180.000000       -0.119598         4
         5         6         2        28     9        0.000000        0.862561         1
         5         6         2        28     9      180.000000        0.846058         2
         5         6         2        28     9        0.000000       -0.329161         3
         5         6         2        28     9      180.000000        0.550772         4
         5         6         7         8     9        0.000000       -0.006629         1
         5         6         7         8     9      180.000000       18.906800         2
         5         6         7         8     9        0.000000       -1.878940         3
         5         6         7         8     9      180.000000       -0.393826         4
         5         6         7        20     9        0.000000       -0.464824         1
         5         6         7        20     9      180.000000       10.596422         2
         5         6         7        20     9        0.000000       -0.025993         3
         5         6         7        20     9      180.000000       -0.449434         4
         5        10         9         8     9        0.000000       -0.095976         1
         5        10         9         8     9      180.000000       17.524556         2
         5        10         9         8     9        0.000000       -1.201139         3
         5        10         9         8     9      180.000000       -0.394516         4
         5        10         9        33     9        0.000000       -0.012924         1
         5        10         9        33     9      180.000000       13.256840         2
         5        10         9        33     9        0.000000       -0.380624         3
         5        10         9        33     9      180.000000        0.058445         4
         5        10        11        12     9        0.000000       -0.046919         1
         5        10        11        12     9      180.000000        3.575217         2
         5        10        11        12     9        0.000000        0.454547         3
         5        10        11        12     9      180.000000        0.091249         4
         6         2         1        27     9        0.000000        5.159793         1
         6         2         1        27     9      180.000000       -3.505394         2
         6         2         1        27     9        0.000000        0.784594         3
         6         2         1        27     9      180.000000        0.199440         4
         6         2         3        26     9        0.000000       -0.946836         1
         6         2         3        26     9      180.000000        0.728280         2
         6         2         3        26     9        0.000000        0.409281         3
         6         2         3        26     9      180.000000        0.154707         4
         6         2         3        29     9        0.000000        0.216967         1
         6         2         3        29     9      180.000000        0.282523         2
         6         2         3        29     9        0.000000        0.397459         3
         6         2         3        29     9      180.000000       -0.119164         4
         6         5         4        30     9        0.000000        0.024508         1
         6         5         4        30     9      180.000000       -0.112594         2
         6         5         4        30     9        0.000000       -0.383997         3
         6         5         4        30     9      180.000000        0.385524         4
         6         5         4        31     9        0.000000        0.024508         1
         6         5         4        31     9      180.000000       -0.112594         2
         6         5         4        31     9        0.000000       -0.383997         3
         6         5         4        31     9      180.000000        0.385524         4
         6         5        10         9     9        0.000000       -0.025861         1
         6         5        10         9     9      180.000000       16.989767         2
         6         5        10         9     9        0.000000       -1.143199         3
         6         5        10         9     9      180.000000       -0.455816         4
         6         5        10        11     9        0.000000        0.319038         1
         6         5        10        11     9      180.000000       17.536529         2
         6         5        10        11     9        0.000000        0.288537         3
         6         5        10        11     9      180.000000       -0.621771         4
         6         7         8         9     9        0.000000       -0.069336         1
         6         7         8         9     9      180.000000       19.658559         2
         6         7         8         9     9        0.000000       -1.855221         3
         6         7         8         9     9      180.000000       -0.542816         4
         6         7         8        32     9        0.000000        0.071336         1
         6         7         8        32     9      180.000000       14.828407         2
         6         7         8        32     9        0.000000       -0.540447         3
         6         7         8        32     9      180.000000       -0.051736         4
         6         7        20        21     9        0.000000       -0.143851         1
         6         7        20        21     9      180.000000        0.761015         2
         6         7        20        21     9        0.000000        0.541814         3
         6         7        20        21     9      180.000000       -0.131547         4
         6         7        20        22     9        0.000000       -0.143851         1
         6         7        20        22     9      180.000000        0.761015         2
         6         7        20        22     9        0.000000        0.541814         3
         6         7        20        22     9      180.000000       -0.131547         4
         6         7        20        23     9        0.000000        1.516325         1
         6         7        20        23     9      180.000000       -2.346334         2
         6         7        20        23     9        0.000000        0.553032         3
         6         7        20        23     9      180.000000        0.177395         4
         7         6         2        28     9        0.000000        0.589237         1
         7         6         2        28     9      180.000000        0.180777         2
         7         6         2        28     9        0.000000       -0.124499         3
         7         6         2        28     9      180.000000        0.266061         4
         7         6         5        10     9        0.000000       -0.131032         1
         7         6         5        10     9      180.000000       14.849674         2
         7         6         5        10     9        0.000000       -1.910495         3
         7         6         5        10     9      180.000000       -0.260108         4
         7         8         9        10     9        0.000000       -0.210140         1
         7         8         9        10     9      180.000000       18.618422         2
         7         8         9        10     9        0.000000       -1.900110         3
         7         8         9        10     9      180.000000       -0.470415         4
         7         8         9        33     9        0.000000        0.054342         1
         7         8         9        33     9      180.000000       14.406595         2
         7         8         9        33     9        0.000000       -0.734219         3
         7         8         9        33     9      180.000000        0.038682         4
         7        20        23        24     9        0.000000       -0.243014         1
         7        20        23        24     9      180.000000       -0.266509         2
         7        20        23        24     9        0.000000        0.184376         3
         7        20        23        24     9      180.000000        0.067928         4
         7        20        23        25     9        0.000000       -0.243014         1
         7        20        23        25     9      180.000000       -0.266509         2
         7        20        23        25     9        0.000000        0.184376         3
         7        20        23        25     9      180.000000        0.067928         4
         7        20        23        37     9        0.000000        0.286983         1
         7        20        23        37     9      180.000000       -0.162807         2
         7        20        23        37     9        0.000000        0.386153         3
         7        20        23        37     9      180.000000       -0.032574         4
         8         7        20        21     9        0.000000        0.014589         1
         8         7        20        21     9      180.000000        1.008923         2
         8         7        20        21     9        0.000000        0.026298         3
         8         7        20        21     9      180.000000       -0.021201         4
         8         7        20        22     9        0.000000        0.014589         1
         8         7        20        22     9      180.000000        1.008923         2
         8         7        20        22     9        0.000000        0.026298         3
         8         7        20        22     9      180.000000       -0.021201         4
         8         7        20        23     9        0.000000        0.157094         1
         8         7        20        23     9      180.000000       -1.793018         2
         8         7        20        23     9        0.000000       -0.000322         3
         8         7        20        23     9      180.000000        0.126672         4
         8         9        10        11     9        0.000000        0.680352         1
         8         9        10        11     9      180.000000       19.173968         2
         8         9        10        11     9        0.000000        0.461157         3
         8         9        10        11     9      180.000000       -0.266184         4
         9         8         7        20     9        0.000000       -0.225249         1
         9         8         7        20     9      180.000000       13.469849         2
         9         8         7        20     9        0.000000        0.032806         3
         9         8         7        20     9      180.000000       -0.315328         4
         9        10        11        12     9        0.000000        0.024093         1
         9        10        11        12     9      180.000000        4.530389         2
         9        10        11        12     9        0.000000       -0.416926         3
         9        10        11        12     9      180.000000        0.324668         4
        10         5         4        30     9        0.000000       -0.007502         1
        10         5         4        30     9      180.000000       -0.070281         2
        10         5         4        30     9        0.000000        0.140571         3
        10         5         4        30     9      180.000000        0.060468         4
        10         5         4        31     9        0.000000       -0.007502         1
        10         5         4        31     9      180.000000       -0.070281         2
        10         5         4        31     9        0.000000        0.140571         3
        10         5         4        31     9      180.000000        0.060468         4
        10         9         8        32     9        0.000000        0.184349         1
        10         9         8        32     9      180.000000       14.624994         2
        10         9         8        32     9        0.000000       -0.481531         3
        10         9         8        32     9      180.000000        0.084520         4
        10        11        12        13     9        0.000000        0.046511         1
        10        11        12        13     9      180.000000        4.940149         2
        10        11        12        13     9        0.000000       -0.099623         3
        10        11        12        13     9      180.000000        0.269378         4
        10        11        12        19     9        0.000000        0.046511         1
        10        11        12        19     9      180.000000        4.940149         2
        10        11        12        19     9        0.000000       -0.099623         3
        10        11        12        19     9      180.000000        0.269378         4
        11        10         9        33     9        0.000000        0.198623         1
        11        10         9        33     9      180.000000       14.134900         2
        11        10         9        33     9        0.000000        0.076153         3
        11        10         9        33     9      180.000000        0.376185         4
        11        12        13        14     9        0.000000        0.466452         1
        11        12        13        14     9      180.000000       17.617100         2
        11        12        13        14     9        0.000000        0.547017         3
        11        12        13        14     9      180.000000       -0.290980         4
        11        12        13        34     9        0.000000        0.245967         1
        11        12        13        34     9      180.000000       13.325377         2
        11        12        13        34     9        0.000000       -0.026224         3
        11        12        13        34     9      180.000000        0.373581         4
        11        12        19        17     9        0.000000        0.466452         1
        11        12        19        17     9      180.000000       17.617098         2
        11        12        19        17     9        0.000000        0.547017         3
        11        12        19        17     9      180.000000       -0.290979         4
        11        12        19        36     9        0.000000        0.245967         1
        11        12        19        36     9      180.000000       13.325377         2
        11        12        19        36     9        0.000000       -0.026223         3
        11        12        19        36     9      180.000000        0.373581         4
        12        13        14        15     9        0.000000        0.449710         1
        12        13        14        15     9      180.000000       22.961576         2
        12        13        14        15     9        0.000000        0.557609         3
        12        13        14        15     9      180.000000       -0.871311         4
        12        13        14        16     9        0.000000       -0.045120         1
        12        13        14        16     9      180.000000       17.154986         2
        12        13        14        16     9        0.000000       -1.340382         3
        12        13        14        16     9      180.000000       -0.392072         4
        12        19        17        16     9        0.000000       -0.045119         1
        12        19        17        16     9      180.000000       17.154988         2
        12        19        17        16     9        0.000000       -1.340382         3
        12        19        17        16     9      180.000000       -0.392071         4
        12        19        17        18     9        0.000000        0.449710         1
        12        19        17        18     9      180.000000       22.961578         2
        12        19        17        18     9        0.000000        0.557610         3
        12        19        17        18     9      180.000000       -0.871311         4
        13        12        19        17     9        0.000000       -0.170909         1
        13        12        19        17     9      180.000000       16.631248         2
        13        12        19        17     9        0.000000       -1.110903         3
        13        12        19        17     9      180.000000       -0.239042         4
        13        12        19        36     9        0.000000        0.194517         1
        13        12        19        36     9      180.000000       12.606504         2
        13        12        19        36     9        0.000000       -0.509339         3
        13        12        19        36     9      180.000000        0.214112         4
        13        14        16        17     9        0.000000       -0.187316         1
        13        14        16        17     9      180.000000       17.284581         2
        13        14        16        17     9        0.000000       -1.241456         3
        13        14        16        17     9      180.000000       -0.389731         4
        13        14        16        35     9        0.000000        0.104072         1
        13        14        16        35     9      180.000000       12.467560         2
        13        14        16        35     9        0.000000       -0.482353         3
        13        14        16        35     9      180.000000        0.165824         4
        14        13        12        19     9        0.000000       -0.170909         1
        14        13        12        19     9      180.000000       16.631248         2
        14        13        12        19     9        0.000000       -1.110903         3
        14        13        12        19     9      180.000000       -0.239042         4
        14        16        17        18     9        0.000000        0.362110         1
        14        16        17        18     9      180.000000       23.152135         2
        14        16        17        18     9        0.000000        0.616983         3
        14        16        17        18     9      180.000000       -0.761407         4
        14        16        17        19     9        0.000000       -0.187316         1
        14        16        17        19     9      180.000000       17.284581         2
        14        16        17        19     9        0.000000       -1.241456         3
        14        16        17        19     9      180.000000       -0.389731         4
        15        14        13        34     9        0.000000        0.322237         1
        15        14        13        34     9      180.000000       15.707275         2
        15        14        13        34     9        0.000000        0.259284         3
        15        14        13        34     9      180.000000        0.152960         4
        15        14        16        17     9        0.000000        0.362110         1
        15        14        16        17     9      180.000000       23.152139         2
        15        14        16        17     9        0.000000        0.616982         3
        15        14        16        17     9      180.000000       -0.761407         4
        15        14        16        35     9        0.000000        0.307997         1
        15        14        16        35     9      180.000000       15.019656         2
        15        14        16        35     9        0.000000        0.273340         3
        15        14        16        35     9      180.000000        0.211199         4
        16        14        13        34     9        0.000000        0.203305         1
        16        14        13        34     9      180.000000       12.660347         2
        16        14        13        34     9        0.000000       -0.553013         3
        16        14        13        34     9      180.000000        0.185314         4
        16        17        19        36     9        0.000000        0.203304         1
        16        17        19        36     9      180.000000       12.660347         2
        16        17        19        36     9        0.000000       -0.553012         3
        16        17        19        36     9      180.000000        0.185314         4
        18        17        16        35     9        0.000000        0.307997         1
        18        17        16        35     9      180.000000       15.019657         2
        18        17        16        35     9        0.000000        0.273341         3
        18        17        16        35     9      180.000000        0.211198         4
        18        17        19        36     9        0.000000        0.322237         1
        18        17        19        36     9      180.000000       15.707275         2
        18        17        19        36     9        0.000000        0.259285         3
        18        17        19        36     9      180.000000        0.152960         4
        19        12        13        34     9        0.000000        0.194518         1
        19        12        13        34     9      180.000000       12.606504         2
        19        12        13        34     9        0.000000       -0.509339         3
        19        12        13        34     9      180.000000        0.214112         4
        19        17        16        35     9        0.000000        0.104071         1
        19        17        16        35     9      180.000000       12.467562         2
        19        17        16        35     9        0.000000       -0.482352         3
        19        17        16        35     9      180.000000        0.165824         4
        20         7         8        32     9        0.000000        0.289564         1
        20         7         8        32     9      180.000000       11.918113         2
        20         7         8        32     9        0.000000       -0.240976         3
        20         7         8        32     9      180.000000       -0.044637         4
        21        20        23        24     9        0.000000        0.162715         1
        21        20        23        24     9      180.000000        0.105513         2
        21        20        23        24     9        0.000000        0.247105         3
        21        20        23        24     9      180.000000        0.112903         4
        21        20        23        25     9        0.000000        0.162715         1
        21        20        23        25     9      180.000000        0.105513         2
        21        20        23        25     9        0.000000        0.247105         3
        21        20        23        25     9      180.000000        0.112903         4
        21        20        23        37     9        0.000000       -0.205224         1
        21        20        23        37     9      180.000000        0.079963         2
        21        20        23        37     9        0.000000        0.303827         3
        21        20        23        37     9      180.000000       -0.009602         4
        22        20        23        24     9        0.000000        0.162715         1
        22        20        23        24     9      180.000000        0.105513         2
        22        20        23        24     9        0.000000        0.247105         3
        22        20        23        24     9      180.000000        0.112903         4
        22        20        23        25     9        0.000000        0.162715         1
        22        20        23        25     9      180.000000        0.105513         2
        22        20        23        25     9        0.000000        0.247105         3
        22        20        23        25     9      180.000000        0.112903         4
        22        20        23        37     9        0.000000       -0.205224         1
        22        20        23        37     9      180.000000        0.079963         2
        22        20        23        37     9        0.000000        0.303827         3
        22        20        23        37     9      180.000000       -0.009602         4
        26         3         2        28     9        0.000000        0.882605         1
        26         3         2        28     9      180.000000       -0.296637         2
        26         3         2        28     9        0.000000        0.720634         3
        26         3         2        28     9      180.000000       -0.024307         4
        26         3         4        30     9        0.000000        0.002850         1
        26         3         4        30     9      180.000000       -0.086221         2
        26         3         4        30     9        0.000000        0.567850         3
        26         3         4        30     9      180.000000       -0.002850         4
        26         3         4        31     9        0.000000        0.002850         1
        26         3         4        31     9      180.000000       -0.086221         2
        26         3         4        31     9        0.000000        0.567850         3
        26         3         4        31     9      180.000000       -0.002850         4
        27         1         2        28     9        0.000000        0.500813         1
        27         1         2        28     9      180.000000       -0.691718         2
        27         1         2        28     9        0.000000        0.759364         3
        27         1         2        28     9      180.000000        0.225493         4
        28         2         3        29     9        0.000000       -0.131308         1
        28         2         3        29     9      180.000000       -0.066603         2
        28         2         3        29     9        0.000000        0.610966         3
        28         2         3        29     9      180.000000       -0.025105         4
        29         3         4        30     9        0.000000       -0.055599         1
        29         3         4        30     9      180.000000       -0.030049         2
        29         3         4        30     9        0.000000        0.465077         3
        29         3         4        30     9      180.000000       -0.006495         4
        29         3         4        31     9        0.000000       -0.055599         1
        29         3         4        31     9      180.000000       -0.030049         2
        29         3         4        31     9        0.000000        0.465077         3
        29         3         4        31     9      180.000000       -0.006495         4
        29         3        26        38     9        0.000000        1.923396         1
        29         3        26        38     9      180.000000       -3.173612         2
        29         3        26        38     9        0.000000        0.839229         3
        29         3        26        38     9      180.000000        0.473485         4
        32         8         9        33     9        0.000000       -0.061453         1
        32         8         9        33     9      180.000000       12.696796         2
        32         8         9        33     9        0.000000       -0.850787         3
        32         8         9        33     9      180.000000        0.232287         4

[ dihedrals ] ; impropers
;       ai        aj        ak        al funct           phase               k        pn
        14        13        15        16     4      180.000000        2.618671         2
        14        15        16        13     4      180.000000        2.618671         2
        14        16        13        15     4      180.000000        2.618671         2
        17        16        18        19     4      180.000000        2.618671         2
        17        18        19        16     4      180.000000        2.618671         2
        17        19        16        18     4      180.000000        2.618671         2

[ pairs ]
;       ai        aj funct
         1         4     1
         1         5     1
         1         7     1
         1        26     1
         1        29     1
         2         8     1
         2        10     1
         2        20     1
         2        30     1
         2        31     1
         2        38     1
         3         7     1
         3        10     1
         3        27     1
         4         7     1
         4         9     1
         4        11     1
         4        28     1
         4        38     1
         5         8     1
         5        12     1
         5        20     1
         5        26     1
         5        28     1
         5        29     1
         5        33     1
         6         9     1
         6        11     1
         6        21     1
         6        22     1
         6        23     1
         6        26     1
         6        27     1
         6        29     1
         6        30     1
         6        31     1
         6        32     1
         7        10     1
         7        24     1
         7        25     1
         7        28     1
         7        33     1
         7        37     1
         8        11     1
         8        21     1
         8        22     1
         8        23     1
         9        12     1
         9        20     1
        10        13     1
        10        19     1
        10        30     1
        10        31     1
        10        32     1
        11        14     1
        11        17     1
        11        33     1
        11        34     1
        11        36     1
        12        15     1
        12        16     1
        12        18     1
        13        17     1
        13        35     1
        13        36     1
        14        18     1
        14        19     1
        15        17     1
        15        34     1
        15        35     1
        16        34     1
        16        36     1
        18        35     1
        18        36     1
        19        34     1
        19        35     1
        20        32     1
        21        24     1
        21        25     1
        21        37     1
        22        24     1
        22        25     1
        22        37     1
        26        28     1
        26        30     1
        26        31     1
        27        28     1
        28        29     1
        29        30     1
        29        31     1
        29        38     1
        32        33     1
