; ITP file created by ByteFF-ML, 2026-02-21 07:40:56.145732

[ atomtypes ]
;name           bonded.type        at.num        mass        charge   ptype           sigma         epsilon
 o0bf                                   8      0.0000       0.00000       A     3.23882e-01     3.88798e-01
 c1bf                                   6      0.0000       0.00000       A     3.40054e-01     4.49190e-01
 c2bf                                   6      0.0000       0.00000       A     3.39708e-01     4.52551e-01
 c3bf                                   6      0.0000       0.00000       A     3.39849e-01     4.53210e-01
 c4bf                                   6      0.0000       0.00000       A     3.31745e-01     4.12246e-01
 c5bf                                   6      0.0000       0.00000       A     3.31648e-01     4.12911e-01
 c6bf                                   6      0.0000       0.00000       A     3.31322e-01     4.12359e-01
 c7bf                                   6      0.0000       0.00000       A     3.31368e-01     4.13336e-01
 c8bf                                   6      0.0000       0.00000       A     3.31334e-01     4.13082e-01
 c9bf                                   6      0.0000       0.00000       A     3.31552e-01     4.12630e-01
 o10bf                                  8      0.0000       0.00000       A     3.15848e-01     3.06354e-01
 c11bf                                  6      0.0000       0.00000       A     3.31461e-01     4.12807e-01
 c12bf                                  6      0.0000       0.00000       A     3.31497e-01     4.13743e-01
 c13bf                                  6      0.0000       0.00000       A     3.31573e-01     4.14252e-01
 f14bf                                  9      0.0000       0.00000       A     3.03468e-01     3.48235e-01
 c15bf                                  6      0.0000       0.00000       A     3.31552e-01     4.14123e-01
 c16bf                                  6      0.0000       0.00000       A     3.31534e-01     4.14279e-01
 c17bf                                  6      0.0000       0.00000       A     3.48195e-01     6.71490e-01
 c18bf                                  6      0.0000       0.00000       A     3.31496e-01     4.14341e-01
 s19bf                                 16      0.0000       0.00000       A     4.05517e-01     2.59583e-01
 o20bf                                  8      0.0000       0.00000       A     3.05055e-01     6.11844e-01
 o21bf                                  8      0.0000       0.00000       A     3.05055e-01     6.11844e-01
 c22bf                                  6      0.0000       0.00000       A     3.39729e-01     4.49365e-01
 f23bf                                  9      0.0000       0.00000       A     3.03686e-01     3.46328e-01
 n24bf                                  7      0.0000       0.00000       A     3.27424e-01     4.58548e-01
 h25bf                                  1      0.0000       0.00000       A     5.37016e-02     1.95981e-02
 h26bf                                  1      0.0000       0.00000       A     2.41687e-01     8.67831e-02
 h27bf                                  1      0.0000       0.00000       A     2.42038e-01     8.75476e-02
 h28bf                                  1      0.0000       0.00000       A     2.59940e-01     8.71406e-02
 h29bf                                  1      0.0000       0.00000       A     2.59940e-01     8.71406e-02
 h30bf                                  1      0.0000       0.00000       A     2.62720e-01     6.76047e-02
 h31bf                                  1      0.0000       0.00000       A     2.62431e-01     6.72328e-02
 h32bf                                  1      0.0000       0.00000       A     2.62432e-01     6.69886e-02
 h33bf                                  1      0.0000       0.00000       A     2.62464e-01     6.71849e-02
 h34bf                                  1      0.0000       0.00000       A     2.62428e-01     6.73733e-02
 h35bf                                  1      0.0000       0.00000       A     2.42015e-01     8.71422e-02
 h36bf                                  1      0.0000       0.00000       A     2.42015e-01     8.71422e-02
 h37bf                                  1      0.0000       0.00000       A     2.42015e-01     8.71422e-02

[ moleculetype ]
;name             nrexcl
 231                   3

[ atoms ]
;       nr            type      resi   res      atom      cgnr      charge          mass ; qtot
         1            o0bf         1   UNL        o0         1    -0.64869       15.9990 ; qtot   -0.649
         2            c1bf         1   UNL        c1         2     0.19097       12.0110 ; qtot   -0.458
         3            c2bf         1   UNL        c2         3     0.16740       12.0110 ; qtot   -0.290
         4            c3bf         1   UNL        c3         4    -0.05045       12.0110 ; qtot   -0.341
         5            c4bf         1   UNL        c4         5    -0.09778       12.0110 ; qtot   -0.439
         6            c5bf         1   UNL        c5         6     0.00014       12.0110 ; qtot   -0.438
         7            c6bf         1   UNL        c6         7    -0.23471       12.0110 ; qtot   -0.673
         8            c7bf         1   UNL        c7         8     0.00678       12.0110 ; qtot   -0.666
         9            c8bf         1   UNL        c8         9    -0.15328       12.0110 ; qtot   -0.820
        10            c9bf         1   UNL        c9        10     0.14349       12.0110 ; qtot   -0.676
        11           o10bf         1   UNL       o10        11    -0.24293       15.9990 ; qtot   -0.919
        12           c11bf         1   UNL       c11        12     0.15070       12.0110 ; qtot   -0.768
        13           c12bf         1   UNL       c12        13    -0.16635       12.0110 ; qtot   -0.935
        14           c13bf         1   UNL       c13        14     0.19192       12.0110 ; qtot   -0.743
        15           f14bf         1   UNL       f14        15    -0.16215       18.9980 ; qtot   -0.905
        16           c15bf         1   UNL       c15        16    -0.13469       12.0110 ; qtot   -1.040
        17           c16bf         1   UNL       c16        17     0.04075       12.0110 ; qtot   -0.999
        18           c17bf         1   UNL       c17        18     0.31339       12.0110 ; qtot   -0.685
        19           c18bf         1   UNL       c18        19    -0.11736       12.0110 ; qtot   -0.803
        20           s19bf         1   UNL       s19        20     1.00322       32.0670 ; qtot    0.200
        21           o20bf         1   UNL       o20        21    -0.50936       15.9990 ; qtot   -0.309
        22           o21bf         1   UNL       o21        22    -0.50936       15.9990 ; qtot   -0.818
        23           c22bf         1   UNL       c22        23    -0.30030       12.0110 ; qtot   -1.119
        24           f23bf         1   UNL       f23        24    -0.25937       18.9980 ; qtot   -1.378
        25           n24bf         1   UNL       n24        25    -0.43909       14.0070 ; qtot   -1.817
        26           h25bf         1   UNL       h25        26     0.45625        1.0080 ; qtot   -1.361
        27           h26bf         1   UNL       h26        27     0.08484        1.0080 ; qtot   -1.276
        28           h27bf         1   UNL       h27        28     0.07512        1.0080 ; qtot   -1.201
        29           h28bf         1   UNL       h28        29     0.07941        1.0080 ; qtot   -1.121
        30           h29bf         1   UNL       h29        30     0.07941        1.0080 ; qtot   -1.042
        31           h30bf         1   UNL       h30        31     0.14785        1.0080 ; qtot   -0.894
        32           h31bf         1   UNL       h31        32     0.13696        1.0080 ; qtot   -0.757
        33           h32bf         1   UNL       h32        33     0.15329        1.0080 ; qtot   -0.604
        34           h33bf         1   UNL       h33        34     0.14757        1.0080 ; qtot   -0.456
        35           h34bf         1   UNL       h34        35     0.14589        1.0080 ; qtot   -0.311
        36           h35bf         1   UNL       h35        36     0.10350        1.0080 ; qtot   -0.207
        37           h36bf         1   UNL       h36        37     0.10350        1.0080 ; qtot   -0.104
        38           h37bf         1   UNL       h37        38     0.10352        1.0080 ; qtot   -0.000

[ bonds ]
;       ai        aj funct               r               k
         1         2     1        0.142676   207202.793750
         1        26     1        0.097138   464796.075684
         2         3     1        0.154542   156795.731982
         2         6     1        0.151963   171824.091016
         2        27     1        0.109527   294905.807812
         3         4     1        0.153775   169350.541064
         3        24     1        0.140708   207586.833569
         3        28     1        0.109234   307356.961768
         4         5     1        0.151083   190188.988306
         4        29     1        0.109388   303648.360596
         4        30     1        0.109388   303648.360596
         5         6     1        0.139884   280325.497363
         5        10     1        0.139572   294296.262549
         6         7     1        0.139922   290756.793652
         7         8     1        0.139858   298717.068164
         7        20     1        0.180739   125293.319849
         8         9     1        0.139489   319911.081348
         8        31     1        0.108392   327000.285059
         9        10     1        0.139918   294150.471191
         9        32     1        0.108424   325013.881006
        10        11     1        0.138527   236552.772314
        11        12     1        0.137421   250794.179785
        12        13     1        0.139961   293934.708154
        12        19     1        0.139702   295896.749805
        13        14     1        0.139111   310051.892920
        13        33     1        0.108374   328151.165967
        14        15     1        0.135083   300333.720410
        14        16     1        0.138892   307835.578271
        16        17     1        0.140515   294475.124463
        16        34     1        0.108386   329357.334717
        17        18     1        0.143765   270871.863770
        17        19     1        0.140387   298138.014209
        18        25     1        0.116512  1108338.024805
        19        35     1        0.108395   327534.189404
        20        21     1        0.147180   503022.830078
        20        22     1        0.147180   503022.830078
        20        23     1        0.180889   139773.243921
        23        36     1        0.109031   319070.297559
        23        37     1        0.109031   319070.297559
        23        38     1        0.109031   319070.297559

[ angles ]
;       ai        aj        ak funct           theta             cth
         1         2         3     1      112.076553      545.231203
         1         2         6     1      112.119797      640.411585
         1         2        27     1      108.159409      416.588142
         2         1        26     1      107.778091      574.351041
         2         3         4     1      106.203697      494.475400
         2         3        24     1      109.360512      586.854137
         2         3        28     1      110.755737      445.801255
         2         6         5     1      110.090309      403.709076
         2         6         7     1      129.678299      422.778274
         3         2         6     1      102.531105      532.027432
         3         2        27     1      109.563194      449.328951
         3         4         5     1      102.730896      543.457714
         3         4        29     1      110.933975      477.962435
         3         4        30     1      110.933975      477.962435
         4         3        24     1      110.392319      620.818684
         4         3        28     1      112.748581      425.987267
         4         5         6     1      111.555771      369.415962
         4         5        10     1      128.156815      424.368725
         5         4        29     1      111.941040      456.215192
         5         4        30     1      111.941040      456.215160
         5         6         7     1      119.586060      630.915547
         5        10         9     1      120.062302      670.752161
         5        10        11     1      118.743408      416.116472
         6         2        27     1      111.330956      429.261348
         6         5        10     1      120.147682      663.840606
         6         7         8     1      120.055542      691.854751
         6         7        20     1      122.541748      541.999865
         7         8         9     1      120.388710      618.352374
         7         8        31     1      119.528282      373.048520
         7        20        21     1      107.843460      634.562629
         7        20        22     1      107.843460      634.562629
         7        20        23     1      103.551697      640.483919
         8         7        20     1      117.574951      531.364106
         8         9        10     1      119.786682      702.804297
         8         9        32     1      120.692787      421.908990
         9         8        31     1      120.557327      398.800173
         9        10        11     1      121.043007      529.270382
        10         9        32     1      119.702965      429.237598
        10        11        12     1      118.779800      430.598503
        11        12        13     1      119.322159      518.676887
        11        12        19     1      119.615601      500.976988
        12        13        14     1      118.171036      766.741494
        12        13        33     1      121.308182      417.404883
        12        19        17     1      118.959595      688.354954
        12        19        35     1      120.280678      422.219011
        13        12        19     1      120.802040      630.818314
        13        14        15     1      118.343826      541.971774
        13        14        16     1      122.953712      628.021298
        14        13        33     1      120.554909      416.906303
        14        16        17     1      117.516953      637.448450
        14        16        34     1      120.746925      422.893797
        15        14        16     1      118.731651      524.645196
        16        17        18     1      119.386719      476.745240
        16        17        19     1      121.187233      684.585996
        17        16        34     1      121.582848      413.830549
        17        18        25     1      179.655121      167.360000
        17        19        35     1      120.651222      407.470181
        18        17        19     1      119.288147      472.497366
        20        23        36     1      107.873611      564.470670
        20        23        37     1      107.873611      564.470670
        20        23        38     1      107.873611      564.470670
        21        20        22     1      120.658920      732.942108
        21        20        23     1      107.439194      726.263260
        22        20        23     1      107.439194      726.263260
        24         3        28     1      106.464981      464.443600
        29         4        30     1      107.379860      358.922700
        36        23        37     1      111.062515      345.412452
        36        23        38     1      111.062515      345.412452
        37        23        38     1      111.062515      345.412483

[ dihedrals ] ; propers for gromacs 4.5 or higher, use funct 9
;       ai        aj        ak        al funct           phase               k        pn
         1         2         3         4     9        0.000000       -1.282025         1
         1         2         3         4     9      180.000000        0.703224         2
         1         2         3         4     9        0.000000        0.469689         3
         1         2         3         4     9      180.000000       -0.077183         4
         1         2         3        24     9        0.000000        1.478963         1
         1         2         3        24     9      180.000000       -2.411119         2
         1         2         3        24     9        0.000000        0.893152         3
         1         2         3        24     9      180.000000       -0.117928         4
         1         2         3        28     9        0.000000        0.145319         1
         1         2         3        28     9      180.000000       -0.122642         2
         1         2         3        28     9        0.000000        0.693439         3
         1         2         3        28     9      180.000000       -0.016019         4
         1         2         6         5     9        0.000000       -2.518032         1
         1         2         6         5     9      180.000000        3.162061         2
         1         2         6         5     9        0.000000        0.208206         3
         1         2         6         5     9      180.000000        1.225006         4
         1         2         6         7     9        0.000000       -1.031332         1
         1         2         6         7     9      180.000000        2.469608         2
         1         2         6         7     9        0.000000        0.087606         3
         1         2         6         7     9      180.000000        0.496316         4
         2         3         4         5     9        0.000000       -0.468139         1
         2         3         4         5     9      180.000000        5.011316         2
         2         3         4         5     9        0.000000       -0.144218         3
         2         3         4         5     9      180.000000       -1.599629         4
         2         3         4        29     9        0.000000        0.014334         1
         2         3         4        29     9      180.000000        0.017568         2
         2         3         4        29     9        0.000000        0.066436         3
         2         3         4        29     9      180.000000        0.087075         4
         2         3         4        30     9        0.000000        0.014334         1
         2         3         4        30     9      180.000000        0.017567         2
         2         3         4        30     9        0.000000        0.066436         3
         2         3         4        30     9      180.000000        0.087075         4
         2         6         5         4     9        0.000000       -0.060803         1
         2         6         5         4     9      180.000000       19.578835         2
         2         6         5         4     9        0.000000       -2.958122         3
         2         6         5         4     9      180.000000       -0.502232         4
         2         6         5        10     9        0.000000        0.081817         1
         2         6         5        10     9      180.000000       14.799304         2
         2         6         5        10     9        0.000000       -1.394998         3
         2         6         5        10     9      180.000000       -0.357590         4
         2         6         7         8     9        0.000000        0.002035         1
         2         6         7         8     9      180.000000       14.022855         2
         2         6         7         8     9        0.000000       -0.059206         3
         2         6         7         8     9      180.000000       -0.435571         4
         2         6         7        20     9        0.000000       -0.107205         1
         2         6         7        20     9      180.000000        9.872370         2
         2         6         7        20     9        0.000000        0.548288         3
         2         6         7        20     9      180.000000       -0.488003         4
         3         2         1        26     9        0.000000        2.251856         1
         3         2         1        26     9      180.000000       -2.851958         2
         3         2         1        26     9        0.000000        0.803560         3
         3         2         1        26     9      180.000000        0.202467         4
         3         2         6         5     9        0.000000       -0.771390         1
         3         2         6         5     9      180.000000       13.221882         2
         3         2         6         5     9        0.000000       -1.300829         3
         3         2         6         5     9      180.000000       -0.235354         4
         3         2         6         7     9        0.000000       -1.395516         1
         3         2         6         7     9      180.000000        1.556475         2
         3         2         6         7     9        0.000000       -0.139176         3
         3         2         6         7     9      180.000000        0.748820         4
         3         4         5         6     9        0.000000       -0.775387         1
         3         4         5         6     9      180.000000       12.756704         2
         3         4         5         6     9        0.000000       -1.848542         3
         3         4         5         6     9      180.000000       -0.769405         4
         3         4         5        10     9        0.000000        0.493363         1
         3         4         5        10     9      180.000000        0.917502         2
         3         4         5        10     9        0.000000       -0.085900         3
         3         4         5        10     9      180.000000        0.551456         4
         4         3         2         6     9        0.000000       -0.838386         1
         4         3         2         6     9      180.000000        4.556681         2
         4         3         2         6     9        0.000000       -0.006159         3
         4         3         2         6     9      180.000000       -1.635825         4
         4         3         2        27     9        0.000000       -0.223968         1
         4         3         2        27     9      180.000000        0.183459         2
         4         3         2        27     9        0.000000        0.381643         3
         4         3         2        27     9      180.000000       -0.140578         4
         4         5         6         7     9        0.000000       -0.311603         1
         4         5         6         7     9      180.000000       13.720101         2
         4         5         6         7     9        0.000000       -1.435101         3
         4         5         6         7     9      180.000000       -0.064939         4
         4         5        10         9     9        0.000000       -0.124014         1
         4         5        10         9     9      180.000000       12.435533         2
         4         5        10         9     9        0.000000       -0.110988         3
         4         5        10         9     9      180.000000       -0.074424         4
         4         5        10        11     9        0.000000       -0.298851         1
         4         5        10        11     9      180.000000       15.684594         2
         4         5        10        11     9        0.000000        0.091076         3
         4         5        10        11     9      180.000000       -0.308842         4
         5         4         3        24     9        0.000000       -0.302704         1
         5         4         3        24     9      180.000000       -0.349681         2
         5         4         3        24     9        0.000000        0.457128         3
         5         4         3        24     9      180.000000        0.271305         4
         5         4         3        28     9        0.000000        0.408466         1
         5         4         3        28     9      180.000000        0.072770         2
         5         4         3        28     9        0.000000        0.378311         3
         5         4         3        28     9      180.000000        0.051980         4
         5         6         2        27     9        0.000000        0.861760         1
         5         6         2        27     9      180.000000        0.622147         2
         5         6         2        27     9        0.000000       -0.255691         3
         5         6         2        27     9      180.000000        0.600534         4
         5         6         7         8     9        0.000000        0.057141         1
         5         6         7         8     9      180.000000       18.664547         2
         5         6         7         8     9        0.000000       -1.812423         3
         5         6         7         8     9      180.000000       -0.390144         4
         5         6         7        20     9        0.000000       -0.189827         1
         5         6         7        20     9      180.000000       11.324092         2
         5         6         7        20     9        0.000000        0.033527         3
         5         6         7        20     9      180.000000       -0.438451         4
         5        10         9         8     9        0.000000       -0.120857         1
         5        10         9         8     9      180.000000       17.705361         2
         5        10         9         8     9        0.000000       -1.210299         3
         5        10         9         8     9      180.000000       -0.421828         4
         5        10         9        32     9        0.000000       -0.016574         1
         5        10         9        32     9      180.000000       13.390404         2
         5        10         9        32     9        0.000000       -0.386542         3
         5        10         9        32     9      180.000000        0.027089         4
         5        10        11        12     9        0.000000       -0.110949         1
         5        10        11        12     9      180.000000        3.509364         2
         5        10        11        12     9        0.000000        0.466523         3
         5        10        11        12     9      180.000000        0.104261         4
         6         2         1        26     9        0.000000        5.617630         1
         6         2         1        26     9      180.000000       -2.878546         2
         6         2         1        26     9        0.000000        0.891810         3
         6         2         1        26     9      180.000000        0.177162         4
         6         2         3        24     9        0.000000       -0.501837         1
         6         2         3        24     9      180.000000       -0.207889         2
         6         2         3        24     9        0.000000        0.400932         3
         6         2         3        24     9      180.000000        0.228054         4
         6         2         3        28     9        0.000000        0.406010         1
         6         2         3        28     9      180.000000        0.169138         2
         6         2         3        28     9        0.000000        0.366071         3
         6         2         3        28     9      180.000000       -0.042653         4
         6         5         4        29     9        0.000000        0.021889         1
         6         5         4        29     9      180.000000       -0.056972         2
         6         5         4        29     9        0.000000       -0.454724         3
         6         5         4        29     9      180.000000        0.358868         4
         6         5         4        30     9        0.000000        0.021890         1
         6         5         4        30     9      180.000000       -0.056972         2
         6         5         4        30     9        0.000000       -0.454724         3
         6         5         4        30     9      180.000000        0.358868         4
         6         5        10         9     9        0.000000        0.005253         1
         6         5        10         9     9      180.000000       17.009520         2
         6         5        10         9     9        0.000000       -1.112944         3
         6         5        10         9     9      180.000000       -0.477149         4
         6         5        10        11     9        0.000000        0.319380         1
         6         5        10        11     9      180.000000       17.653925         2
         6         5        10        11     9        0.000000        0.284163         3
         6         5        10        11     9      180.000000       -0.607876         4
         6         7         8         9     9        0.000000       -0.048333         1
         6         7         8         9     9      180.000000       19.873589         2
         6         7         8         9     9        0.000000       -1.778726         3
         6         7         8         9     9      180.000000       -0.575980         4
         6         7         8        31     9        0.000000        0.052569         1
         6         7         8        31     9      180.000000       15.068102         2
         6         7         8        31     9        0.000000       -0.481902         3
         6         7         8        31     9      180.000000       -0.075748         4
         6         7        20        21     9        0.000000       -0.112655         1
         6         7        20        21     9      180.000000        0.560208         2
         6         7        20        21     9        0.000000        0.738025         3
         6         7        20        21     9      180.000000       -0.206733         4
         6         7        20        22     9        0.000000       -0.112655         1
         6         7        20        22     9      180.000000        0.560208         2
         6         7        20        22     9        0.000000        0.738025         3
         6         7        20        22     9      180.000000       -0.206733         4
         6         7        20        23     9        0.000000        1.928350         1
         6         7        20        23     9      180.000000       -1.525629         2
         6         7        20        23     9        0.000000        0.755438         3
         6         7        20        23     9      180.000000        0.247692         4
         7         6         2        27     9        0.000000        0.764304         1
         7         6         2        27     9      180.000000        0.286177         2
         7         6         2        27     9        0.000000       -0.025902         3
         7         6         2        27     9      180.000000        0.245034         4
         7         6         5        10     9        0.000000       -0.159239         1
         7         6         5        10     9      180.000000       14.678608         2
         7         6         5        10     9        0.000000       -1.785433         3
         7         6         5        10     9      180.000000       -0.224111         4
         7         8         9        10     9        0.000000       -0.272511         1
         7         8         9        10     9      180.000000       18.423945         2
         7         8         9        10     9        0.000000       -1.777265         3
         7         8         9        10     9      180.000000       -0.472335         4
         7         8         9        32     9        0.000000        0.038187         1
         7         8         9        32     9      180.000000       14.355011         2
         7         8         9        32     9        0.000000       -0.684153         3
         7         8         9        32     9      180.000000        0.036118         4
         7        20        23        36     9        0.000000        0.003063         1
         7        20        23        36     9      180.000000       -0.135950         2
         7        20        23        36     9        0.000000        0.278744         3
         7        20        23        36     9      180.000000       -0.004612         4
         7        20        23        37     9        0.000000        0.003063         1
         7        20        23        37     9      180.000000       -0.135950         2
         7        20        23        37     9        0.000000        0.278744         3
         7        20        23        37     9      180.000000       -0.004612         4
         7        20        23        38     9        0.000000        0.003063         1
         7        20        23        38     9      180.000000       -0.135950         2
         7        20        23        38     9        0.000000        0.278744         3
         7        20        23        38     9      180.000000       -0.004612         4
         8         7        20        21     9        0.000000       -0.022137         1
         8         7        20        21     9      180.000000        0.875857         2
         8         7        20        21     9        0.000000       -0.179606         3
         8         7        20        21     9      180.000000        0.011677         4
         8         7        20        22     9        0.000000       -0.022137         1
         8         7        20        22     9      180.000000        0.875857         2
         8         7        20        22     9        0.000000       -0.179606         3
         8         7        20        22     9      180.000000        0.011677         4
         8         7        20        23     9        0.000000        0.018316         1
         8         7        20        23     9      180.000000       -0.896113         2
         8         7        20        23     9        0.000000       -0.050874         3
         8         7        20        23     9      180.000000        0.363295         4
         8         9        10        11     9        0.000000        0.626045         1
         8         9        10        11     9      180.000000       19.247395         2
         8         9        10        11     9        0.000000        0.421070         3
         8         9        10        11     9      180.000000       -0.268316         4
         9         8         7        20     9        0.000000       -0.123162         1
         9         8         7        20     9      180.000000       13.693730         2
         9         8         7        20     9        0.000000        0.122267         3
         9         8         7        20     9      180.000000       -0.337562         4
         9        10        11        12     9        0.000000       -0.011950         1
         9        10        11        12     9      180.000000        4.389122         2
         9        10        11        12     9        0.000000       -0.384120         3
         9        10        11        12     9      180.000000        0.305668         4
        10         5         4        29     9        0.000000        0.040841         1
        10         5         4        29     9      180.000000       -0.011029         2
        10         5         4        29     9        0.000000        0.070054         3
        10         5         4        29     9      180.000000        0.077228         4
        10         5         4        30     9        0.000000        0.040841         1
        10         5         4        30     9      180.000000       -0.011028         2
        10         5         4        30     9        0.000000        0.070053         3
        10         5         4        30     9      180.000000        0.077228         4
        10         9         8        31     9        0.000000        0.190118         1
        10         9         8        31     9      180.000000       14.575993         2
        10         9         8        31     9        0.000000       -0.471137         3
        10         9         8        31     9      180.000000        0.089364         4
        10        11        12        13     9        0.000000        0.048783         1
        10        11        12        13     9      180.000000        5.010500         2
        10        11        12        13     9        0.000000       -0.107309         3
        10        11        12        13     9      180.000000        0.262221         4
        10        11        12        19     9        0.000000        0.079165         1
        10        11        12        19     9      180.000000        5.010496         2
        10        11        12        19     9        0.000000       -0.130942         3
        10        11        12        19     9      180.000000        0.287359         4
        11        10         9        32     9        0.000000        0.196242         1
        11        10         9        32     9      180.000000       14.114555         2
        11        10         9        32     9        0.000000        0.070337         3
        11        10         9        32     9      180.000000        0.379064         4
        11        12        13        14     9        0.000000        0.439834         1
        11        12        13        14     9      180.000000       17.679830         2
        11        12        13        14     9        0.000000        0.518615         3
        11        12        13        14     9      180.000000       -0.304267         4
        11        12        13        33     9        0.000000        0.247031         1
        11        12        13        33     9      180.000000       13.315015         2
        11        12        13        33     9        0.000000       -0.057326         3
        11        12        13        33     9      180.000000        0.357953         4
        11        12        19        17     9        0.000000        0.414466         1
        11        12        19        17     9      180.000000       17.167011         2
        11        12        19        17     9        0.000000        0.430918         3
        11        12        19        17     9      180.000000       -0.092908         4
        11        12        19        35     9        0.000000        0.203641         1
        11        12        19        35     9      180.000000       13.434097         2
        11        12        19        35     9        0.000000       -0.034857         3
        11        12        19        35     9      180.000000        0.337343         4
        12        13        14        15     9        0.000000        0.459528         1
        12        13        14        15     9      180.000000       22.775544         2
        12        13        14        15     9        0.000000        0.620336         3
        12        13        14        15     9      180.000000       -0.895479         4
        12        13        14        16     9        0.000000       -0.037834         1
        12        13        14        16     9      180.000000       16.924316         2
        12        13        14        16     9        0.000000       -1.235725         3
        12        13        14        16     9      180.000000       -0.383379         4
        12        19        17        16     9        0.000000       -0.147115         1
        12        19        17        16     9      180.000000       18.104643         2
        12        19        17        16     9        0.000000       -1.723479         3
        12        19        17        16     9      180.000000       -0.396032         4
        12        19        17        18     9        0.000000       -0.086532         1
        12        19        17        18     9      180.000000       16.262249         2
        12        19        17        18     9        0.000000       -0.126424         3
        12        19        17        18     9      180.000000       -0.295179         4
        13        12        19        17     9        0.000000       -0.151288         1
        13        12        19        17     9      180.000000       16.720497         2
        13        12        19        17     9        0.000000       -0.954879         3
        13        12        19        17     9      180.000000       -0.285399         4
        13        12        19        35     9        0.000000        0.129425         1
        13        12        19        35     9      180.000000       12.822899         2
        13        12        19        35     9        0.000000       -0.471795         3
        13        12        19        35     9      180.000000        0.176763         4
        13        14        16        17     9        0.000000       -0.213127         1
        13        14        16        17     9      180.000000       17.562477         2
        13        14        16        17     9        0.000000       -1.146983         3
        13        14        16        17     9      180.000000       -0.459047         4
        13        14        16        34     9        0.000000        0.012917         1
        13        14        16        34     9      180.000000       13.202101         2
        13        14        16        34     9        0.000000       -0.546497         3
        13        14        16        34     9      180.000000        0.094661         4
        14        13        12        19     9        0.000000       -0.098513         1
        14        13        12        19     9      180.000000       16.419685         2
        14        13        12        19     9        0.000000       -1.019756         3
        14        13        12        19     9      180.000000       -0.197813         4
        14        16        17        18     9        0.000000        0.094774         1
        14        16        17        18     9      180.000000       16.943641         2
        14        16        17        18     9        0.000000       -0.003519         3
        14        16        17        18     9      180.000000       -0.413924         4
        14        16        17        19     9        0.000000       -0.159527         1
        14        16        17        19     9      180.000000       18.380973         2
        14        16        17        19     9        0.000000       -1.728032         3
        14        16        17        19     9      180.000000       -0.402124         4
        15        14        13        33     9        0.000000        0.330038         1
        15        14        13        33     9      180.000000       15.871795         2
        15        14        13        33     9        0.000000        0.248138         3
        15        14        13        33     9      180.000000        0.119632         4
        15        14        16        17     9        0.000000        0.384623         1
        15        14        16        17     9      180.000000       22.626144         2
        15        14        16        17     9        0.000000        0.654396         3
        15        14        16        17     9      180.000000       -0.714402         4
        15        14        16        34     9        0.000000        0.323706         1
        15        14        16        34     9      180.000000       15.967908         2
        15        14        16        34     9        0.000000        0.305032         3
        15        14        16        34     9      180.000000        0.124130         4
        16        14        13        33     9        0.000000        0.166901         1
        16        14        13        33     9      180.000000       12.714126         2
        16        14        13        33     9        0.000000       -0.506238         3
        16        14        13        33     9      180.000000        0.156592         4
        16        17        18        25     9        0.000000        0.000000         1
        16        17        18        25     9      180.000000        0.000000         2
        16        17        18        25     9        0.000000        0.000000         3
        16        17        18        25     9      180.000000        0.000000         4
        16        17        19        35     9        0.000000       -0.033626         1
        16        17        19        35     9      180.000000       14.163344         2
        16        17        19        35     9        0.000000       -0.688105         3
        16        17        19        35     9      180.000000        0.029301         4
        18        17        16        34     9        0.000000        0.029971         1
        18        17        16        34     9      180.000000       12.807836         2
        18        17        16        34     9        0.000000       -0.300729         3
        18        17        16        34     9      180.000000        0.113751         4
        18        17        19        35     9        0.000000        0.024029         1
        18        17        19        35     9      180.000000       12.824091         2
        18        17        19        35     9        0.000000       -0.314228         3
        18        17        19        35     9      180.000000        0.157371         4
        19        12        13        33     9        0.000000        0.123404         1
        19        12        13        33     9      180.000000       12.520774         2
        19        12        13        33     9        0.000000       -0.483970         3
        19        12        13        33     9      180.000000        0.186258         4
        19        17        16        34     9        0.000000       -0.016357         1
        19        17        16        34     9      180.000000       14.310019         2
        19        17        16        34     9        0.000000       -0.696961         3
        19        17        16        34     9      180.000000        0.020091         4
        19        17        18        25     9        0.000000        0.000000         1
        19        17        18        25     9      180.000000        0.000000         2
        19        17        18        25     9        0.000000        0.000000         3
        19        17        18        25     9      180.000000        0.000000         4
        20         7         8        31     9        0.000000        0.402097         1
        20         7         8        31     9      180.000000       12.134175         2
        20         7         8        31     9        0.000000       -0.127017         3
        20         7         8        31     9      180.000000       -0.042010         4
        21        20        23        36     9        0.000000        0.069613         1
        21        20        23        36     9      180.000000       -0.049260         2
        21        20        23        36     9        0.000000        0.362935         3
        21        20        23        36     9      180.000000        0.000416         4
        21        20        23        37     9        0.000000        0.069613         1
        21        20        23        37     9      180.000000       -0.049260         2
        21        20        23        37     9        0.000000        0.362935         3
        21        20        23        37     9      180.000000        0.000416         4
        21        20        23        38     9        0.000000        0.069613         1
        21        20        23        38     9      180.000000       -0.049260         2
        21        20        23        38     9        0.000000        0.362935         3
        21        20        23        38     9      180.000000        0.000416         4
        22        20        23        36     9        0.000000        0.069613         1
        22        20        23        36     9      180.000000       -0.049260         2
        22        20        23        36     9        0.000000        0.362935         3
        22        20        23        36     9      180.000000        0.000416         4
        22        20        23        37     9        0.000000        0.069613         1
        22        20        23        37     9      180.000000       -0.049260         2
        22        20        23        37     9        0.000000        0.362935         3
        22        20        23        37     9      180.000000        0.000416         4
        22        20        23        38     9        0.000000        0.069613         1
        22        20        23        38     9      180.000000       -0.049260         2
        22        20        23        38     9        0.000000        0.362935         3
        22        20        23        38     9      180.000000        0.000416         4
        24         3         2        27     9        0.000000        0.325998         1
        24         3         2        27     9      180.000000       -0.242517         2
        24         3         2        27     9        0.000000        0.628055         3
        24         3         2        27     9      180.000000       -0.023867         4
        24         3         4        29     9        0.000000        0.181912         1
        24         3         4        29     9      180.000000       -0.144923         2
        24         3         4        29     9        0.000000        0.551549         3
        24         3         4        29     9      180.000000       -0.061526         4
        24         3         4        30     9        0.000000        0.181913         1
        24         3         4        30     9      180.000000       -0.144922         2
        24         3         4        30     9        0.000000        0.551549         3
        24         3         4        30     9      180.000000       -0.061526         4
        26         1         2        27     9        0.000000        0.151553         1
        26         1         2        27     9      180.000000       -0.438882         2
        26         1         2        27     9        0.000000        0.800630         3
        26         1         2        27     9      180.000000        0.155090         4
        27         2         3        28     9        0.000000       -0.232963         1
        27         2         3        28     9      180.000000       -0.073482         2
        27         2         3        28     9        0.000000        0.650956         3
        27         2         3        28     9      180.000000       -0.029348         4
        28         3         4        29     9        0.000000       -0.037126         1
        28         3         4        29     9      180.000000       -0.048081         2
        28         3         4        29     9        0.000000        0.492772         3
        28         3         4        29     9      180.000000        0.022808         4
        28         3         4        30     9        0.000000       -0.037126         1
        28         3         4        30     9      180.000000       -0.048082         2
        28         3         4        30     9        0.000000        0.492772         3
        28         3         4        30     9      180.000000        0.022808         4
        31         8         9        32     9        0.000000       -0.065100         1
        31         8         9        32     9      180.000000       12.613612         2
        31         8         9        32     9        0.000000       -0.850597         3
        31         8         9        32     9      180.000000        0.246894         4

[ dihedrals ] ; impropers
;       ai        aj        ak        al funct           phase               k        pn
        14        13        15        16     4      180.000000        1.740412         2
        14        15        16        13     4      180.000000        1.740412         2
        14        16        13        15     4      180.000000        1.740412         2

[ pairs ]
;       ai        aj funct
         1         4     1
         1         5     1
         1         7     1
         1        24     1
         1        28     1
         2         8     1
         2        10     1
         2        20     1
         2        29     1
         2        30     1
         3         7     1
         3        10     1
         3        26     1
         4         7     1
         4         9     1
         4        11     1
         4        27     1
         5         8     1
         5        12     1
         5        20     1
         5        24     1
         5        27     1
         5        28     1
         5        32     1
         6         9     1
         6        11     1
         6        21     1
         6        22     1
         6        23     1
         6        24     1
         6        26     1
         6        28     1
         6        29     1
         6        30     1
         6        31     1
         7        10     1
         7        27     1
         7        32     1
         7        36     1
         7        37     1
         7        38     1
         8        11     1
         8        21     1
         8        22     1
         8        23     1
         9        12     1
         9        20     1
        10        13     1
        10        19     1
        10        29     1
        10        30     1
        10        31     1
        11        14     1
        11        17     1
        11        32     1
        11        33     1
        11        35     1
        12        15     1
        12        16     1
        12        18     1
        13        17     1
        13        34     1
        13        35     1
        14        18     1
        14        19     1
        15        17     1
        15        33     1
        15        34     1
        16        25     1
        16        33     1
        16        35     1
        18        34     1
        18        35     1
        19        25     1
        19        33     1
        19        34     1
        20        31     1
        21        36     1
        21        37     1
        21        38     1
        22        36     1
        22        37     1
        22        38     1
        24        27     1
        24        29     1
        24        30     1
        26        27     1
        27        28     1
        28        29     1
        28        30     1
        31        32     1
