; ITP file created by ByteFF-ML, 2026-02-21 07:40:10.948482

[ atomtypes ]
;name           bonded.type        at.num        mass        charge   ptype           sigma         epsilon
 o0bf                                   8      0.0000       0.00000       A     3.23829e-01     3.88924e-01
 c1bf                                   6      0.0000       0.00000       A     3.40155e-01     4.48409e-01
 c2bf                                   6      0.0000       0.00000       A     3.39806e-01     4.53836e-01
 c3bf                                   6      0.0000       0.00000       A     3.39919e-01     4.53552e-01
 c4bf                                   6      0.0000       0.00000       A     3.31691e-01     4.12736e-01
 c5bf                                   6      0.0000       0.00000       A     3.31641e-01     4.12386e-01
 c6bf                                   6      0.0000       0.00000       A     3.31260e-01     4.13503e-01
 c7bf                                   6      0.0000       0.00000       A     3.31352e-01     4.14121e-01
 c8bf                                   6      0.0000       0.00000       A     3.31334e-01     4.13082e-01
 c9bf                                   6      0.0000       0.00000       A     3.31558e-01     4.13007e-01
 o10bf                                  8      0.0000       0.00000       A     3.15897e-01     3.07824e-01
 c11bf                                  6      0.0000       0.00000       A     3.31351e-01     4.14220e-01
 c12bf                                  6      0.0000       0.00000       A     3.31499e-01     4.13797e-01
 n13bf                                  7      0.0000       0.00000       A     3.38317e-01     3.93024e-01
 c14bf                                  6      0.0000       0.00000       A     3.31459e-01     4.13786e-01
 c15bf                                  6      0.0000       0.00000       A     3.31463e-01     4.13589e-01
 c16bf                                  6      0.0000       0.00000       A     3.48274e-01     6.70055e-01
 c17bf                                  6      0.0000       0.00000       A     3.31466e-01     4.14094e-01
 s18bf                                 16      0.0000       0.00000       A     4.05925e-01     2.58262e-01
 o19bf                                  8      0.0000       0.00000       A     3.05136e-01     6.14715e-01
 o20bf                                  8      0.0000       0.00000       A     3.05136e-01     6.14715e-01
 c21bf                                  6      0.0000       0.00000       A     3.39605e-01     4.51520e-01
 f22bf                                  9      0.0000       0.00000       A     3.03598e-01     3.48417e-01
 f23bf                                  9      0.0000       0.00000       A     3.03598e-01     3.48417e-01
 n24bf                                  7      0.0000       0.00000       A     3.27394e-01     4.58168e-01
 f25bf                                  9      0.0000       0.00000       A     3.02962e-01     3.48010e-01
 f26bf                                  9      0.0000       0.00000       A     3.02962e-01     3.48010e-01
 f27bf                                  9      0.0000       0.00000       A     3.02962e-01     3.48010e-01
 h28bf                                  1      0.0000       0.00000       A     5.36710e-02     1.95151e-02
 h29bf                                  1      0.0000       0.00000       A     2.41570e-01     8.63936e-02
 h30bf                                  1      0.0000       0.00000       A     2.60031e-01     8.68485e-02
 h31bf                                  1      0.0000       0.00000       A     2.60031e-01     8.68485e-02
 h32bf                                  1      0.0000       0.00000       A     2.62720e-01     6.76047e-02
 h33bf                                  1      0.0000       0.00000       A     2.62431e-01     6.72328e-02
 h34bf                                  1      0.0000       0.00000       A     2.53445e-01     6.68689e-02
 h35bf                                  1      0.0000       0.00000       A     2.53539e-01     6.73414e-02
 h36bf                                  1      0.0000       0.00000       A     2.62316e-01     6.74212e-02

[ moleculetype ]
;name             nrexcl
 235                   3

[ atoms ]
;       nr            type      resi   res      atom      cgnr      charge          mass ; qtot
         1            o0bf         1   UNL        o0         1    -0.64391       15.9990 ; qtot   -0.644
         2            c1bf         1   UNL        c1         2     0.18391       12.0110 ; qtot   -0.460
         3            c2bf         1   UNL        c2         3     0.15503       12.0110 ; qtot   -0.305
         4            c3bf         1   UNL        c3         4    -0.06008       12.0110 ; qtot   -0.365
         5            c4bf         1   UNL        c4         5    -0.09665       12.0110 ; qtot   -0.462
         6            c5bf         1   UNL        c5         6     0.00989       12.0110 ; qtot   -0.452
         7            c6bf         1   UNL        c6         7    -0.22245       12.0110 ; qtot   -0.674
         8            c7bf         1   UNL        c7         8     0.01616       12.0110 ; qtot   -0.658
         9            c8bf         1   UNL        c8         9    -0.14920       12.0110 ; qtot   -0.807
        10            c9bf         1   UNL        c9        10     0.14411       12.0110 ; qtot   -0.663
        11           o10bf         1   UNL       o10        11    -0.23481       15.9990 ; qtot   -0.898
        12           c11bf         1   UNL       c11        12     0.07213       12.0110 ; qtot   -0.826
        13           c12bf         1   UNL       c12        13     0.32308       12.0110 ; qtot   -0.503
        14           n13bf         1   UNL       n13        14    -0.63823       14.0070 ; qtot   -1.141
        15           c14bf         1   UNL       c14        15     0.35663       12.0110 ; qtot   -0.784
        16           c15bf         1   UNL       c15        16    -0.03890       12.0110 ; qtot   -0.823
        17           c16bf         1   UNL       c16        17     0.31631       12.0110 ; qtot   -0.507
        18           c17bf         1   UNL       c17        18    -0.07233       12.0110 ; qtot   -0.579
        19           s18bf         1   UNL       s18        19     0.96262       32.0670 ; qtot    0.383
        20           o19bf         1   UNL       o19        20    -0.45928       15.9990 ; qtot   -0.076
        21           o20bf         1   UNL       o20        21    -0.45928       15.9990 ; qtot   -0.535
        22           c21bf         1   UNL       c21        22     0.16659       12.0110 ; qtot   -0.369
        23           f22bf         1   UNL       f22        23    -0.10126       18.9980 ; qtot   -0.470
        24           f23bf         1   UNL       f23        24    -0.10126       18.9980 ; qtot   -0.571
        25           n24bf         1   UNL       n24        25    -0.43683       14.0070 ; qtot   -1.008
        26           f25bf         1   UNL       f25        26    -0.08289       18.9980 ; qtot   -1.091
        27           f26bf         1   UNL       f26        27    -0.08289       18.9980 ; qtot   -1.174
        28           f27bf         1   UNL       f27        28    -0.08289       18.9980 ; qtot   -1.257
        29           h28bf         1   UNL       h28        29     0.46187        1.0080 ; qtot   -0.795
        30           h29bf         1   UNL       h29        30     0.09424        1.0080 ; qtot   -0.701
        31           h30bf         1   UNL       h30        31     0.09046        1.0080 ; qtot   -0.610
        32           h31bf         1   UNL       h31        32     0.09046        1.0080 ; qtot   -0.520
        33           h32bf         1   UNL       h32        33     0.14984        1.0080 ; qtot   -0.370
        34           h33bf         1   UNL       h33        34     0.13696        1.0080 ; qtot   -0.233
        35           h34bf         1   UNL       h34        35     0.04215        1.0080 ; qtot   -0.191
        36           h35bf         1   UNL       h35        36     0.04003        1.0080 ; qtot   -0.151
        37           h36bf         1   UNL       h36        37     0.15067        1.0080 ; qtot   -0.000

[ bonds ]
;       ai        aj funct               r               k
         1         2     1        0.142089   213175.719336
         1        29     1        0.097160   464731.313574
         2         3     1        0.155081   154333.290674
         2         6     1        0.151886   172095.473877
         2        30     1        0.109501   296513.675293
         3         4     1        0.153347   171559.079663
         3        23     1        0.137650   224399.891797
         3        24     1        0.137650   224399.891797
         4         5     1        0.151012   191627.672437
         4        31     1        0.109299   306936.288965
         4        32     1        0.109299   306936.288965
         5         6     1        0.139828   281577.198779
         5        10     1        0.139503   295764.544189
         6         7     1        0.139874   292942.336084
         7         8     1        0.139860   299573.097607
         7        19     1        0.179169   127521.356030
         8         9     1        0.139448   319876.376416
         8        33     1        0.108389   327451.066113
         9        10     1        0.139873   294917.810254
         9        34     1        0.108424   325013.881006
        10        11     1        0.138649   235297.291406
        11        12     1        0.137182   256246.965527
        12        13     1        0.140407   273805.643506
        12        18     1        0.139286   304005.011865
        13        14     1        0.133722   326181.335498
        13        35     1        0.108659   320786.416846
        14        15     1        0.133458   326377.077441
        15        16     1        0.140751   274389.983643
        15        36     1        0.108669   322175.916504
        16        17     1        0.143502   274496.498926
        16        18     1        0.140282   301359.878076
        17        25     1        0.116516  1107015.611133
        18        37     1        0.108452   326953.909668
        19        20     1        0.146431   531792.426758
        19        21     1        0.146431   531792.426758
        19        22     1        0.190227   134210.329395
        22        26     1        0.133876   269218.693457
        22        27     1        0.133876   269218.693457
        22        28     1        0.133876   269218.693457

[ angles ]
;       ai        aj        ak funct           theta             cth
         1         2         3     1      112.810814      504.488564
         1         2         6     1      112.434753      634.168783
         1         2        30     1      108.656921      411.490871
         2         1        29     1      107.962685      571.596608
         2         3         4     1      107.597389      448.756217
         2         3        23     1      110.369896      538.766547
         2         3        24     1      110.369896      538.766547
         2         6         5     1      110.094437      408.474492
         2         6         7     1      129.561188      417.660509
         3         2         6     1      101.913521      559.721661
         3         2        30     1      108.538010      462.332255
         3         4         5     1      102.386635      561.213028
         3         4        31     1      110.204872      490.175876
         3         4        32     1      110.204872      490.175876
         4         3        23     1      111.618088      567.835311
         4         3        24     1      111.618088      567.835311
         4         5         6     1      111.683121      375.773904
         4         5        10     1      127.965225      423.151339
         5         4        31     1      112.423706      451.867914
         5         4        32     1      112.423706      451.867914
         5         6         7     1      119.476700      604.288003
         5        10         9     1      120.060326      670.271552
         5        10        11     1      118.812218      418.394382
         6         2        30     1      111.599403      427.038310
         6         5        10     1      120.131104      666.641260
         6         7         8     1      120.461525      682.891992
         6         7        19     1      122.137184      546.044688
         7         8         9     1      120.180458      592.067985
         7         8        33     1      119.832397      369.751360
         7        19        20     1      109.407471      623.445751
         7        19        21     1      109.407471      623.445751
         7        19        22     1      102.486572      449.498230
         8         7        19     1      117.389000      534.105131
         8         9        10     1      119.759544      704.937795
         8         9        34     1      120.673767      420.757682
         9         8        33     1      120.598717      398.852875
         9        10        11     1      121.019333      532.004832
        10         9        34     1      119.720413      428.860607
        10        11        12     1      118.722267      428.037322
        11        12        13     1      120.490982      556.434971
        11        12        18     1      120.217239      506.694811
        12        13        14     1      122.844406      743.291214
        12        13        35     1      119.948746      407.138486
        12        18        16     1      117.839432      753.893391
        12        18        37     1      120.876564      413.372988
        13        12        18     1      118.916733      679.428457
        13        14        15     1      118.320801      674.368279
        14        13        35     1      117.060669      340.319873
        14        15        16     1      122.607323      661.256825
        14        15        36     1      117.248398      335.741612
        15        16        17     1      120.217674      511.027884
        15        16        18     1      119.044884      738.651248
        16        15        36     1      120.271828      400.214833
        16        17        25     1      179.618057      167.360000
        16        18        37     1      121.217285      402.360461
        17        16        18     1      120.490990      467.101981
        19        22        26     1      109.502701      457.627458
        19        22        27     1      109.502701      457.627458
        19        22        28     1      109.502701      457.627458
        20        19        21     1      122.141808      706.229909
        20        19        22     1      104.918198      350.942736
        21        19        22     1      104.918198      350.942736
        23         3        24     1      106.171570      726.740804
        26        22        27     1      109.097580      705.605016
        26        22        28     1      109.097572      705.605016
        27        22        28     1      109.097572      705.605016
        31         4        32     1      107.711754      357.271981

[ dihedrals ] ; propers for gromacs 4.5 or higher, use funct 9
;       ai        aj        ak        al funct           phase               k        pn
         1         2         3         4     9        0.000000       -2.316051         1
         1         2         3         4     9      180.000000        1.227582         2
         1         2         3         4     9        0.000000        0.447916         3
         1         2         3         4     9      180.000000       -0.134155         4
         1         2         3        23     9        0.000000        0.925729         1
         1         2         3        23     9      180.000000        0.198236         2
         1         2         3        23     9        0.000000        0.694412         3
         1         2         3        23     9      180.000000       -0.120878         4
         1         2         3        24     9        0.000000        0.925729         1
         1         2         3        24     9      180.000000        0.198236         2
         1         2         3        24     9        0.000000        0.694412         3
         1         2         3        24     9      180.000000       -0.120878         4
         1         2         6         5     9        0.000000       -2.852257         1
         1         2         6         5     9      180.000000        3.217149         2
         1         2         6         5     9        0.000000        0.275663         3
         1         2         6         5     9      180.000000        1.249625         4
         1         2         6         7     9        0.000000       -0.938993         1
         1         2         6         7     9      180.000000        2.556924         2
         1         2         6         7     9        0.000000        0.022276         3
         1         2         6         7     9      180.000000        0.489602         4
         2         3         4         5     9        0.000000       -0.920327         1
         2         3         4         5     9      180.000000        4.722876         2
         2         3         4         5     9        0.000000       -0.153619         3
         2         3         4         5     9      180.000000       -1.127137         4
         2         3         4        31     9        0.000000        0.020287         1
         2         3         4        31     9      180.000000        0.002269         2
         2         3         4        31     9        0.000000        0.073985         3
         2         3         4        31     9      180.000000        0.044940         4
         2         3         4        32     9        0.000000        0.020287         1
         2         3         4        32     9      180.000000        0.002269         2
         2         3         4        32     9        0.000000        0.073985         3
         2         3         4        32     9      180.000000        0.044940         4
         2         6         5         4     9        0.000000       -0.158217         1
         2         6         5         4     9      180.000000       19.168571         2
         2         6         5         4     9        0.000000       -2.810828         3
         2         6         5         4     9      180.000000       -0.454557         4
         2         6         5        10     9        0.000000        0.039835         1
         2         6         5        10     9      180.000000       14.863566         2
         2         6         5        10     9        0.000000       -1.412992         3
         2         6         5        10     9      180.000000       -0.362941         4
         2         6         7         8     9        0.000000       -0.033463         1
         2         6         7         8     9      180.000000       13.714574         2
         2         6         7         8     9        0.000000       -0.019558         3
         2         6         7         8     9      180.000000       -0.377708         4
         2         6         7        19     9        0.000000       -0.285034         1
         2         6         7        19     9      180.000000        9.255397         2
         2         6         7        19     9        0.000000        0.374741         3
         2         6         7        19     9      180.000000       -0.479050         4
         3         2         1        29     9        0.000000        1.285396         1
         3         2         1        29     9      180.000000       -3.328464         2
         3         2         1        29     9        0.000000        0.697281         3
         3         2         1        29     9      180.000000        0.165302         4
         3         2         6         5     9        0.000000       -0.729488         1
         3         2         6         5     9      180.000000       13.703853         2
         3         2         6         5     9        0.000000       -1.390356         3
         3         2         6         5     9      180.000000       -0.199536         4
         3         2         6         7     9        0.000000       -0.824701         1
         3         2         6         7     9      180.000000        1.853898         2
         3         2         6         7     9        0.000000       -0.204964         3
         3         2         6         7     9      180.000000        0.901925         4
         3         4         5         6     9        0.000000       -0.613159         1
         3         4         5         6     9      180.000000       13.041025         2
         3         4         5         6     9        0.000000       -1.959443         3
         3         4         5         6     9      180.000000       -0.710201         4
         3         4         5        10     9        0.000000        0.761139         1
         3         4         5        10     9      180.000000        0.867875         2
         3         4         5        10     9        0.000000       -0.126088         3
         3         4         5        10     9      180.000000        0.556044         4
         4         3         2         6     9        0.000000       -1.003684         1
         4         3         2         6     9      180.000000        5.083538         2
         4         3         2         6     9        0.000000       -0.079224         3
         4         3         2         6     9      180.000000       -1.615636         4
         4         3         2        30     9        0.000000       -0.231699         1
         4         3         2        30     9      180.000000        0.281540         2
         4         3         2        30     9        0.000000        0.367337         3
         4         3         2        30     9      180.000000       -0.065595         4
         4         5         6         7     9        0.000000       -0.288829         1
         4         5         6         7     9      180.000000       13.975494         2
         4         5         6         7     9        0.000000       -1.370679         3
         4         5         6         7     9      180.000000       -0.109281         4
         4         5        10         9     9        0.000000       -0.204917         1
         4         5        10         9     9      180.000000       12.542067         2
         4         5        10         9     9        0.000000       -0.134633         3
         4         5        10         9     9      180.000000       -0.062873         4
         4         5        10        11     9        0.000000       -0.242899         1
         4         5        10        11     9      180.000000       15.794290         2
         4         5        10        11     9        0.000000        0.152465         3
         4         5        10        11     9      180.000000       -0.334345         4
         5         4         3        23     9        0.000000        0.329691         1
         5         4         3        23     9      180.000000        0.109473         2
         5         4         3        23     9        0.000000        0.398011         3
         5         4         3        23     9      180.000000        0.211076         4
         5         4         3        24     9        0.000000        0.329691         1
         5         4         3        24     9      180.000000        0.109473         2
         5         4         3        24     9        0.000000        0.398011         3
         5         4         3        24     9      180.000000        0.211076         4
         5         6         2        30     9        0.000000        1.151389         1
         5         6         2        30     9      180.000000        0.744990         2
         5         6         2        30     9        0.000000       -0.322976         3
         5         6         2        30     9      180.000000        0.664679         4
         5         6         7         8     9        0.000000        0.076178         1
         5         6         7         8     9      180.000000       18.774097         2
         5         6         7         8     9        0.000000       -1.806093         3
         5         6         7         8     9      180.000000       -0.407817         4
         5         6         7        19     9        0.000000       -0.629835         1
         5         6         7        19     9      180.000000       10.753000         2
         5         6         7        19     9        0.000000       -0.079397         3
         5         6         7        19     9      180.000000       -0.463950         4
         5        10         9         8     9        0.000000       -0.099923         1
         5        10         9         8     9      180.000000       17.653191         2
         5        10         9         8     9        0.000000       -1.233400         3
         5        10         9         8     9      180.000000       -0.412874         4
         5        10         9        34     9        0.000000       -0.020109         1
         5        10         9        34     9      180.000000       13.422877         2
         5        10         9        34     9        0.000000       -0.405715         3
         5        10         9        34     9      180.000000        0.029892         4
         5        10        11        12     9        0.000000       -0.048913         1
         5        10        11        12     9      180.000000        3.535065         2
         5        10        11        12     9        0.000000        0.437554         3
         5        10        11        12     9      180.000000        0.100878         4
         6         2         1        29     9        0.000000        5.399917         1
         6         2         1        29     9      180.000000       -2.669684         2
         6         2         1        29     9        0.000000        0.864465         3
         6         2         1        29     9      180.000000        0.134895         4
         6         2         3        23     9        0.000000        0.300676         1
         6         2         3        23     9      180.000000        0.344407         2
         6         2         3        23     9        0.000000        0.324360         3
         6         2         3        23     9      180.000000        0.201606         4
         6         2         3        24     9        0.000000        0.300676         1
         6         2         3        24     9      180.000000        0.344407         2
         6         2         3        24     9        0.000000        0.324360         3
         6         2         3        24     9      180.000000        0.201606         4
         6         5         4        31     9        0.000000        0.047399         1
         6         5         4        31     9      180.000000       -0.027071         2
         6         5         4        31     9        0.000000       -0.452263         3
         6         5         4        31     9      180.000000        0.382459         4
         6         5         4        32     9        0.000000        0.047399         1
         6         5         4        32     9      180.000000       -0.027071         2
         6         5         4        32     9        0.000000       -0.452263         3
         6         5         4        32     9      180.000000        0.382459         4
         6         5        10         9     9        0.000000        0.001848         1
         6         5        10         9     9      180.000000       17.048445         2
         6         5        10         9     9        0.000000       -1.127244         3
         6         5        10         9     9      180.000000       -0.464661         4
         6         5        10        11     9        0.000000        0.345529         1
         6         5        10        11     9      180.000000       17.742651         2
         6         5        10        11     9        0.000000        0.289676         3
         6         5        10        11     9      180.000000       -0.590501         4
         6         7         8         9     9        0.000000       -0.082477         1
         6         7         8         9     9      180.000000       19.640683         2
         6         7         8         9     9        0.000000       -1.758334         3
         6         7         8         9     9      180.000000       -0.536453         4
         6         7         8        33     9        0.000000        0.050179         1
         6         7         8        33     9      180.000000       14.601026         2
         6         7         8        33     9        0.000000       -0.529638         3
         6         7         8        33     9      180.000000       -0.036322         4
         6         7        19        20     9        0.000000       -0.038238         1
         6         7        19        20     9      180.000000        0.945122         2
         6         7        19        20     9        0.000000        0.466953         3
         6         7        19        20     9      180.000000       -0.118047         4
         6         7        19        21     9        0.000000       -0.038238         1
         6         7        19        21     9      180.000000        0.945122         2
         6         7        19        21     9        0.000000        0.466953         3
         6         7        19        21     9      180.000000       -0.118047         4
         6         7        19        22     9        0.000000        1.984305         1
         6         7        19        22     9      180.000000       -3.075219         2
         6         7        19        22     9        0.000000        0.473197         3
         6         7        19        22     9      180.000000        0.159016         4
         7         6         2        30     9        0.000000        0.827921         1
         7         6         2        30     9      180.000000        0.234513         2
         7         6         2        30     9        0.000000       -0.083416         3
         7         6         2        30     9      180.000000        0.270847         4
         7         6         5        10     9        0.000000       -0.088946         1
         7         6         5        10     9      180.000000       14.925174         2
         7         6         5        10     9        0.000000       -1.902212         3
         7         6         5        10     9      180.000000       -0.240604         4
         7         8         9        10     9        0.000000       -0.178169         1
         7         8         9        10     9      180.000000       18.698489         2
         7         8         9        10     9        0.000000       -1.900287         3
         7         8         9        10     9      180.000000       -0.459340         4
         7         8         9        34     9        0.000000        0.054306         1
         7         8         9        34     9      180.000000       14.510460         2
         7         8         9        34     9        0.000000       -0.752476         3
         7         8         9        34     9      180.000000        0.030693         4
         7        19        22        26     9        0.000000       -0.182321         1
         7        19        22        26     9      180.000000       -0.203991         2
         7        19        22        26     9        0.000000        0.205073         3
         7        19        22        26     9      180.000000        0.012482         4
         7        19        22        27     9        0.000000       -0.182321         1
         7        19        22        27     9      180.000000       -0.203991         2
         7        19        22        27     9        0.000000        0.205073         3
         7        19        22        27     9      180.000000        0.012482         4
         7        19        22        28     9        0.000000       -0.182321         1
         7        19        22        28     9      180.000000       -0.203991         2
         7        19        22        28     9        0.000000        0.205073         3
         7        19        22        28     9      180.000000        0.012482         4
         8         7        19        20     9        0.000000       -0.044469         1
         8         7        19        20     9      180.000000        1.064694         2
         8         7        19        20     9        0.000000        0.042383         3
         8         7        19        20     9      180.000000       -0.020068         4
         8         7        19        21     9        0.000000       -0.044469         1
         8         7        19        21     9      180.000000        1.064694         2
         8         7        19        21     9        0.000000        0.042383         3
         8         7        19        21     9      180.000000       -0.020068         4
         8         7        19        22     9        0.000000        0.371168         1
         8         7        19        22     9      180.000000       -2.189255         2
         8         7        19        22     9        0.000000       -0.023026         3
         8         7        19        22     9      180.000000        0.162125         4
         8         9        10        11     9        0.000000        0.672460         1
         8         9        10        11     9      180.000000       19.213042         2
         8         9        10        11     9        0.000000        0.447237         3
         8         9        10        11     9      180.000000       -0.258098         4
         9         8         7        19     9        0.000000       -0.267550         1
         9         8         7        19     9      180.000000       13.318470         2
         9         8         7        19     9        0.000000        0.003598         3
         9         8         7        19     9      180.000000       -0.283622         4
         9        10        11        12     9        0.000000        0.056697         1
         9        10        11        12     9      180.000000        4.322463         2
         9        10        11        12     9        0.000000       -0.387801         3
         9        10        11        12     9      180.000000        0.303581         4
        10         5         4        31     9        0.000000        0.064112         1
        10         5         4        31     9      180.000000        0.099019         2
        10         5         4        31     9        0.000000        0.057216         3
        10         5         4        31     9      180.000000        0.066886         4
        10         5         4        32     9        0.000000        0.064112         1
        10         5         4        32     9      180.000000        0.099019         2
        10         5         4        32     9        0.000000        0.057216         3
        10         5         4        32     9      180.000000        0.066886         4
        10         9         8        33     9        0.000000        0.183185         1
        10         9         8        33     9      180.000000       14.656042         2
        10         9         8        33     9        0.000000       -0.484207         3
        10         9         8        33     9      180.000000        0.079281         4
        10        11        12        13     9        0.000000        0.862026         1
        10        11        12        13     9      180.000000        4.086285         2
        10        11        12        13     9        0.000000        0.090518         3
        10        11        12        13     9      180.000000        0.188814         4
        10        11        12        18     9        0.000000       -0.110203         1
        10        11        12        18     9      180.000000        4.678770         2
        10        11        12        18     9        0.000000       -0.241246         3
        10        11        12        18     9      180.000000        0.284738         4
        11        10         9        34     9        0.000000        0.203671         1
        11        10         9        34     9      180.000000       14.178081         2
        11        10         9        34     9        0.000000        0.057447         3
        11        10         9        34     9      180.000000        0.396097         4
        11        12        13        14     9        0.000000        0.065591         1
        11        12        13        14     9      180.000000       16.715221         2
        11        12        13        14     9        0.000000        0.437402         3
        11        12        13        14     9      180.000000       -0.629744         4
        11        12        13        35     9        0.000000        0.291845         1
        11        12        13        35     9      180.000000       13.412460         2
        11        12        13        35     9        0.000000        0.109320         3
        11        12        13        35     9      180.000000        0.336435         4
        11        12        18        16     9        0.000000        0.389033         1
        11        12        18        16     9      180.000000       17.776593         2
        11        12        18        16     9        0.000000        0.499377         3
        11        12        18        16     9      180.000000       -0.183412         4
        11        12        18        37     9        0.000000        0.221129         1
        11        12        18        37     9      180.000000       13.690825         2
        11        12        18        37     9        0.000000        0.051980         3
        11        12        18        37     9      180.000000        0.343037         4
        12        13        14        15     9        0.000000        0.291391         1
        12        13        14        15     9      180.000000       21.933923         2
        12        13        14        15     9        0.000000       -0.804920         3
        12        13        14        15     9      180.000000       -0.069415         4
        12        18        16        15     9        0.000000       -0.126081         1
        12        18        16        15     9      180.000000       17.563350         2
        12        18        16        15     9        0.000000       -1.784507         3
        12        18        16        15     9      180.000000       -0.404841         4
        12        18        16        17     9        0.000000       -0.029444         1
        12        18        16        17     9      180.000000       16.410663         2
        12        18        16        17     9        0.000000       -0.166777         3
        12        18        16        17     9      180.000000       -0.362933         4
        13        12        18        16     9        0.000000       -0.077089         1
        13        12        18        16     9      180.000000       16.388370         2
        13        12        18        16     9        0.000000       -0.931739         3
        13        12        18        16     9      180.000000       -0.293905         4
        13        12        18        37     9        0.000000        0.025780         1
        13        12        18        37     9      180.000000       12.290737         2
        13        12        18        37     9        0.000000       -0.509157         3
        13        12        18        37     9      180.000000        0.160507         4
        13        14        15        16     9        0.000000        0.032755         1
        13        14        15        16     9      180.000000       23.272467         2
        13        14        15        16     9        0.000000       -0.741982         3
        13        14        15        16     9      180.000000       -0.231783         4
        13        14        15        36     9        0.000000        1.096190         1
        13        14        15        36     9      180.000000       21.021037         2
        13        14        15        36     9        0.000000        0.243808         3
        13        14        15        36     9      180.000000       -0.450442         4
        14        13        12        18     9        0.000000        0.121872         1
        14        13        12        18     9      180.000000       13.942173         2
        14        13        12        18     9        0.000000       -0.303683         3
        14        13        12        18     9      180.000000       -0.182445         4
        14        15        16        17     9        0.000000       -0.214341         1
        14        15        16        17     9      180.000000       15.579091         2
        14        15        16        17     9        0.000000       -0.072608         3
        14        15        16        17     9      180.000000       -0.551060         4
        14        15        16        18     9        0.000000       -0.113573         1
        14        15        16        18     9      180.000000       16.644936         2
        14        15        16        18     9        0.000000       -0.810406         3
        14        15        16        18     9      180.000000       -0.328139         4
        15        14        13        35     9        0.000000        1.060993         1
        15        14        13        35     9      180.000000       19.523808         2
        15        14        13        35     9        0.000000        0.129824         3
        15        14        13        35     9      180.000000       -0.284621         4
        15        16        17        25     9        0.000000        0.000000         1
        15        16        17        25     9      180.000000        0.000000         2
        15        16        17        25     9        0.000000        0.000000         3
        15        16        17        25     9      180.000000        0.000000         4
        15        16        18        37     9        0.000000        0.061697         1
        15        16        18        37     9      180.000000       13.366094         2
        15        16        18        37     9        0.000000       -0.676494         3
        15        16        18        37     9      180.000000        0.096368         4
        17        16        15        36     9        0.000000        0.149774         1
        17        16        15        36     9      180.000000       12.857375         2
        17        16        15        36     9        0.000000       -0.126986         3
        17        16        15        36     9      180.000000        0.007318         4
        17        16        18        37     9        0.000000        0.102057         1
        17        16        18        37     9      180.000000       12.834002         2
        17        16        18        37     9        0.000000       -0.298803         3
        17        16        18        37     9      180.000000        0.108366         4
        18        12        13        35     9        0.000000        0.300895         1
        18        12        13        35     9      180.000000       12.073363         2
        18        12        13        35     9        0.000000       -0.229840         3
        18        12        13        35     9      180.000000        0.129272         4
        18        16        15        36     9        0.000000        0.103547         1
        18        16        15        36     9      180.000000       13.322931         2
        18        16        15        36     9        0.000000       -0.448340         3
        18        16        15        36     9      180.000000        0.031579         4
        18        16        17        25     9        0.000000        0.000000         1
        18        16        17        25     9      180.000000        0.000000         2
        18        16        17        25     9        0.000000        0.000000         3
        18        16        17        25     9      180.000000        0.000000         4
        19         7         8        33     9        0.000000        0.266414         1
        19         7         8        33     9      180.000000       11.746161         2
        19         7         8        33     9        0.000000       -0.308103         3
        19         7         8        33     9      180.000000       -0.034733         4
        20        19        22        26     9        0.000000        0.201334         1
        20        19        22        26     9      180.000000        0.027334         2
        20        19        22        26     9        0.000000        0.263610         3
        20        19        22        26     9      180.000000        0.122726         4
        20        19        22        27     9        0.000000        0.201334         1
        20        19        22        27     9      180.000000        0.027334         2
        20        19        22        27     9        0.000000        0.263610         3
        20        19        22        27     9      180.000000        0.122726         4
        20        19        22        28     9        0.000000        0.201334         1
        20        19        22        28     9      180.000000        0.027334         2
        20        19        22        28     9        0.000000        0.263610         3
        20        19        22        28     9      180.000000        0.122726         4
        21        19        22        26     9        0.000000        0.201334         1
        21        19        22        26     9      180.000000        0.027334         2
        21        19        22        26     9        0.000000        0.263610         3
        21        19        22        26     9      180.000000        0.122726         4
        21        19        22        27     9        0.000000        0.201334         1
        21        19        22        27     9      180.000000        0.027334         2
        21        19        22        27     9        0.000000        0.263610         3
        21        19        22        27     9      180.000000        0.122726         4
        21        19        22        28     9        0.000000        0.201334         1
        21        19        22        28     9      180.000000        0.027334         2
        21        19        22        28     9        0.000000        0.263610         3
        21        19        22        28     9      180.000000        0.122726         4
        23         3         2        30     9        0.000000       -0.105368         1
        23         3         2        30     9      180.000000        0.049510         2
        23         3         2        30     9        0.000000        0.512239         3
        23         3         2        30     9      180.000000        0.003501         4
        23         3         4        31     9        0.000000        0.023670         1
        23         3         4        31     9      180.000000       -0.092713         2
        23         3         4        31     9        0.000000        0.509467         3
        23         3         4        31     9      180.000000       -0.035231         4
        23         3         4        32     9        0.000000        0.023670         1
        23         3         4        32     9      180.000000       -0.092713         2
        23         3         4        32     9        0.000000        0.509467         3
        23         3         4        32     9      180.000000       -0.035231         4
        24         3         2        30     9        0.000000       -0.105368         1
        24         3         2        30     9      180.000000        0.049510         2
        24         3         2        30     9        0.000000        0.512239         3
        24         3         2        30     9      180.000000        0.003501         4
        24         3         4        31     9        0.000000        0.023670         1
        24         3         4        31     9      180.000000       -0.092713         2
        24         3         4        31     9        0.000000        0.509467         3
        24         3         4        31     9      180.000000       -0.035231         4
        24         3         4        32     9        0.000000        0.023670         1
        24         3         4        32     9      180.000000       -0.092713         2
        24         3         4        32     9        0.000000        0.509467         3
        24         3         4        32     9      180.000000       -0.035231         4
        29         1         2        30     9        0.000000        0.165313         1
        29         1         2        30     9      180.000000       -0.087622         2
        29         1         2        30     9        0.000000        0.730153         3
        29         1         2        30     9      180.000000        0.188148         4
        33         8         9        34     9        0.000000       -0.061472         1
        33         8         9        34     9      180.000000       12.728388         2
        33         8         9        34     9        0.000000       -0.852951         3
        33         8         9        34     9      180.000000        0.229385         4

[ dihedrals ] ; impropers
;       ai        aj        ak        al funct           phase               k        pn
        13        12        14        35     4      180.000000        6.086110         2
        13        14        35        12     4      180.000000        6.086110         2
        13        35        12        14     4      180.000000        6.086110         2
        15        14        16        36     4      180.000000        5.172779         2
        15        16        36        14     4      180.000000        5.172779         2
        15        36        14        16     4      180.000000        5.172779         2

[ pairs ]
;       ai        aj funct
         1         4     1
         1         5     1
         1         7     1
         1        23     1
         1        24     1
         2         8     1
         2        10     1
         2        19     1
         2        31     1
         2        32     1
         3         7     1
         3        10     1
         3        29     1
         4         7     1
         4         9     1
         4        11     1
         4        30     1
         5         8     1
         5        12     1
         5        19     1
         5        23     1
         5        24     1
         5        30     1
         5        34     1
         6         9     1
         6        11     1
         6        20     1
         6        21     1
         6        22     1
         6        23     1
         6        24     1
         6        29     1
         6        31     1
         6        32     1
         6        33     1
         7        10     1
         7        26     1
         7        27     1
         7        28     1
         7        30     1
         7        34     1
         8        11     1
         8        20     1
         8        21     1
         8        22     1
         9        12     1
         9        19     1
        10        13     1
        10        18     1
        10        31     1
        10        32     1
        10        33     1
        11        14     1
        11        16     1
        11        34     1
        11        35     1
        11        37     1
        12        15     1
        12        17     1
        13        16     1
        13        36     1
        13        37     1
        14        17     1
        14        18     1
        15        25     1
        15        35     1
        15        37     1
        17        36     1
        17        37     1
        18        25     1
        18        35     1
        18        36     1
        19        33     1
        20        26     1
        20        27     1
        20        28     1
        21        26     1
        21        27     1
        21        28     1
        23        30     1
        23        31     1
        23        32     1
        24        30     1
        24        31     1
        24        32     1
        29        30     1
        33        34     1
