; ITP file created by ByteFF-ML, 2026-02-21 07:39:51.638251

[ atomtypes ]
;name           bonded.type        at.num        mass        charge   ptype           sigma         epsilon
 o0bf                                   8      0.0000       0.00000       A     3.23829e-01     3.88924e-01
 c1bf                                   6      0.0000       0.00000       A     3.40155e-01     4.48409e-01
 c2bf                                   6      0.0000       0.00000       A     3.39806e-01     4.53836e-01
 c3bf                                   6      0.0000       0.00000       A     3.39919e-01     4.53552e-01
 c4bf                                   6      0.0000       0.00000       A     3.31691e-01     4.12736e-01
 c5bf                                   6      0.0000       0.00000       A     3.31640e-01     4.12404e-01
 c6bf                                   6      0.0000       0.00000       A     3.31287e-01     4.12638e-01
 c7bf                                   6      0.0000       0.00000       A     3.31349e-01     4.13862e-01
 c8bf                                   6      0.0000       0.00000       A     3.31334e-01     4.13082e-01
 c9bf                                   6      0.0000       0.00000       A     3.31551e-01     4.12804e-01
 o10bf                                  8      0.0000       0.00000       A     3.15848e-01     3.06353e-01
 c11bf                                  6      0.0000       0.00000       A     3.31461e-01     4.12807e-01
 c12bf                                  6      0.0000       0.00000       A     3.31497e-01     4.13743e-01
 c13bf                                  6      0.0000       0.00000       A     3.31573e-01     4.14252e-01
 c14bf                                  6      0.0000       0.00000       A     3.31552e-01     4.14123e-01
 c15bf                                  6      0.0000       0.00000       A     3.31534e-01     4.14279e-01
 c16bf                                  6      0.0000       0.00000       A     3.48195e-01     6.71490e-01
 c17bf                                  6      0.0000       0.00000       A     3.31496e-01     4.14341e-01
 s18bf                                 16      0.0000       0.00000       A     4.06265e-01     2.57805e-01
 o19bf                                  8      0.0000       0.00000       A     3.05144e-01     6.13663e-01
 o20bf                                  8      0.0000       0.00000       A     3.05144e-01     6.13663e-01
 c21bf                                  6      0.0000       0.00000       A     3.40010e-01     4.52743e-01
 f22bf                                  9      0.0000       0.00000       A     3.03598e-01     3.48417e-01
 f23bf                                  9      0.0000       0.00000       A     3.03598e-01     3.48417e-01
 n24bf                                  7      0.0000       0.00000       A     3.27424e-01     4.58548e-01
 f25bf                                  9      0.0000       0.00000       A     3.03156e-01     3.45383e-01
 f26bf                                  9      0.0000       0.00000       A     3.03156e-01     3.45383e-01
 f27bf                                  9      0.0000       0.00000       A     3.03468e-01     3.48235e-01
 h28bf                                  1      0.0000       0.00000       A     5.36710e-02     1.95151e-02
 h29bf                                  1      0.0000       0.00000       A     2.41570e-01     8.63936e-02
 h30bf                                  1      0.0000       0.00000       A     2.60031e-01     8.68485e-02
 h31bf                                  1      0.0000       0.00000       A     2.60031e-01     8.68485e-02
 h32bf                                  1      0.0000       0.00000       A     2.62720e-01     6.76047e-02
 h33bf                                  1      0.0000       0.00000       A     2.62431e-01     6.72328e-02
 h34bf                                  1      0.0000       0.00000       A     2.62432e-01     6.69886e-02
 h35bf                                  1      0.0000       0.00000       A     2.62464e-01     6.71849e-02
 h36bf                                  1      0.0000       0.00000       A     2.62428e-01     6.73733e-02
 h37bf                                  1      0.0000       0.00000       A     2.06402e-01     8.82802e-02

[ moleculetype ]
;name             nrexcl
 237                   3

[ atoms ]
;       nr            type      resi   res      atom      cgnr      charge          mass ; qtot
         1            o0bf         1   UNL        o0         1    -0.64391       15.9990 ; qtot   -0.644
         2            c1bf         1   UNL        c1         2     0.18375       12.0110 ; qtot   -0.460
         3            c2bf         1   UNL        c2         3     0.15503       12.0110 ; qtot   -0.305
         4            c3bf         1   UNL        c3         4    -0.06008       12.0110 ; qtot   -0.365
         5            c4bf         1   UNL        c4         5    -0.09836       12.0110 ; qtot   -0.464
         6            c5bf         1   UNL        c5         6     0.00745       12.0110 ; qtot   -0.456
         7            c6bf         1   UNL        c6         7    -0.22343       12.0110 ; qtot   -0.680
         8            c7bf         1   UNL        c7         8     0.01426       12.0110 ; qtot   -0.665
         9            c8bf         1   UNL        c8         9    -0.15173       12.0110 ; qtot   -0.817
        10            c9bf         1   UNL        c9        10     0.14670       12.0110 ; qtot   -0.670
        11           o10bf         1   UNL       o10        11    -0.24267       15.9990 ; qtot   -0.913
        12           c11bf         1   UNL       c11        12     0.15070       12.0110 ; qtot   -0.762
        13           c12bf         1   UNL       c12        13    -0.16635       12.0110 ; qtot   -0.929
        14           c13bf         1   UNL       c13        14     0.19192       12.0110 ; qtot   -0.737
        15           c14bf         1   UNL       c14        15    -0.13469       12.0110 ; qtot   -0.871
        16           c15bf         1   UNL       c15        16     0.04075       12.0110 ; qtot   -0.831
        17           c16bf         1   UNL       c16        17     0.31339       12.0110 ; qtot   -0.517
        18           c17bf         1   UNL       c17        18    -0.11736       12.0110 ; qtot   -0.635
        19           s18bf         1   UNL       s18        19     0.94264       32.0670 ; qtot    0.308
        20           o19bf         1   UNL       o19        20    -0.47324       15.9990 ; qtot   -0.165
        21           o20bf         1   UNL       o20        21    -0.47324       15.9990 ; qtot   -0.638
        22           c21bf         1   UNL       c21        22     0.04650       12.0110 ; qtot   -0.592
        23           f22bf         1   UNL       f22        23    -0.10126       18.9980 ; qtot   -0.693
        24           f23bf         1   UNL       f23        24    -0.10126       18.9980 ; qtot   -0.794
        25           n24bf         1   UNL       n24        25    -0.43909       14.0070 ; qtot   -1.234
        26           f25bf         1   UNL       f25        26    -0.09035       18.9980 ; qtot   -1.324
        27           f26bf         1   UNL       f26        27    -0.09035       18.9980 ; qtot   -1.414
        28           f27bf         1   UNL       f27        28    -0.16215       18.9980 ; qtot   -1.576
        29           h28bf         1   UNL       h28        29     0.46187        1.0080 ; qtot   -1.115
        30           h29bf         1   UNL       h29        30     0.09424        1.0080 ; qtot   -1.020
        31           h30bf         1   UNL       h30        31     0.09046        1.0080 ; qtot   -0.930
        32           h31bf         1   UNL       h31        32     0.09046        1.0080 ; qtot   -0.839
        33           h32bf         1   UNL       h32        33     0.14936        1.0080 ; qtot   -0.690
        34           h33bf         1   UNL       h33        34     0.13696        1.0080 ; qtot   -0.553
        35           h34bf         1   UNL       h34        35     0.15329        1.0080 ; qtot   -0.400
        36           h35bf         1   UNL       h35        36     0.14757        1.0080 ; qtot   -0.252
        37           h36bf         1   UNL       h36        37     0.14589        1.0080 ; qtot   -0.106
        38           h37bf         1   UNL       h37        38     0.10633        1.0080 ; qtot    0.000

[ bonds ]
;       ai        aj funct               r               k
         1         2     1        0.142089   213175.719336
         1        29     1        0.097160   464731.313574
         2         3     1        0.155081   154333.290674
         2         6     1        0.151890   172081.479541
         2        30     1        0.109501   296513.675293
         3         4     1        0.153347   171559.079663
         3        23     1        0.137650   224399.891797
         3        24     1        0.137650   224399.891797
         4         5     1        0.151012   191627.672437
         4        31     1        0.109299   306936.288965
         4        32     1        0.109299   306936.288965
         5         6     1        0.139832   281541.319141
         5        10     1        0.139546   294819.568994
         6         7     1        0.139866   292780.737256
         7         8     1        0.139836   299612.935498
         7        19     1        0.179508   126791.926807
         8         9     1        0.139457   319834.214648
         8        33     1        0.108390   327351.011719
         9        10     1        0.139916   293970.996387
         9        34     1        0.108424   325013.881006
        10        11     1        0.138436   237751.152246
        11        12     1        0.137421   250794.179785
        12        13     1        0.139961   293934.708154
        12        18     1        0.139702   295896.724268
        13        14     1        0.139111   310051.918457
        13        35     1        0.108374   328151.165967
        14        15     1        0.138892   307835.603809
        14        28     1        0.135083   300333.720410
        15        16     1        0.140515   294475.124463
        15        36     1        0.108386   329357.309180
        16        17     1        0.143765   270871.863770
        16        18     1        0.140387   298138.014209
        17        25     1        0.116512  1108337.820508
        18        37     1        0.108395   327534.214941
        19        20     1        0.146700   521071.028906
        19        21     1        0.146700   521071.028906
        19        22     1        0.188097   131432.172803
        22        26     1        0.135563   266389.794629
        22        27     1        0.135563   266389.794629
        22        38     1        0.109165   319633.952637

[ angles ]
;       ai        aj        ak funct           theta             cth
         1         2         3     1      112.810814      504.488564
         1         2         6     1      112.449120      634.328135
         1         2        30     1      108.656921      411.490871
         2         1        29     1      107.962692      571.596608
         2         3         4     1      107.597389      448.756217
         2         3        23     1      110.369896      538.766547
         2         3        24     1      110.369896      538.766547
         2         6         5     1      110.084496      408.969720
         2         6         7     1      129.573517      417.523056
         3         2         6     1      101.915504      558.731077
         3         2        30     1      108.538010      462.332255
         3         4         5     1      102.386635      561.213028
         3         4        31     1      110.204872      490.175876
         3         4        32     1      110.204872      490.175876
         4         3        23     1      111.618088      567.835311
         4         3        24     1      111.618088      567.835311
         4         5         6     1      111.692688      376.361385
         4         5        10     1      127.936508      423.123025
         5         4        31     1      112.423706      451.867914
         5         4        32     1      112.423706      451.867914
         5         6         7     1      119.495972      612.608185
         5        10         9     1      119.993675      670.718515
         5        10        11     1      118.782387      416.829117
         6         2        30     1      111.610252      426.890993
         6         5        10     1      120.171219      666.534515
         6         7         8     1      120.351158      686.036887
         6         7        19     1      122.283401      545.912661
         7         8         9     1      120.238304      599.137806
         7         8        33     1      119.785057      369.317612
         7        19        20     1      109.137695      624.410670
         7        19        21     1      109.137695      624.410607
         7        19        22     1      102.643272      538.956671
         8         7        19     1      117.367371      537.624017
         8         9        10     1      119.796631      706.527544
         8         9        34     1      120.681114      420.830399
         9         8        33     1      120.591515      398.783606
         9        10        11     1      121.095535      530.219405
        10         9        34     1      119.696922      429.475508
        10        11        12     1      118.801376      430.087409
        11        12        13     1      119.322159      518.676823
        11        12        18     1      119.615601      500.976988
        12        13        14     1      118.171036      766.741494
        12        13        35     1      121.308182      417.404883
        12        18        16     1      118.959595      688.354954
        12        18        37     1      120.280663      422.219075
        13        12        18     1      120.802040      630.818314
        13        14        15     1      122.953697      628.021298
        13        14        28     1      118.343826      541.971774
        14        13        35     1      120.554909      416.906303
        14        15        16     1      117.516953      637.448450
        14        15        36     1      120.746925      422.893797
        15        14        28     1      118.731651      524.645196
        15        16        17     1      119.386719      476.745240
        15        16        18     1      121.187233      684.585996
        16        15        36     1      121.582848      413.830549
        16        17        25     1      179.655121      167.360000
        16        18        37     1      120.651222      407.470181
        17        16        18     1      119.288147      472.497366
        19        22        26     1      109.016342      510.993377
        19        22        27     1      109.016342      510.993377
        19        22        38     1      108.633278      472.980655
        20        19        21     1      121.722717      711.025331
        20        19        22     1      105.477318      451.835993
        21        19        22     1      105.477318      451.835993
        23         3        24     1      106.171570      726.740804
        26        22        27     1      108.734177      735.006145
        26        22        38     1      110.516922      439.201444
        27        22        38     1      110.516922      439.201444
        31         4        32     1      107.711754      357.271981

[ dihedrals ] ; propers for gromacs 4.5 or higher, use funct 9
;       ai        aj        ak        al funct           phase               k        pn
         1         2         3         4     9        0.000000       -2.316051         1
         1         2         3         4     9      180.000000        1.227582         2
         1         2         3         4     9        0.000000        0.447916         3
         1         2         3         4     9      180.000000       -0.134155         4
         1         2         3        23     9        0.000000        0.925729         1
         1         2         3        23     9      180.000000        0.198236         2
         1         2         3        23     9        0.000000        0.694412         3
         1         2         3        23     9      180.000000       -0.120878         4
         1         2         3        24     9        0.000000        0.925729         1
         1         2         3        24     9      180.000000        0.198236         2
         1         2         3        24     9        0.000000        0.694412         3
         1         2         3        24     9      180.000000       -0.120878         4
         1         2         6         5     9        0.000000       -2.814466         1
         1         2         6         5     9      180.000000        3.200837         2
         1         2         6         5     9        0.000000        0.272352         3
         1         2         6         5     9      180.000000        1.248713         4
         1         2         6         7     9        0.000000       -0.961477         1
         1         2         6         7     9      180.000000        2.547903         2
         1         2         6         7     9        0.000000        0.023197         3
         1         2         6         7     9      180.000000        0.482242         4
         2         3         4         5     9        0.000000       -0.920327         1
         2         3         4         5     9      180.000000        4.722876         2
         2         3         4         5     9        0.000000       -0.153619         3
         2         3         4         5     9      180.000000       -1.127137         4
         2         3         4        31     9        0.000000        0.020287         1
         2         3         4        31     9      180.000000        0.002269         2
         2         3         4        31     9        0.000000        0.073985         3
         2         3         4        31     9      180.000000        0.044940         4
         2         3         4        32     9        0.000000        0.020287         1
         2         3         4        32     9      180.000000        0.002269         2
         2         3         4        32     9        0.000000        0.073985         3
         2         3         4        32     9      180.000000        0.044940         4
         2         6         5         4     9        0.000000       -0.153097         1
         2         6         5         4     9      180.000000       19.124079         2
         2         6         5         4     9        0.000000       -2.810094         3
         2         6         5         4     9      180.000000       -0.448961         4
         2         6         5        10     9        0.000000        0.049857         1
         2         6         5        10     9      180.000000       14.827266         2
         2         6         5        10     9        0.000000       -1.422803         3
         2         6         5        10     9      180.000000       -0.354653         4
         2         6         7         8     9        0.000000       -0.027965         1
         2         6         7         8     9      180.000000       13.883603         2
         2         6         7         8     9        0.000000       -0.008430         3
         2         6         7         8     9      180.000000       -0.412528         4
         2         6         7        19     9        0.000000       -0.246545         1
         2         6         7        19     9      180.000000        9.329579         2
         2         6         7        19     9        0.000000        0.390514         3
         2         6         7        19     9      180.000000       -0.477487         4
         3         2         1        29     9        0.000000        1.285396         1
         3         2         1        29     9      180.000000       -3.328465         2
         3         2         1        29     9        0.000000        0.697280         3
         3         2         1        29     9      180.000000        0.165302         4
         3         2         6         5     9        0.000000       -0.701407         1
         3         2         6         5     9      180.000000       13.704713         2
         3         2         6         5     9        0.000000       -1.390444         3
         3         2         6         5     9      180.000000       -0.207481         4
         3         2         6         7     9        0.000000       -0.888518         1
         3         2         6         7     9      180.000000        1.858353         2
         3         2         6         7     9        0.000000       -0.211590         3
         3         2         6         7     9      180.000000        0.879761         4
         3         4         5         6     9        0.000000       -0.622642         1
         3         4         5         6     9      180.000000       13.021376         2
         3         4         5         6     9        0.000000       -1.963695         3
         3         4         5         6     9      180.000000       -0.705055         4
         3         4         5        10     9        0.000000        0.744579         1
         3         4         5        10     9      180.000000        0.850537         2
         3         4         5        10     9        0.000000       -0.120015         3
         3         4         5        10     9      180.000000        0.560066         4
         4         3         2         6     9        0.000000       -0.984361         1
         4         3         2         6     9      180.000000        5.094211         2
         4         3         2         6     9        0.000000       -0.079408         3
         4         3         2         6     9      180.000000       -1.619511         4
         4         3         2        30     9        0.000000       -0.231699         1
         4         3         2        30     9      180.000000        0.281540         2
         4         3         2        30     9        0.000000        0.367337         3
         4         3         2        30     9      180.000000       -0.065595         4
         4         5         6         7     9        0.000000       -0.281168         1
         4         5         6         7     9      180.000000       13.827936         2
         4         5         6         7     9        0.000000       -1.374790         3
         4         5         6         7     9      180.000000       -0.095946         4
         4         5        10         9     9        0.000000       -0.200842         1
         4         5        10         9     9      180.000000       12.558635         2
         4         5        10         9     9        0.000000       -0.129322         3
         4         5        10         9     9      180.000000       -0.064886         4
         4         5        10        11     9        0.000000       -0.264645         1
         4         5        10        11     9      180.000000       15.816696         2
         4         5        10        11     9        0.000000        0.151765         3
         4         5        10        11     9      180.000000       -0.343677         4
         5         4         3        23     9        0.000000        0.329691         1
         5         4         3        23     9      180.000000        0.109473         2
         5         4         3        23     9        0.000000        0.398011         3
         5         4         3        23     9      180.000000        0.211076         4
         5         4         3        24     9        0.000000        0.329691         1
         5         4         3        24     9      180.000000        0.109473         2
         5         4         3        24     9        0.000000        0.398011         3
         5         4         3        24     9      180.000000        0.211076         4
         5         6         2        30     9        0.000000        1.155018         1
         5         6         2        30     9      180.000000        0.750825         2
         5         6         2        30     9        0.000000       -0.323183         3
         5         6         2        30     9      180.000000        0.656172         4
         5         6         7         8     9        0.000000        0.067770         1
         5         6         7         8     9      180.000000       18.867982         2
         5         6         7         8     9        0.000000       -1.828015         3
         5         6         7         8     9      180.000000       -0.417240         4
         5         6         7        19     9        0.000000       -0.511168         1
         5         6         7        19     9      180.000000       10.739690         2
         5         6         7        19     9        0.000000       -0.027346         3
         5         6         7        19     9      180.000000       -0.469213         4
         5        10         9         8     9        0.000000       -0.108525         1
         5        10         9         8     9      180.000000       17.618209         2
         5        10         9         8     9        0.000000       -1.220752         3
         5        10         9         8     9      180.000000       -0.415016         4
         5        10         9        34     9        0.000000       -0.020368         1
         5        10         9        34     9      180.000000       13.417529         2
         5        10         9        34     9        0.000000       -0.402825         3
         5        10         9        34     9      180.000000        0.028412         4
         5        10        11        12     9        0.000000       -0.140294         1
         5        10        11        12     9      180.000000        3.609872         2
         5        10        11        12     9        0.000000        0.431687         3
         5        10        11        12     9      180.000000        0.110571         4
         6         2         1        29     9        0.000000        5.487168         1
         6         2         1        29     9      180.000000       -2.647029         2
         6         2         1        29     9        0.000000        0.869113         3
         6         2         1        29     9      180.000000        0.132194         4
         6         2         3        23     9        0.000000        0.305123         1
         6         2         3        23     9      180.000000        0.340248         2
         6         2         3        23     9        0.000000        0.324514         3
         6         2         3        23     9      180.000000        0.200367         4
         6         2         3        24     9        0.000000        0.305123         1
         6         2         3        24     9      180.000000        0.340248         2
         6         2         3        24     9        0.000000        0.324514         3
         6         2         3        24     9      180.000000        0.200367         4
         6         5         4        31     9        0.000000        0.046880         1
         6         5         4        31     9      180.000000       -0.027333         2
         6         5         4        31     9        0.000000       -0.454819         3
         6         5         4        31     9      180.000000        0.381478         4
         6         5         4        32     9        0.000000        0.046880         1
         6         5         4        32     9      180.000000       -0.027333         2
         6         5         4        32     9        0.000000       -0.454819         3
         6         5         4        32     9      180.000000        0.381478         4
         6         5        10         9     9        0.000000       -0.001715         1
         6         5        10         9     9      180.000000       17.007727         2
         6         5        10         9     9        0.000000       -1.121262         3
         6         5        10         9     9      180.000000       -0.466878         4
         6         5        10        11     9        0.000000        0.345287         1
         6         5        10        11     9      180.000000       17.697600         2
         6         5        10        11     9        0.000000        0.295107         3
         6         5        10        11     9      180.000000       -0.608824         4
         6         7         8         9     9        0.000000       -0.074892         1
         6         7         8         9     9      180.000000       19.699657         2
         6         7         8         9     9        0.000000       -1.760928         3
         6         7         8         9     9      180.000000       -0.546591         4
         6         7         8        33     9        0.000000        0.040825         1
         6         7         8        33     9      180.000000       14.631348         2
         6         7         8        33     9        0.000000       -0.520461         3
         6         7         8        33     9      180.000000       -0.039508         4
         6         7        19        20     9        0.000000        0.012361         1
         6         7        19        20     9      180.000000        0.819010         2
         6         7        19        20     9        0.000000        0.517552         3
         6         7        19        20     9      180.000000       -0.130666         4
         6         7        19        21     9        0.000000        0.012359         1
         6         7        19        21     9      180.000000        0.819010         2
         6         7        19        21     9        0.000000        0.517552         3
         6         7        19        21     9      180.000000       -0.130665         4
         6         7        19        22     9        0.000000        1.373354         1
         6         7        19        22     9      180.000000       -2.385343         2
         6         7        19        22     9        0.000000        0.546873         3
         6         7        19        22     9      180.000000        0.174205         4
         7         6         2        30     9        0.000000        0.838392         1
         7         6         2        30     9      180.000000        0.266719         2
         7         6         2        30     9        0.000000       -0.089299         3
         7         6         2        30     9      180.000000        0.255553         4
         7         6         5        10     9        0.000000       -0.096612         1
         7         6         5        10     9      180.000000       14.763426         2
         7         6         5        10     9        0.000000       -1.898721         3
         7         6         5        10     9      180.000000       -0.229538         4
         7         8         9        10     9        0.000000       -0.201730         1
         7         8         9        10     9      180.000000       18.592522         2
         7         8         9        10     9        0.000000       -1.889871         3
         7         8         9        10     9      180.000000       -0.457610         4
         7         8         9        34     9        0.000000        0.052125         1
         7         8         9        34     9      180.000000       14.395324         2
         7         8         9        34     9        0.000000       -0.741792         3
         7         8         9        34     9      180.000000        0.039814         4
         7        19        22        26     9        0.000000       -0.222476         1
         7        19        22        26     9      180.000000       -0.262248         2
         7        19        22        26     9        0.000000        0.180420         3
         7        19        22        26     9      180.000000        0.076816         4
         7        19        22        27     9        0.000000       -0.222476         1
         7        19        22        27     9      180.000000       -0.262248         2
         7        19        22        27     9        0.000000        0.180420         3
         7        19        22        27     9      180.000000        0.076816         4
         7        19        22        38     9        0.000000        0.245431         1
         7        19        22        38     9      180.000000       -0.173310         2
         7        19        22        38     9        0.000000        0.375379         3
         7        19        22        38     9      180.000000       -0.030407         4
         8         7        19        20     9        0.000000       -0.000854         1
         8         7        19        20     9      180.000000        1.016500         2
         8         7        19        20     9        0.000000        0.029369         3
         8         7        19        20     9      180.000000       -0.003807         4
         8         7        19        21     9        0.000000       -0.000855         1
         8         7        19        21     9      180.000000        1.016500         2
         8         7        19        21     9        0.000000        0.029369         3
         8         7        19        21     9      180.000000       -0.003807         4
         8         7        19        22     9        0.000000        0.157406         1
         8         7        19        22     9      180.000000       -1.732378         2
         8         7        19        22     9        0.000000       -0.011874         3
         8         7        19        22     9      180.000000        0.143179         4
         8         9        10        11     9        0.000000        0.675333         1
         8         9        10        11     9      180.000000       19.199006         2
         8         9        10        11     9        0.000000        0.454349         3
         8         9        10        11     9      180.000000       -0.267916         4
         9         8         7        19     9        0.000000       -0.217268         1
         9         8         7        19     9      180.000000       13.502374         2
         9         8         7        19     9        0.000000        0.044390         3
         9         8         7        19     9      180.000000       -0.321341         4
         9        10        11        12     9        0.000000       -0.019099         1
         9        10        11        12     9      180.000000        4.418910         2
         9        10        11        12     9        0.000000       -0.387242         3
         9        10        11        12     9      180.000000        0.307253         4
        10         5         4        31     9        0.000000        0.060682         1
        10         5         4        31     9      180.000000        0.095287         2
        10         5         4        31     9        0.000000        0.060273         3
        10         5         4        31     9      180.000000        0.065591         4
        10         5         4        32     9        0.000000        0.060682         1
        10         5         4        32     9      180.000000        0.095287         2
        10         5         4        32     9        0.000000        0.060273         3
        10         5         4        32     9      180.000000        0.065591         4
        10         9         8        33     9        0.000000        0.183770         1
        10         9         8        33     9      180.000000       14.604457         2
        10         9         8        33     9        0.000000       -0.483981         3
        10         9         8        33     9      180.000000        0.086664         4
        10        11        12        13     9        0.000000        0.061627         1
        10        11        12        13     9      180.000000        4.970900         2
        10        11        12        13     9        0.000000       -0.107231         3
        10        11        12        13     9      180.000000        0.264917         4
        10        11        12        18     9        0.000000        0.085009         1
        10        11        12        18     9      180.000000        4.973204         2
        10        11        12        18     9        0.000000       -0.130706         3
        10        11        12        18     9      180.000000        0.288730         4
        11        10         9        34     9        0.000000        0.188711         1
        11        10         9        34     9      180.000000       14.146181         2
        11        10         9        34     9        0.000000        0.067127         3
        11        10         9        34     9      180.000000        0.374404         4
        11        12        13        14     9        0.000000        0.439834         1
        11        12        13        14     9      180.000000       17.679830         2
        11        12        13        14     9        0.000000        0.518615         3
        11        12        13        14     9      180.000000       -0.304268         4
        11        12        13        35     9        0.000000        0.247031         1
        11        12        13        35     9      180.000000       13.315014         2
        11        12        13        35     9        0.000000       -0.057326         3
        11        12        13        35     9      180.000000        0.357953         4
        11        12        18        16     9        0.000000        0.414467         1
        11        12        18        16     9      180.000000       17.167013         2
        11        12        18        16     9        0.000000        0.430918         3
        11        12        18        16     9      180.000000       -0.092910         4
        11        12        18        37     9        0.000000        0.203641         1
        11        12        18        37     9      180.000000       13.434097         2
        11        12        18        37     9        0.000000       -0.034857         3
        11        12        18        37     9      180.000000        0.337343         4
        12        13        14        15     9        0.000000       -0.037835         1
        12        13        14        15     9      180.000000       16.924318         2
        12        13        14        15     9        0.000000       -1.235724         3
        12        13        14        15     9      180.000000       -0.383379         4
        12        13        14        28     9        0.000000        0.459529         1
        12        13        14        28     9      180.000000       22.775542         2
        12        13        14        28     9        0.000000        0.620335         3
        12        13        14        28     9      180.000000       -0.895479         4
        12        18        16        15     9        0.000000       -0.147115         1
        12        18        16        15     9      180.000000       18.104645         2
        12        18        16        15     9        0.000000       -1.723480         3
        12        18        16        15     9      180.000000       -0.396032         4
        12        18        16        17     9        0.000000       -0.086533         1
        12        18        16        17     9      180.000000       16.262250         2
        12        18        16        17     9        0.000000       -0.126425         3
        12        18        16        17     9      180.000000       -0.295180         4
        13        12        18        16     9        0.000000       -0.151287         1
        13        12        18        16     9      180.000000       16.720494         2
        13        12        18        16     9        0.000000       -0.954878         3
        13        12        18        16     9      180.000000       -0.285399         4
        13        12        18        37     9        0.000000        0.129426         1
        13        12        18        37     9      180.000000       12.822898         2
        13        12        18        37     9        0.000000       -0.471796         3
        13        12        18        37     9      180.000000        0.176762         4
        13        14        15        16     9        0.000000       -0.213127         1
        13        14        15        16     9      180.000000       17.562481         2
        13        14        15        16     9        0.000000       -1.146983         3
        13        14        15        16     9      180.000000       -0.459046         4
        13        14        15        36     9        0.000000        0.012917         1
        13        14        15        36     9      180.000000       13.202101         2
        13        14        15        36     9        0.000000       -0.546497         3
        13        14        15        36     9      180.000000        0.094661         4
        14        13        12        18     9        0.000000       -0.098513         1
        14        13        12        18     9      180.000000       16.419683         2
        14        13        12        18     9        0.000000       -1.019756         3
        14        13        12        18     9      180.000000       -0.197813         4
        14        15        16        17     9        0.000000        0.094774         1
        14        15        16        17     9      180.000000       16.943643         2
        14        15        16        17     9        0.000000       -0.003520         3
        14        15        16        17     9      180.000000       -0.413924         4
        14        15        16        18     9        0.000000       -0.159527         1
        14        15        16        18     9      180.000000       18.380973         2
        14        15        16        18     9        0.000000       -1.728032         3
        14        15        16        18     9      180.000000       -0.402123         4
        15        14        13        35     9        0.000000        0.166901         1
        15        14        13        35     9      180.000000       12.714123         2
        15        14        13        35     9        0.000000       -0.506238         3
        15        14        13        35     9      180.000000        0.156592         4
        15        16        17        25     9        0.000000        0.000000         1
        15        16        17        25     9      180.000000        0.000000         2
        15        16        17        25     9        0.000000        0.000000         3
        15        16        17        25     9      180.000000        0.000000         4
        15        16        18        37     9        0.000000       -0.033625         1
        15        16        18        37     9      180.000000       14.163344         2
        15        16        18        37     9        0.000000       -0.688105         3
        15        16        18        37     9      180.000000        0.029301         4
        16        15        14        28     9        0.000000        0.384624         1
        16        15        14        28     9      180.000000       22.626144         2
        16        15        14        28     9        0.000000        0.654396         3
        16        15        14        28     9      180.000000       -0.714401         4
        17        16        15        36     9        0.000000        0.029970         1
        17        16        15        36     9      180.000000       12.807835         2
        17        16        15        36     9        0.000000       -0.300728         3
        17        16        15        36     9      180.000000        0.113751         4
        17        16        18        37     9        0.000000        0.024028         1
        17        16        18        37     9      180.000000       12.824090         2
        17        16        18        37     9        0.000000       -0.314228         3
        17        16        18        37     9      180.000000        0.157370         4
        18        12        13        35     9        0.000000        0.123405         1
        18        12        13        35     9      180.000000       12.520774         2
        18        12        13        35     9        0.000000       -0.483970         3
        18        12        13        35     9      180.000000        0.186258         4
        18        16        15        36     9        0.000000       -0.016357         1
        18        16        15        36     9      180.000000       14.310019         2
        18        16        15        36     9        0.000000       -0.696961         3
        18        16        15        36     9      180.000000        0.020091         4
        18        16        17        25     9        0.000000        0.000000         1
        18        16        17        25     9      180.000000        0.000000         2
        18        16        17        25     9        0.000000        0.000000         3
        18        16        17        25     9      180.000000        0.000000         4
        19         7         8        33     9        0.000000        0.277974         1
        19         7         8        33     9      180.000000       11.958455         2
        19         7         8        33     9        0.000000       -0.233959         3
        19         7         8        33     9      180.000000       -0.050773         4
        20        19        22        26     9        0.000000        0.162715         1
        20        19        22        26     9      180.000000        0.105513         2
        20        19        22        26     9        0.000000        0.247104         3
        20        19        22        26     9      180.000000        0.112904         4
        20        19        22        27     9        0.000000        0.162715         1
        20        19        22        27     9      180.000000        0.105513         2
        20        19        22        27     9        0.000000        0.247104         3
        20        19        22        27     9      180.000000        0.112904         4
        20        19        22        38     9        0.000000       -0.205224         1
        20        19        22        38     9      180.000000        0.079964         2
        20        19        22        38     9        0.000000        0.303827         3
        20        19        22        38     9      180.000000       -0.009602         4
        21        19        22        26     9        0.000000        0.162715         1
        21        19        22        26     9      180.000000        0.105513         2
        21        19        22        26     9        0.000000        0.247105         3
        21        19        22        26     9      180.000000        0.112903         4
        21        19        22        27     9        0.000000        0.162715         1
        21        19        22        27     9      180.000000        0.105513         2
        21        19        22        27     9        0.000000        0.247105         3
        21        19        22        27     9      180.000000        0.112903         4
        21        19        22        38     9        0.000000       -0.205224         1
        21        19        22        38     9      180.000000        0.079963         2
        21        19        22        38     9        0.000000        0.303827         3
        21        19        22        38     9      180.000000       -0.009602         4
        23         3         2        30     9        0.000000       -0.105368         1
        23         3         2        30     9      180.000000        0.049510         2
        23         3         2        30     9        0.000000        0.512239         3
        23         3         2        30     9      180.000000        0.003501         4
        23         3         4        31     9        0.000000        0.023670         1
        23         3         4        31     9      180.000000       -0.092713         2
        23         3         4        31     9        0.000000        0.509467         3
        23         3         4        31     9      180.000000       -0.035231         4
        23         3         4        32     9        0.000000        0.023670         1
        23         3         4        32     9      180.000000       -0.092713         2
        23         3         4        32     9        0.000000        0.509467         3
        23         3         4        32     9      180.000000       -0.035231         4
        24         3         2        30     9        0.000000       -0.105368         1
        24         3         2        30     9      180.000000        0.049510         2
        24         3         2        30     9        0.000000        0.512239         3
        24         3         2        30     9      180.000000        0.003501         4
        24         3         4        31     9        0.000000        0.023670         1
        24         3         4        31     9      180.000000       -0.092713         2
        24         3         4        31     9        0.000000        0.509467         3
        24         3         4        31     9      180.000000       -0.035231         4
        24         3         4        32     9        0.000000        0.023670         1
        24         3         4        32     9      180.000000       -0.092713         2
        24         3         4        32     9        0.000000        0.509467         3
        24         3         4        32     9      180.000000       -0.035231         4
        28        14        13        35     9        0.000000        0.330039         1
        28        14        13        35     9      180.000000       15.871794         2
        28        14        13        35     9        0.000000        0.248137         3
        28        14        13        35     9      180.000000        0.119632         4
        28        14        15        36     9        0.000000        0.323706         1
        28        14        15        36     9      180.000000       15.967908         2
        28        14        15        36     9        0.000000        0.305032         3
        28        14        15        36     9      180.000000        0.124130         4
        29         1         2        30     9        0.000000        0.165313         1
        29         1         2        30     9      180.000000       -0.087622         2
        29         1         2        30     9        0.000000        0.730153         3
        29         1         2        30     9      180.000000        0.188148         4
        33         8         9        34     9        0.000000       -0.061453         1
        33         8         9        34     9      180.000000       12.696796         2
        33         8         9        34     9        0.000000       -0.850787         3
        33         8         9        34     9      180.000000        0.232287         4

[ dihedrals ] ; impropers
;       ai        aj        ak        al funct           phase               k        pn
        14        13        15        28     4      180.000000        1.740412         2
        14        15        28        13     4      180.000000        1.740412         2
        14        28        13        15     4      180.000000        1.740412         2

[ pairs ]
;       ai        aj funct
         1         4     1
         1         5     1
         1         7     1
         1        23     1
         1        24     1
         2         8     1
         2        10     1
         2        19     1
         2        31     1
         2        32     1
         3         7     1
         3        10     1
         3        29     1
         4         7     1
         4         9     1
         4        11     1
         4        30     1
         5         8     1
         5        12     1
         5        19     1
         5        23     1
         5        24     1
         5        30     1
         5        34     1
         6         9     1
         6        11     1
         6        20     1
         6        21     1
         6        22     1
         6        23     1
         6        24     1
         6        29     1
         6        31     1
         6        32     1
         6        33     1
         7        10     1
         7        26     1
         7        27     1
         7        30     1
         7        34     1
         7        38     1
         8        11     1
         8        20     1
         8        21     1
         8        22     1
         9        12     1
         9        19     1
        10        13     1
        10        18     1
        10        31     1
        10        32     1
        10        33     1
        11        14     1
        11        16     1
        11        34     1
        11        35     1
        11        37     1
        12        15     1
        12        17     1
        12        28     1
        13        16     1
        13        36     1
        13        37     1
        14        17     1
        14        18     1
        15        25     1
        15        35     1
        15        37     1
        16        28     1
        17        36     1
        17        37     1
        18        25     1
        18        35     1
        18        36     1
        19        33     1
        20        26     1
        20        27     1
        20        38     1
        21        26     1
        21        27     1
        21        38     1
        23        30     1
        23        31     1
        23        32     1
        24        30     1
        24        31     1
        24        32     1
        28        35     1
        28        36     1
        29        30     1
        33        34     1
