; ITP file created by ByteFF-ML, 2026-02-21 07:41:10.947285

[ atomtypes ]
;name           bonded.type        at.num        mass        charge   ptype           sigma         epsilon
 o0bf                                   8      0.0000       0.00000       A     3.23829e-01     3.88924e-01
 c1bf                                   6      0.0000       0.00000       A     3.40155e-01     4.48409e-01
 c2bf                                   6      0.0000       0.00000       A     3.39806e-01     4.53836e-01
 c3bf                                   6      0.0000       0.00000       A     3.39919e-01     4.53552e-01
 c4bf                                   6      0.0000       0.00000       A     3.31691e-01     4.12736e-01
 c5bf                                   6      0.0000       0.00000       A     3.31640e-01     4.12404e-01
 c6bf                                   6      0.0000       0.00000       A     3.31287e-01     4.12638e-01
 c7bf                                   6      0.0000       0.00000       A     3.31349e-01     4.13862e-01
 c8bf                                   6      0.0000       0.00000       A     3.31334e-01     4.13082e-01
 c9bf                                   6      0.0000       0.00000       A     3.31558e-01     4.13007e-01
 o10bf                                  8      0.0000       0.00000       A     3.15906e-01     3.07612e-01
 c11bf                                  6      0.0000       0.00000       A     3.31296e-01     4.13933e-01
 c12bf                                  6      0.0000       0.00000       A     3.31444e-01     4.13431e-01
 c13bf                                  6      0.0000       0.00000       A     3.31501e-01     4.12463e-01
 cl14bf                                17      0.0000       0.00000       A     3.46633e-01     1.10324e+00
 c15bf                                  6      0.0000       0.00000       A     3.31585e-01     4.13719e-01
 n16bf                                  7      0.0000       0.00000       A     3.38310e-01     3.93664e-01
 c17bf                                  6      0.0000       0.00000       A     3.31503e-01     4.14073e-01
 s18bf                                 16      0.0000       0.00000       A     4.06265e-01     2.57805e-01
 o19bf                                  8      0.0000       0.00000       A     3.05144e-01     6.13663e-01
 o20bf                                  8      0.0000       0.00000       A     3.05144e-01     6.13663e-01
 c21bf                                  6      0.0000       0.00000       A     3.40010e-01     4.52743e-01
 f22bf                                  9      0.0000       0.00000       A     3.03156e-01     3.45383e-01
 f23bf                                  9      0.0000       0.00000       A     3.03156e-01     3.45383e-01
 f24bf                                  9      0.0000       0.00000       A     3.03598e-01     3.48417e-01
 f25bf                                  9      0.0000       0.00000       A     3.03598e-01     3.48417e-01
 h26bf                                  1      0.0000       0.00000       A     5.36710e-02     1.95151e-02
 h27bf                                  1      0.0000       0.00000       A     2.41570e-01     8.63936e-02
 h28bf                                  1      0.0000       0.00000       A     2.60031e-01     8.68485e-02
 h29bf                                  1      0.0000       0.00000       A     2.60031e-01     8.68485e-02
 h30bf                                  1      0.0000       0.00000       A     2.62720e-01     6.76047e-02
 h31bf                                  1      0.0000       0.00000       A     2.62431e-01     6.72328e-02
 h32bf                                  1      0.0000       0.00000       A     2.62353e-01     6.73030e-02
 h33bf                                  1      0.0000       0.00000       A     2.53626e-01     6.72089e-02
 h34bf                                  1      0.0000       0.00000       A     2.53445e-01     6.68689e-02
 h35bf                                  1      0.0000       0.00000       A     2.06402e-01     8.82802e-02

[ moleculetype ]
;name             nrexcl
 25                    3

[ atoms ]
;       nr            type      resi   res      atom      cgnr      charge          mass ; qtot
         1            o0bf         1   UNL        o0         1    -0.64391       15.9990 ; qtot   -0.644
         2            c1bf         1   UNL        c1         2     0.18375       12.0110 ; qtot   -0.460
         3            c2bf         1   UNL        c2         3     0.15503       12.0110 ; qtot   -0.305
         4            c3bf         1   UNL        c3         4    -0.06008       12.0110 ; qtot   -0.365
         5            c4bf         1   UNL        c4         5    -0.09676       12.0110 ; qtot   -0.462
         6            c5bf         1   UNL        c5         6     0.00745       12.0110 ; qtot   -0.455
         7            c6bf         1   UNL        c6         7    -0.22343       12.0110 ; qtot   -0.678
         8            c7bf         1   UNL        c7         8     0.01426       12.0110 ; qtot   -0.664
         9            c8bf         1   UNL        c8         9    -0.14944       12.0110 ; qtot   -0.813
        10            c9bf         1   UNL        c9        10     0.14432       12.0110 ; qtot   -0.669
        11           o10bf         1   UNL       o10        11    -0.23745       15.9990 ; qtot   -0.906
        12           c11bf         1   UNL       c11        12     0.07695       12.0110 ; qtot   -0.829
        13           c12bf         1   UNL       c12        13    -0.09805       12.0110 ; qtot   -0.927
        14           c13bf         1   UNL       c13        14     0.08392       12.0110 ; qtot   -0.843
        15          cl14bf         1   UNL      cl14        15    -0.18186       35.4530 ; qtot   -1.025
        16           c15bf         1   UNL       c15        16     0.32999       12.0110 ; qtot   -0.695
        17           n16bf         1   UNL       n16        17    -0.63212       14.0070 ; qtot   -1.327
        18           c17bf         1   UNL       c17        18     0.30493       12.0110 ; qtot   -1.023
        19           s18bf         1   UNL       s18        19     0.94264       32.0670 ; qtot   -0.080
        20           o19bf         1   UNL       o19        20    -0.47324       15.9990 ; qtot   -0.553
        21           o20bf         1   UNL       o20        21    -0.47324       15.9990 ; qtot   -1.026
        22           c21bf         1   UNL       c21        22     0.04650       12.0110 ; qtot   -0.980
        23           f22bf         1   UNL       f22        23    -0.09035       18.9980 ; qtot   -1.070
        24           f23bf         1   UNL       f23        24    -0.09035       18.9980 ; qtot   -1.161
        25           f24bf         1   UNL       f24        25    -0.10126       18.9980 ; qtot   -1.262
        26           f25bf         1   UNL       f25        26    -0.10126       18.9980 ; qtot   -1.363
        27           h26bf         1   UNL       h26        27     0.46187        1.0080 ; qtot   -0.901
        28           h27bf         1   UNL       h27        28     0.09424        1.0080 ; qtot   -0.807
        29           h28bf         1   UNL       h28        29     0.09046        1.0080 ; qtot   -0.716
        30           h29bf         1   UNL       h29        30     0.09046        1.0080 ; qtot   -0.626
        31           h30bf         1   UNL       h30        31     0.14936        1.0080 ; qtot   -0.477
        32           h31bf         1   UNL       h31        32     0.13696        1.0080 ; qtot   -0.340
        33           h32bf         1   UNL       h32        33     0.15298        1.0080 ; qtot   -0.187
        34           h33bf         1   UNL       h33        34     0.03961        1.0080 ; qtot   -0.147
        35           h34bf         1   UNL       h34        35     0.04080        1.0080 ; qtot   -0.106
        36           h35bf         1   UNL       h35        36     0.10632        1.0080 ; qtot    0.000

[ bonds ]
;       ai        aj funct               r               k
         1         2     1        0.142089   213175.719336
         1        27     1        0.097160   464731.313574
         2         3     1        0.155081   154333.290674
         2         6     1        0.151890   172081.479541
         2        28     1        0.109501   296513.675293
         3         4     1        0.153347   171559.079663
         3        25     1        0.137650   224399.891797
         3        26     1        0.137650   224399.891797
         4         5     1        0.151012   191627.672437
         4        29     1        0.109299   306936.288965
         4        30     1        0.109299   306936.288965
         5         6     1        0.139832   281541.319141
         5        10     1        0.139503   295764.544189
         6         7     1        0.139866   292780.737256
         7         8     1        0.139836   299612.935498
         7        19     1        0.179508   126791.926807
         8         9     1        0.139457   319834.214648
         8        31     1        0.108390   327351.011719
         9        10     1        0.139873   294917.835791
         9        32     1        0.108424   325013.881006
        10        11     1        0.138620   235750.038818
        11        12     1        0.137519   251376.834473
        12        13     1        0.139598   299503.177002
        12        18     1        0.140230   277022.885156
        13        14     1        0.139382   312001.727832
        13        33     1        0.108393   327697.218311
        14        15     1        0.174968   156143.386523
        14        16     1        0.139881   281296.213965
        16        17     1        0.133716   318995.320605
        16        34     1        0.108662   320772.703418
        17        18     1        0.133628   329165.627637
        18        35     1        0.108650   320643.485645
        19        20     1        0.146700   521071.028906
        19        21     1        0.146700   521071.028906
        19        22     1        0.188097   131432.172803
        22        23     1        0.135563   266389.794629
        22        24     1        0.135563   266389.820166
        22        36     1        0.109165   319633.952637

[ angles ]
;       ai        aj        ak funct           theta             cth
         1         2         3     1      112.810814      504.488564
         1         2         6     1      112.449120      634.328135
         1         2        28     1      108.656921      411.490871
         2         1        27     1      107.962692      571.596608
         2         3         4     1      107.597389      448.756217
         2         3        25     1      110.369896      538.766547
         2         3        26     1      110.369896      538.766547
         2         6         5     1      110.084496      408.969720
         2         6         7     1      129.573517      417.523056
         3         2         6     1      101.915504      558.731077
         3         2        28     1      108.538010      462.332255
         3         4         5     1      102.386635      561.213028
         3         4        29     1      110.204872      490.175876
         3         4        30     1      110.204872      490.175876
         4         3        25     1      111.618088      567.835311
         4         3        26     1      111.618088      567.835311
         4         5         6     1      111.692688      376.361385
         4         5        10     1      127.965225      423.151339
         5         4        29     1      112.423706      451.867914
         5         4        30     1      112.423706      451.867914
         5         6         7     1      119.495972      612.608185
         5        10         9     1      120.060326      670.271488
         5        10        11     1      118.804123      417.960634
         6         2        28     1      111.610252      426.890993
         6         5        10     1      120.127304      665.564616
         6         7         8     1      120.351158      686.036887
         6         7        19     1      122.283401      545.912661
         7         8         9     1      120.238304      599.137806
         7         8        31     1      119.785057      369.317612
         7        19        20     1      109.137695      624.410607
         7        19        21     1      109.137695      624.410607
         7        19        22     1      102.643272      538.956735
         8         7        19     1      117.367371      537.624017
         8         9        10     1      119.750107      704.739052
         8         9        32     1      120.681114      420.830399
         9         8        31     1      120.591515      398.783606
         9        10        11     1      121.036354      531.890681
        10         9        32     1      119.720413      428.860607
        10        11        12     1      118.624611      431.366308
        11        12        13     1      119.906639      529.909001
        11        12        18     1      120.517540      561.293917
        12        13        14     1      117.270996      797.811857
        12        13        33     1      121.134842      413.192409
        12        18        17     1      122.440903      731.071643
        12        18        35     1      120.125648      407.117609
        13        12        18     1      119.308876      638.415221
        13        14        15     1      119.935501      370.668908
        13        14        16     1      120.071983      680.015045
        14        13        33     1      121.744797      395.674367
        14        16        17     1      121.822464      606.373746
        14        16        34     1      120.690285      405.452047
        15        14        16     1      119.915138      363.997274
        16        17        18     1      118.792984      645.901361
        17        16        34     1      117.392441      330.696118
        17        18        35     1      117.277664      339.280481
        19        22        23     1      109.016357      510.993377
        19        22        24     1      109.016357      510.993377
        19        22        36     1      108.633278      472.980655
        20        19        21     1      121.722733      711.025523
        20        19        22     1      105.477318      451.835929
        21        19        22     1      105.477318      451.835929
        23        22        24     1      108.734177      735.006145
        23        22        36     1      110.516922      439.201444
        24        22        36     1      110.516922      439.201444
        25         3        26     1      106.171570      726.740804
        29         4        30     1      107.711754      357.271981

[ dihedrals ] ; propers for gromacs 4.5 or higher, use funct 9
;       ai        aj        ak        al funct           phase               k        pn
         1         2         3         4     9        0.000000       -2.316051         1
         1         2         3         4     9      180.000000        1.227582         2
         1         2         3         4     9        0.000000        0.447916         3
         1         2         3         4     9      180.000000       -0.134155         4
         1         2         3        25     9        0.000000        0.925729         1
         1         2         3        25     9      180.000000        0.198236         2
         1         2         3        25     9        0.000000        0.694412         3
         1         2         3        25     9      180.000000       -0.120878         4
         1         2         3        26     9        0.000000        0.925729         1
         1         2         3        26     9      180.000000        0.198236         2
         1         2         3        26     9        0.000000        0.694412         3
         1         2         3        26     9      180.000000       -0.120878         4
         1         2         6         5     9        0.000000       -2.814466         1
         1         2         6         5     9      180.000000        3.200837         2
         1         2         6         5     9        0.000000        0.272352         3
         1         2         6         5     9      180.000000        1.248713         4
         1         2         6         7     9        0.000000       -0.961477         1
         1         2         6         7     9      180.000000        2.547903         2
         1         2         6         7     9        0.000000        0.023197         3
         1         2         6         7     9      180.000000        0.482242         4
         2         3         4         5     9        0.000000       -0.920327         1
         2         3         4         5     9      180.000000        4.722876         2
         2         3         4         5     9        0.000000       -0.153619         3
         2         3         4         5     9      180.000000       -1.127137         4
         2         3         4        29     9        0.000000        0.020287         1
         2         3         4        29     9      180.000000        0.002269         2
         2         3         4        29     9        0.000000        0.073985         3
         2         3         4        29     9      180.000000        0.044940         4
         2         3         4        30     9        0.000000        0.020287         1
         2         3         4        30     9      180.000000        0.002269         2
         2         3         4        30     9        0.000000        0.073985         3
         2         3         4        30     9      180.000000        0.044940         4
         2         6         5         4     9        0.000000       -0.153097         1
         2         6         5         4     9      180.000000       19.124079         2
         2         6         5         4     9        0.000000       -2.810094         3
         2         6         5         4     9      180.000000       -0.448961         4
         2         6         5        10     9        0.000000        0.046529         1
         2         6         5        10     9      180.000000       14.843745         2
         2         6         5        10     9        0.000000       -1.410912         3
         2         6         5        10     9      180.000000       -0.358719         4
         2         6         7         8     9        0.000000       -0.027965         1
         2         6         7         8     9      180.000000       13.883603         2
         2         6         7         8     9        0.000000       -0.008430         3
         2         6         7         8     9      180.000000       -0.412528         4
         2         6         7        19     9        0.000000       -0.246544         1
         2         6         7        19     9      180.000000        9.329578         2
         2         6         7        19     9        0.000000        0.390514         3
         2         6         7        19     9      180.000000       -0.477487         4
         3         2         1        27     9        0.000000        1.285396         1
         3         2         1        27     9      180.000000       -3.328465         2
         3         2         1        27     9        0.000000        0.697280         3
         3         2         1        27     9      180.000000        0.165302         4
         3         2         6         5     9        0.000000       -0.701407         1
         3         2         6         5     9      180.000000       13.704713         2
         3         2         6         5     9        0.000000       -1.390444         3
         3         2         6         5     9      180.000000       -0.207481         4
         3         2         6         7     9        0.000000       -0.888518         1
         3         2         6         7     9      180.000000        1.858353         2
         3         2         6         7     9        0.000000       -0.211590         3
         3         2         6         7     9      180.000000        0.879761         4
         3         4         5         6     9        0.000000       -0.622642         1
         3         4         5         6     9      180.000000       13.021376         2
         3         4         5         6     9        0.000000       -1.963695         3
         3         4         5         6     9      180.000000       -0.705055         4
         3         4         5        10     9        0.000000        0.761139         1
         3         4         5        10     9      180.000000        0.867875         2
         3         4         5        10     9        0.000000       -0.126087         3
         3         4         5        10     9      180.000000        0.556044         4
         4         3         2         6     9        0.000000       -0.984361         1
         4         3         2         6     9      180.000000        5.094211         2
         4         3         2         6     9        0.000000       -0.079408         3
         4         3         2         6     9      180.000000       -1.619511         4
         4         3         2        28     9        0.000000       -0.231699         1
         4         3         2        28     9      180.000000        0.281540         2
         4         3         2        28     9        0.000000        0.367337         3
         4         3         2        28     9      180.000000       -0.065595         4
         4         5         6         7     9        0.000000       -0.281168         1
         4         5         6         7     9      180.000000       13.827936         2
         4         5         6         7     9        0.000000       -1.374790         3
         4         5         6         7     9      180.000000       -0.095946         4
         4         5        10         9     9        0.000000       -0.204917         1
         4         5        10         9     9      180.000000       12.542067         2
         4         5        10         9     9        0.000000       -0.134633         3
         4         5        10         9     9      180.000000       -0.062873         4
         4         5        10        11     9        0.000000       -0.246029         1
         4         5        10        11     9      180.000000       15.791125         2
         4         5        10        11     9        0.000000        0.151299         3
         4         5        10        11     9      180.000000       -0.331070         4
         5         4         3        25     9        0.000000        0.329691         1
         5         4         3        25     9      180.000000        0.109473         2
         5         4         3        25     9        0.000000        0.398011         3
         5         4         3        25     9      180.000000        0.211076         4
         5         4         3        26     9        0.000000        0.329691         1
         5         4         3        26     9      180.000000        0.109473         2
         5         4         3        26     9        0.000000        0.398011         3
         5         4         3        26     9      180.000000        0.211076         4
         5         6         2        28     9        0.000000        1.155018         1
         5         6         2        28     9      180.000000        0.750825         2
         5         6         2        28     9        0.000000       -0.323183         3
         5         6         2        28     9      180.000000        0.656172         4
         5         6         7         8     9        0.000000        0.067770         1
         5         6         7         8     9      180.000000       18.867982         2
         5         6         7         8     9        0.000000       -1.828015         3
         5         6         7         8     9      180.000000       -0.417240         4
         5         6         7        19     9        0.000000       -0.511168         1
         5         6         7        19     9      180.000000       10.739689         2
         5         6         7        19     9        0.000000       -0.027347         3
         5         6         7        19     9      180.000000       -0.469213         4
         5        10         9         8     9        0.000000       -0.106217         1
         5        10         9         8     9      180.000000       17.674728         2
         5        10         9         8     9        0.000000       -1.235670         3
         5        10         9         8     9      180.000000       -0.416394         4
         5        10         9        32     9        0.000000       -0.020110         1
         5        10         9        32     9      180.000000       13.422876         2
         5        10         9        32     9        0.000000       -0.405715         3
         5        10         9        32     9      180.000000        0.029892         4
         5        10        11        12     9        0.000000       -0.057590         1
         5        10        11        12     9      180.000000        3.649028         2
         5        10        11        12     9        0.000000        0.435213         3
         5        10        11        12     9      180.000000        0.096495         4
         6         2         1        27     9        0.000000        5.487168         1
         6         2         1        27     9      180.000000       -2.647029         2
         6         2         1        27     9        0.000000        0.869113         3
         6         2         1        27     9      180.000000        0.132194         4
         6         2         3        25     9        0.000000        0.305123         1
         6         2         3        25     9      180.000000        0.340248         2
         6         2         3        25     9        0.000000        0.324514         3
         6         2         3        25     9      180.000000        0.200367         4
         6         2         3        26     9        0.000000        0.305123         1
         6         2         3        26     9      180.000000        0.340248         2
         6         2         3        26     9        0.000000        0.324514         3
         6         2         3        26     9      180.000000        0.200367         4
         6         5         4        29     9        0.000000        0.046880         1
         6         5         4        29     9      180.000000       -0.027333         2
         6         5         4        29     9        0.000000       -0.454819         3
         6         5         4        29     9      180.000000        0.381478         4
         6         5         4        30     9        0.000000        0.046880         1
         6         5         4        30     9      180.000000       -0.027333         2
         6         5         4        30     9        0.000000       -0.454819         3
         6         5         4        30     9      180.000000        0.381478         4
         6         5        10         9     9        0.000000        0.001493         1
         6         5        10         9     9      180.000000       17.046224         2
         6         5        10         9     9        0.000000       -1.125167         3
         6         5        10         9     9      180.000000       -0.466358         4
         6         5        10        11     9        0.000000        0.343321         1
         6         5        10        11     9      180.000000       17.736261         2
         6         5        10        11     9        0.000000        0.289788         3
         6         5        10        11     9      180.000000       -0.596561         4
         6         7         8         9     9        0.000000       -0.074892         1
         6         7         8         9     9      180.000000       19.699657         2
         6         7         8         9     9        0.000000       -1.760928         3
         6         7         8         9     9      180.000000       -0.546591         4
         6         7         8        31     9        0.000000        0.040825         1
         6         7         8        31     9      180.000000       14.631348         2
         6         7         8        31     9        0.000000       -0.520461         3
         6         7         8        31     9      180.000000       -0.039508         4
         6         7        19        20     9        0.000000        0.012361         1
         6         7        19        20     9      180.000000        0.819010         2
         6         7        19        20     9        0.000000        0.517552         3
         6         7        19        20     9      180.000000       -0.130665         4
         6         7        19        21     9        0.000000        0.012361         1
         6         7        19        21     9      180.000000        0.819010         2
         6         7        19        21     9        0.000000        0.517552         3
         6         7        19        21     9      180.000000       -0.130665         4
         6         7        19        22     9        0.000000        1.373355         1
         6         7        19        22     9      180.000000       -2.385342         2
         6         7        19        22     9        0.000000        0.546873         3
         6         7        19        22     9      180.000000        0.174205         4
         7         6         2        28     9        0.000000        0.838392         1
         7         6         2        28     9      180.000000        0.266719         2
         7         6         2        28     9        0.000000       -0.089299         3
         7         6         2        28     9      180.000000        0.255553         4
         7         6         5        10     9        0.000000       -0.101403         1
         7         6         5        10     9      180.000000       14.790211         2
         7         6         5        10     9        0.000000       -1.890559         3
         7         6         5        10     9      180.000000       -0.226947         4
         7         8         9        10     9        0.000000       -0.200521         1
         7         8         9        10     9      180.000000       18.618137         2
         7         8         9        10     9        0.000000       -1.885128         3
         7         8         9        10     9      180.000000       -0.460001         4
         7         8         9        32     9        0.000000        0.052125         1
         7         8         9        32     9      180.000000       14.395324         2
         7         8         9        32     9        0.000000       -0.741792         3
         7         8         9        32     9      180.000000        0.039814         4
         7        19        22        23     9        0.000000       -0.222476         1
         7        19        22        23     9      180.000000       -0.262248         2
         7        19        22        23     9        0.000000        0.180420         3
         7        19        22        23     9      180.000000        0.076816         4
         7        19        22        24     9        0.000000       -0.222476         1
         7        19        22        24     9      180.000000       -0.262248         2
         7        19        22        24     9        0.000000        0.180420         3
         7        19        22        24     9      180.000000        0.076816         4
         7        19        22        36     9        0.000000        0.245431         1
         7        19        22        36     9      180.000000       -0.173310         2
         7        19        22        36     9        0.000000        0.375379         3
         7        19        22        36     9      180.000000       -0.030407         4
         8         7        19        20     9        0.000000       -0.000855         1
         8         7        19        20     9      180.000000        1.016499         2
         8         7        19        20     9        0.000000        0.029369         3
         8         7        19        20     9      180.000000       -0.003807         4
         8         7        19        21     9        0.000000       -0.000855         1
         8         7        19        21     9      180.000000        1.016499         2
         8         7        19        21     9        0.000000        0.029369         3
         8         7        19        21     9      180.000000       -0.003807         4
         8         7        19        22     9        0.000000        0.157407         1
         8         7        19        22     9      180.000000       -1.732380         2
         8         7        19        22     9        0.000000       -0.011874         3
         8         7        19        22     9      180.000000        0.143179         4
         8         9        10        11     9        0.000000        0.656220         1
         8         9        10        11     9      180.000000       19.244602         2
         8         9        10        11     9        0.000000        0.434971         3
         8         9        10        11     9      180.000000       -0.260727         4
         9         8         7        19     9        0.000000       -0.217268         1
         9         8         7        19     9      180.000000       13.502374         2
         9         8         7        19     9        0.000000        0.044391         3
         9         8         7        19     9      180.000000       -0.321341         4
         9        10        11        12     9        0.000000        0.036243         1
         9        10        11        12     9      180.000000        4.483869         2
         9        10        11        12     9        0.000000       -0.390486         3
         9        10        11        12     9      180.000000        0.302340         4
        10         5         4        29     9        0.000000        0.064111         1
        10         5         4        29     9      180.000000        0.099019         2
        10         5         4        29     9        0.000000        0.057216         3
        10         5         4        29     9      180.000000        0.066887         4
        10         5         4        30     9        0.000000        0.064111         1
        10         5         4        30     9      180.000000        0.099019         2
        10         5         4        30     9        0.000000        0.057216         3
        10         5         4        30     9      180.000000        0.066887         4
        10         9         8        31     9        0.000000        0.186428         1
        10         9         8        31     9      180.000000       14.634466         2
        10         9         8        31     9        0.000000       -0.485072         3
        10         9         8        31     9      180.000000        0.082022         4
        10        11        12        13     9        0.000000       -0.180556         1
        10        11        12        13     9      180.000000        4.526576         2
        10        11        12        13     9        0.000000       -0.172300         3
        10        11        12        13     9      180.000000        0.277489         4
        10        11        12        18     9        0.000000        0.807877         1
        10        11        12        18     9      180.000000        3.953926         2
        10        11        12        18     9        0.000000        0.118166         3
        10        11        12        18     9      180.000000        0.201102         4
        11        10         9        32     9        0.000000        0.198551         1
        11        10         9        32     9      180.000000       14.187561         2
        11        10         9        32     9        0.000000        0.059997         3
        11        10         9        32     9      180.000000        0.393112         4
        11        12        13        14     9        0.000000        0.417965         1
        11        12        13        14     9      180.000000       17.997523         2
        11        12        13        14     9        0.000000        0.447001         3
        11        12        13        14     9      180.000000       -0.304206         4
        11        12        13        33     9        0.000000        0.238727         1
        11        12        13        33     9      180.000000       13.357726         2
        11        12        13        33     9        0.000000        0.001313         3
        11        12        13        33     9      180.000000        0.424143         4
        11        12        18        17     9        0.000000        0.020225         1
        11        12        18        17     9      180.000000       16.736587         2
        11        12        18        17     9        0.000000        0.350304         3
        11        12        18        17     9      180.000000       -0.600115         4
        11        12        18        35     9        0.000000        0.281044         1
        11        12        18        35     9      180.000000       13.392085         2
        11        12        18        35     9        0.000000        0.149609         3
        11        12        18        35     9      180.000000        0.352560         4
        12        13        14        15     9        0.000000        0.352482         1
        12        13        14        15     9      180.000000       19.275783         2
        12        13        14        15     9        0.000000        0.269402         3
        12        13        14        15     9      180.000000       -0.649818         4
        12        13        14        16     9        0.000000       -0.080195         1
        12        13        14        16     9      180.000000       17.758646         2
        12        13        14        16     9        0.000000       -1.505774         3
        12        13        14        16     9      180.000000       -0.405937         4
        12        18        17        16     9        0.000000        0.160695         1
        12        18        17        16     9      180.000000       23.291619         2
        12        18        17        16     9        0.000000       -1.019047         3
        12        18        17        16     9      180.000000       -0.175105         4
        13        12        18        17     9        0.000000        0.037572         1
        13        12        18        17     9      180.000000       14.767708         2
        13        12        18        17     9        0.000000       -0.523257         3
        13        12        18        17     9      180.000000       -0.220198         4
        13        12        18        35     9        0.000000        0.396841         1
        13        12        18        35     9      180.000000       12.341991         2
        13        12        18        35     9        0.000000       -0.260863         3
        13        12        18        35     9      180.000000        0.103272         4
        13        14        16        17     9        0.000000       -0.088304         1
        13        14        16        17     9      180.000000       16.343588         2
        13        14        16        17     9        0.000000       -0.844931         3
        13        14        16        17     9      180.000000       -0.312994         4
        13        14        16        34     9        0.000000        0.096089         1
        13        14        16        34     9      180.000000       13.111995         2
        13        14        16        34     9        0.000000       -0.529406         3
        13        14        16        34     9      180.000000        0.109817         4
        14        13        12        18     9        0.000000       -0.180395         1
        14        13        12        18     9      180.000000       16.437022         2
        14        13        12        18     9        0.000000       -1.131974         3
        14        13        12        18     9      180.000000       -0.281379         4
        14        16        17        18     9        0.000000        0.213921         1
        14        16        17        18     9      180.000000       22.694602         2
        14        16        17        18     9        0.000000       -0.918935         3
        14        16        17        18     9      180.000000       -0.134020         4
        15        14        13        33     9        0.000000        0.218269         1
        15        14        13        33     9      180.000000       13.518449         2
        15        14        13        33     9        0.000000       -0.117813         3
        15        14        13        33     9      180.000000        0.303705         4
        15        14        16        17     9        0.000000        0.029738         1
        15        14        16        17     9      180.000000       18.197632         2
        15        14        16        17     9        0.000000        0.150682         3
        15        14        16        17     9      180.000000       -0.839443         4
        15        14        16        34     9        0.000000        0.269022         1
        15        14        16        34     9      180.000000       12.844759         2
        15        14        16        34     9        0.000000       -0.073434         3
        15        14        16        34     9      180.000000        0.283697         4
        16        14        13        33     9        0.000000        0.084553         1
        16        14        13        33     9      180.000000       13.098379         2
        16        14        13        33     9        0.000000       -0.597758         3
        16        14        13        33     9      180.000000        0.153346         4
        16        17        18        35     9        0.000000        0.941159         1
        16        17        18        35     9      180.000000       19.973274         2
        16        17        18        35     9        0.000000        0.175276         3
        16        17        18        35     9      180.000000       -0.230740         4
        18        12        13        33     9        0.000000        0.086212         1
        18        12        13        33     9      180.000000       12.268999         2
        18        12        13        33     9        0.000000       -0.582487         3
        18        12        13        33     9      180.000000        0.203893         4
        18        17        16        34     9        0.000000        1.073893         1
        18        17        16        34     9      180.000000       20.854427         2
        18        17        16        34     9        0.000000        0.103207         3
        18        17        16        34     9      180.000000       -0.401185         4
        19         7         8        31     9        0.000000        0.277974         1
        19         7         8        31     9      180.000000       11.958455         2
        19         7         8        31     9        0.000000       -0.233959         3
        19         7         8        31     9      180.000000       -0.050773         4
        20        19        22        23     9        0.000000        0.162715         1
        20        19        22        23     9      180.000000        0.105513         2
        20        19        22        23     9        0.000000        0.247104         3
        20        19        22        23     9      180.000000        0.112904         4
        20        19        22        24     9        0.000000        0.162715         1
        20        19        22        24     9      180.000000        0.105513         2
        20        19        22        24     9        0.000000        0.247104         3
        20        19        22        24     9      180.000000        0.112904         4
        20        19        22        36     9        0.000000       -0.205223         1
        20        19        22        36     9      180.000000        0.079964         2
        20        19        22        36     9        0.000000        0.303827         3
        20        19        22        36     9      180.000000       -0.009602         4
        21        19        22        23     9        0.000000        0.162715         1
        21        19        22        23     9      180.000000        0.105513         2
        21        19        22        23     9        0.000000        0.247104         3
        21        19        22        23     9      180.000000        0.112904         4
        21        19        22        24     9        0.000000        0.162715         1
        21        19        22        24     9      180.000000        0.105513         2
        21        19        22        24     9        0.000000        0.247104         3
        21        19        22        24     9      180.000000        0.112904         4
        21        19        22        36     9        0.000000       -0.205223         1
        21        19        22        36     9      180.000000        0.079964         2
        21        19        22        36     9        0.000000        0.303827         3
        21        19        22        36     9      180.000000       -0.009602         4
        25         3         2        28     9        0.000000       -0.105368         1
        25         3         2        28     9      180.000000        0.049510         2
        25         3         2        28     9        0.000000        0.512239         3
        25         3         2        28     9      180.000000        0.003501         4
        25         3         4        29     9        0.000000        0.023670         1
        25         3         4        29     9      180.000000       -0.092713         2
        25         3         4        29     9        0.000000        0.509467         3
        25         3         4        29     9      180.000000       -0.035231         4
        25         3         4        30     9        0.000000        0.023670         1
        25         3         4        30     9      180.000000       -0.092713         2
        25         3         4        30     9        0.000000        0.509467         3
        25         3         4        30     9      180.000000       -0.035231         4
        26         3         2        28     9        0.000000       -0.105368         1
        26         3         2        28     9      180.000000        0.049510         2
        26         3         2        28     9        0.000000        0.512239         3
        26         3         2        28     9      180.000000        0.003501         4
        26         3         4        29     9        0.000000        0.023670         1
        26         3         4        29     9      180.000000       -0.092713         2
        26         3         4        29     9        0.000000        0.509467         3
        26         3         4        29     9      180.000000       -0.035231         4
        26         3         4        30     9        0.000000        0.023670         1
        26         3         4        30     9      180.000000       -0.092713         2
        26         3         4        30     9        0.000000        0.509467         3
        26         3         4        30     9      180.000000       -0.035231         4
        27         1         2        28     9        0.000000        0.165313         1
        27         1         2        28     9      180.000000       -0.087622         2
        27         1         2        28     9        0.000000        0.730153         3
        27         1         2        28     9      180.000000        0.188148         4
        31         8         9        32     9        0.000000       -0.061453         1
        31         8         9        32     9      180.000000       12.696797         2
        31         8         9        32     9        0.000000       -0.850787         3
        31         8         9        32     9      180.000000        0.232288         4

[ dihedrals ] ; impropers
;       ai        aj        ak        al funct           phase               k        pn
        16        14        17        34     4      180.000000        3.316421         2
        16        17        34        14     4      180.000000        3.316421         2
        16        34        14        17     4      180.000000        3.316421         2
        18        12        17        35     4      180.000000        4.113840         2
        18        17        35        12     4      180.000000        4.113840         2
        18        35        12        17     4      180.000000        4.113840         2

[ pairs ]
;       ai        aj funct
         1         4     1
         1         5     1
         1         7     1
         1        25     1
         1        26     1
         2         8     1
         2        10     1
         2        19     1
         2        29     1
         2        30     1
         3         7     1
         3        10     1
         3        27     1
         4         7     1
         4         9     1
         4        11     1
         4        28     1
         5         8     1
         5        12     1
         5        19     1
         5        25     1
         5        26     1
         5        28     1
         5        32     1
         6         9     1
         6        11     1
         6        20     1
         6        21     1
         6        22     1
         6        25     1
         6        26     1
         6        27     1
         6        29     1
         6        30     1
         6        31     1
         7        10     1
         7        23     1
         7        24     1
         7        28     1
         7        32     1
         7        36     1
         8        11     1
         8        20     1
         8        21     1
         8        22     1
         9        12     1
         9        19     1
        10        13     1
        10        18     1
        10        29     1
        10        30     1
        10        31     1
        11        14     1
        11        17     1
        11        32     1
        11        33     1
        11        35     1
        12        15     1
        12        16     1
        13        17     1
        13        34     1
        13        35     1
        14        18     1
        15        17     1
        15        33     1
        15        34     1
        16        33     1
        16        35     1
        18        33     1
        18        34     1
        19        31     1
        20        23     1
        20        24     1
        20        36     1
        21        23     1
        21        24     1
        21        36     1
        25        28     1
        25        29     1
        25        30     1
        26        28     1
        26        29     1
        26        30     1
        27        28     1
        31        32     1
