; ITP file created by ByteFF-ML, 2026-02-21 07:39:57.150706

[ atomtypes ]
;name           bonded.type        at.num        mass        charge   ptype           sigma         epsilon
 o0bf                                   8      0.0000       0.00000       A     3.23829e-01     3.88924e-01
 c1bf                                   6      0.0000       0.00000       A     3.40170e-01     4.47986e-01
 c2bf                                   6      0.0000       0.00000       A     3.39806e-01     4.53836e-01
 c3bf                                   6      0.0000       0.00000       A     3.39919e-01     4.53552e-01
 c4bf                                   6      0.0000       0.00000       A     3.31707e-01     4.12972e-01
 c5bf                                   6      0.0000       0.00000       A     3.31620e-01     4.13553e-01
 c6bf                                   6      0.0000       0.00000       A     3.31496e-01     4.09979e-01
 c7bf                                   6      0.0000       0.00000       A     3.31342e-01     4.13944e-01
 c8bf                                   6      0.0000       0.00000       A     3.31313e-01     4.12898e-01
 c9bf                                   6      0.0000       0.00000       A     3.31551e-01     4.12804e-01
 o10bf                                  8      0.0000       0.00000       A     3.15848e-01     3.06354e-01
 c11bf                                  6      0.0000       0.00000       A     3.31461e-01     4.12807e-01
 c12bf                                  6      0.0000       0.00000       A     3.31497e-01     4.13743e-01
 c13bf                                  6      0.0000       0.00000       A     3.31573e-01     4.14252e-01
 f14bf                                  9      0.0000       0.00000       A     3.03468e-01     3.48235e-01
 c15bf                                  6      0.0000       0.00000       A     3.31552e-01     4.14123e-01
 c16bf                                  6      0.0000       0.00000       A     3.31534e-01     4.14279e-01
 c17bf                                  6      0.0000       0.00000       A     3.48195e-01     6.71490e-01
 c18bf                                  6      0.0000       0.00000       A     3.31496e-01     4.14341e-01
 s19bf                                 16      0.0000       0.00000       A     4.06060e-01     2.59433e-01
 o20bf                                  8      0.0000       0.00000       A     3.05085e-01     6.12755e-01
 o21bf                                  8      0.0000       0.00000       A     3.05085e-01     6.12755e-01
 n22bf                                  7      0.0000       0.00000       A     3.64699e-01     1.40762e-01
 f23bf                                  9      0.0000       0.00000       A     3.03598e-01     3.48417e-01
 f24bf                                  9      0.0000       0.00000       A     3.03598e-01     3.48417e-01
 n25bf                                  7      0.0000       0.00000       A     3.27424e-01     4.58548e-01
 h26bf                                  1      0.0000       0.00000       A     5.36710e-02     1.95151e-02
 h27bf                                  1      0.0000       0.00000       A     2.41570e-01     8.63936e-02
 h28bf                                  1      0.0000       0.00000       A     2.60031e-01     8.68485e-02
 h29bf                                  1      0.0000       0.00000       A     2.60031e-01     8.68485e-02
 h30bf                                  1      0.0000       0.00000       A     2.62799e-01     6.77388e-02
 h31bf                                  1      0.0000       0.00000       A     2.62431e-01     6.72328e-02
 h32bf                                  1      0.0000       0.00000       A     2.62432e-01     6.69886e-02
 h33bf                                  1      0.0000       0.00000       A     2.62464e-01     6.71849e-02
 h34bf                                  1      0.0000       0.00000       A     2.62428e-01     6.73733e-02
 h35bf                                  1      0.0000       0.00000       A     1.10142e-01     3.92266e-02
 h36bf                                  1      0.0000       0.00000       A     1.10142e-01     3.92266e-02

[ moleculetype ]
;name             nrexcl
 252                   3

[ atoms ]
;       nr            type      resi   res      atom      cgnr      charge          mass ; qtot
         1            o0bf         1   UNL        o0         1    -0.64390       15.9990 ; qtot   -0.644
         2            c1bf         1   UNL        c1         2     0.18174       12.0110 ; qtot   -0.462
         3            c2bf         1   UNL        c2         3     0.15537       12.0110 ; qtot   -0.307
         4            c3bf         1   UNL        c3         4    -0.06012       12.0110 ; qtot   -0.367
         5            c4bf         1   UNL        c4         5    -0.09890       12.0110 ; qtot   -0.466
         6            c5bf         1   UNL        c5         6     0.00149       12.0110 ; qtot   -0.464
         7            c6bf         1   UNL        c6         7    -0.23911       12.0110 ; qtot   -0.703
         8            c7bf         1   UNL        c7         8     0.01268       12.0110 ; qtot   -0.691
         9            c8bf         1   UNL        c8         9    -0.15216       12.0110 ; qtot   -0.843
        10            c9bf         1   UNL        c9        10     0.14519       12.0110 ; qtot   -0.698
        11           o10bf         1   UNL       o10        11    -0.24267       15.9990 ; qtot   -0.940
        12           c11bf         1   UNL       c11        12     0.15070       12.0110 ; qtot   -0.790
        13           c12bf         1   UNL       c12        13    -0.16635       12.0110 ; qtot   -0.956
        14           c13bf         1   UNL       c13        14     0.19192       12.0110 ; qtot   -0.764
        15           f14bf         1   UNL       f14        15    -0.16215       18.9980 ; qtot   -0.926
        16           c15bf         1   UNL       c15        16    -0.13469       12.0110 ; qtot   -1.061
        17           c16bf         1   UNL       c16        17     0.04075       12.0110 ; qtot   -1.020
        18           c17bf         1   UNL       c17        18     0.31339       12.0110 ; qtot   -0.707
        19           c18bf         1   UNL       c18        19    -0.11736       12.0110 ; qtot   -0.824
        20           s19bf         1   UNL       s19        20     1.06487       32.0670 ; qtot    0.241
        21           o20bf         1   UNL       o20        21    -0.52417       15.9990 ; qtot   -0.283
        22           o21bf         1   UNL       o21        22    -0.52417       15.9990 ; qtot   -0.808
        23           n22bf         1   UNL       n22        23    -0.95612       14.0070 ; qtot   -1.764
        24           f23bf         1   UNL       f23        24    -0.10126       18.9980 ; qtot   -1.865
        25           f24bf         1   UNL       f24        25    -0.10126       18.9980 ; qtot   -1.966
        26           n25bf         1   UNL       n25        26    -0.43909       14.0070 ; qtot   -2.405
        27           h26bf         1   UNL       h26        27     0.46187        1.0080 ; qtot   -1.944
        28           h27bf         1   UNL       h27        28     0.09501        1.0080 ; qtot   -1.848
        29           h28bf         1   UNL       h28        29     0.09046        1.0080 ; qtot   -1.758
        30           h29bf         1   UNL       h29        30     0.09046        1.0080 ; qtot   -1.668
        31           h30bf         1   UNL       h30        31     0.14796        1.0080 ; qtot   -1.520
        32           h31bf         1   UNL       h31        32     0.13571        1.0080 ; qtot   -1.384
        33           h32bf         1   UNL       h32        33     0.15329        1.0080 ; qtot   -1.231
        34           h33bf         1   UNL       h33        34     0.14757        1.0080 ; qtot   -1.083
        35           h34bf         1   UNL       h34        35     0.14589        1.0080 ; qtot   -0.937
        36           h35bf         1   UNL       h35        36     0.46858        1.0080 ; qtot   -0.469
        37           h36bf         1   UNL       h36        37     0.46858        1.0080 ; qtot    0.000

[ bonds ]
;       ai        aj funct               r               k
         1         2     1        0.142075   213567.828882
         1        27     1        0.097160   464731.313574
         2         3     1        0.155083   154261.799536
         2         6     1        0.151897   171593.197241
         2        28     1        0.109489   296946.656982
         3         4     1        0.153347   171559.079663
         3        24     1        0.137650   224399.891797
         3        25     1        0.137650   224399.891797
         4         5     1        0.151016   191477.820679
         4        29     1        0.109299   306936.288965
         4        30     1        0.109299   306936.288965
         5         6     1        0.139856   280441.359229
         5        10     1        0.139553   294554.621484
         6         7     1        0.139859   291290.672461
         7         8     1        0.139776   298924.914697
         7        20     1        0.180145   129224.693994
         8         9     1        0.139482   319566.841113
         8        31     1        0.108388   326985.447998
         9        10     1        0.139874   294474.434961
         9        32     1        0.108428   324837.981396
        10        11     1        0.138436   237751.101172
        11        12     1        0.137421   250794.179785
        12        13     1        0.139961   293934.708154
        12        19     1        0.139702   295896.749805
        13        14     1        0.139111   310051.892920
        13        33     1        0.108374   328151.165967
        14        15     1        0.135083   300333.720410
        14        16     1        0.138892   307835.578271
        16        17     1        0.140515   294475.124463
        16        34     1        0.108386   329357.334717
        17        18     1        0.143765   270871.863770
        17        19     1        0.140387   298138.014209
        18        26     1        0.116512  1108338.024805
        19        35     1        0.108395   327534.189404
        20        21     1        0.146517   523268.343945
        20        22     1        0.146517   523268.343945
        20        23     1        0.169760   163523.687744
        23        36     1        0.101911   405370.711426
        23        37     1        0.101911   405370.711426

[ angles ]
;       ai        aj        ak funct           theta             cth
         1         2         3     1      112.804115      505.154828
         1         2         6     1      112.670410      633.611308
         1         2        28     1      108.702026      411.473123
         2         1        27     1      107.947983      570.473295
         2         3         4     1      107.619408      448.371213
         2         3        24     1      110.366714      538.476701
         2         3        25     1      110.366714      538.476701
         2         6         5     1      110.055374      408.735130
         2         6         7     1      129.668823      419.878247
         3         2         6     1      101.904694      554.705726
         3         2        28     1      108.575989      461.743976
         3         4         5     1      102.387344      560.640869
         3         4        29     1      110.204872      490.175876
         3         4        30     1      110.204872      490.175876
         4         3        24     1      111.618088      567.835311
         4         3        25     1      111.618088      567.835311
         4         5         6     1      111.724388      373.504485
         4         5        10     1      127.951431      423.022408
         5         4        29     1      112.432816      451.960358
         5         4        30     1      112.432816      451.960358
         5         6         7     1      119.643410      628.043963
         5        10         9     1      119.991211      672.399751
         5        10        11     1      118.786232      414.837126
         6         2        28     1      111.621071      425.075209
         6         5        10     1      120.122292      662.318977
         6         7         8     1      120.047203      693.748200
         6         7        20     1      121.829544      551.925245
         7         8         9     1      120.354088      621.012575
         7         8        31     1      119.561523      370.141056
         7        20        21     1      108.023827      617.677875
         7        20        22     1      108.023827      617.677875
         7        20        23     1      102.668274      543.767990
         8         7        20     1      117.729813      530.176949
         8         9        10     1      119.823318      701.512630
         8         9        32     1      120.687622      419.909722
         9         8        31     1      120.520737      396.639701
         9        10        11     1      121.027039      528.620526
        10         9        32     1      119.707115      424.101351
        10        11        12     1      118.801376      430.087409
        11        12        13     1      119.322159      518.676887
        11        12        19     1      119.615601      500.976988
        12        13        14     1      118.171036      766.741494
        12        13        33     1      121.308182      417.404883
        12        19        17     1      118.959595      688.354954
        12        19        35     1      120.280678      422.219011
        13        12        19     1      120.802040      630.818314
        13        14        15     1      118.343826      541.971774
        13        14        16     1      122.953712      628.021298
        14        13        33     1      120.554909      416.906303
        14        16        17     1      117.516953      637.448450
        14        16        34     1      120.746925      422.893797
        15        14        16     1      118.731651      524.645196
        16        17        18     1      119.386719      476.745240
        16        17        19     1      121.187233      684.585996
        17        16        34     1      121.582848      413.830549
        17        18        26     1      179.655121      167.360000
        17        19        35     1      120.651222      407.470181
        18        17        19     1      119.288147      472.497366
        20        23        36     1      109.690613      599.942672
        20        23        37     1      109.690613      599.942672
        21        20        22     1      122.124596      701.802285
        21        20        23     1      106.832863      752.291512
        22        20        23     1      106.832863      752.291512
        24         3        25     1      106.171570      726.740804
        29         4        30     1      107.711754      357.271981
        36        23        37     1      111.526405      393.964562

[ dihedrals ] ; propers for gromacs 4.5 or higher, use funct 9
;       ai        aj        ak        al funct           phase               k        pn
         1         2         3         4     9        0.000000       -2.314670         1
         1         2         3         4     9      180.000000        1.249741         2
         1         2         3         4     9        0.000000        0.444305         3
         1         2         3         4     9      180.000000       -0.128966         4
         1         2         3        24     9        0.000000        0.953543         1
         1         2         3        24     9      180.000000        0.201693         2
         1         2         3        24     9        0.000000        0.693225         3
         1         2         3        24     9      180.000000       -0.122166         4
         1         2         3        25     9        0.000000        0.953543         1
         1         2         3        25     9      180.000000        0.201693         2
         1         2         3        25     9        0.000000        0.693225         3
         1         2         3        25     9      180.000000       -0.122166         4
         1         2         6         5     9        0.000000       -2.977080         1
         1         2         6         5     9      180.000000        3.318082         2
         1         2         6         5     9        0.000000        0.299545         3
         1         2         6         5     9      180.000000        1.261204         4
         1         2         6         7     9        0.000000       -0.763426         1
         1         2         6         7     9      180.000000        2.314841         2
         1         2         6         7     9        0.000000        0.179262         3
         1         2         6         7     9      180.000000        0.395262         4
         2         3         4         5     9        0.000000       -0.840360         1
         2         3         4         5     9      180.000000        4.766051         2
         2         3         4         5     9        0.000000       -0.151941         3
         2         3         4         5     9      180.000000       -1.124581         4
         2         3         4        29     9        0.000000        0.020294         1
         2         3         4        29     9      180.000000        0.006304         2
         2         3         4        29     9        0.000000        0.074733         3
         2         3         4        29     9      180.000000        0.046972         4
         2         3         4        30     9        0.000000        0.020294         1
         2         3         4        30     9      180.000000        0.006304         2
         2         3         4        30     9        0.000000        0.074733         3
         2         3         4        30     9      180.000000        0.046972         4
         2         6         5         4     9        0.000000       -0.028999         1
         2         6         5         4     9      180.000000       19.262508         2
         2         6         5         4     9        0.000000       -2.983890         3
         2         6         5         4     9      180.000000       -0.447797         4
         2         6         5        10     9        0.000000        0.131954         1
         2         6         5        10     9      180.000000       14.783945         2
         2         6         5        10     9        0.000000       -1.540650         3
         2         6         5        10     9      180.000000       -0.323851         4
         2         6         7         8     9        0.000000        0.079416         1
         2         6         7         8     9      180.000000       13.781885         2
         2         6         7         8     9        0.000000       -0.250931         3
         2         6         7         8     9      180.000000       -0.372666         4
         2         6         7        20     9        0.000000       -0.363292         1
         2         6         7        20     9      180.000000        9.437639         2
         2         6         7        20     9        0.000000        0.410411         3
         2         6         7        20     9      180.000000       -0.474433         4
         3         2         1        27     9        0.000000        1.315440         1
         3         2         1        27     9      180.000000       -3.314635         2
         3         2         1        27     9        0.000000        0.693764         3
         3         2         1        27     9      180.000000        0.163334         4
         3         2         6         5     9        0.000000       -0.884836         1
         3         2         6         5     9      180.000000       13.957620         2
         3         2         6         5     9        0.000000       -1.392569         3
         3         2         6         5     9      180.000000       -0.129410         4
         3         2         6         7     9        0.000000       -0.462633         1
         3         2         6         7     9      180.000000        1.612901         2
         3         2         6         7     9        0.000000       -0.140248         3
         3         2         6         7     9      180.000000        0.853520         4
         3         4         5         6     9        0.000000       -0.521495         1
         3         4         5         6     9      180.000000       13.257544         2
         3         4         5         6     9        0.000000       -1.965022         3
         3         4         5         6     9      180.000000       -0.765664         4
         3         4         5        10     9        0.000000        0.751398         1
         3         4         5        10     9      180.000000        0.859399         2
         3         4         5        10     9        0.000000       -0.136812         3
         3         4         5        10     9      180.000000        0.564880         4
         4         3         2         6     9        0.000000       -0.857791         1
         4         3         2         6     9      180.000000        4.894306         2
         4         3         2         6     9        0.000000       -0.057369         3
         4         3         2         6     9      180.000000       -1.519945         4
         4         3         2        28     9        0.000000       -0.221151         1
         4         3         2        28     9      180.000000        0.286791         2
         4         3         2        28     9        0.000000        0.368684         3
         4         3         2        28     9      180.000000       -0.063865         4
         4         5         6         7     9        0.000000       -0.166376         1
         4         5         6         7     9      180.000000       14.201684         2
         4         5         6         7     9        0.000000       -1.392544         3
         4         5         6         7     9      180.000000       -0.109243         4
         4         5        10         9     9        0.000000       -0.195014         1
         4         5        10         9     9      180.000000       12.541336         2
         4         5        10         9     9        0.000000       -0.107155         3
         4         5        10         9     9      180.000000       -0.063417         4
         4         5        10        11     9        0.000000       -0.242233         1
         4         5        10        11     9      180.000000       15.896334         2
         4         5        10        11     9        0.000000        0.149386         3
         4         5        10        11     9      180.000000       -0.349535         4
         5         4         3        24     9        0.000000        0.313396         1
         5         4         3        24     9      180.000000        0.074449         2
         5         4         3        24     9        0.000000        0.404805         3
         5         4         3        24     9      180.000000        0.205798         4
         5         4         3        25     9        0.000000        0.313396         1
         5         4         3        25     9      180.000000        0.074449         2
         5         4         3        25     9        0.000000        0.404805         3
         5         4         3        25     9      180.000000        0.205798         4
         5         6         2        28     9        0.000000        1.067119         1
         5         6         2        28     9      180.000000        0.853246         2
         5         6         2        28     9        0.000000       -0.311394         3
         5         6         2        28     9      180.000000        0.671798         4
         5         6         7         8     9        0.000000        0.118480         1
         5         6         7         8     9      180.000000       19.061096         2
         5         6         7         8     9        0.000000       -1.840173         3
         5         6         7         8     9      180.000000       -0.480154         4
         5         6         7        20     9        0.000000       -0.212376         1
         5         6         7        20     9      180.000000       12.024709         2
         5         6         7        20     9        0.000000       -0.065864         3
         5         6         7        20     9      180.000000       -0.518303         4
         5        10         9         8     9        0.000000       -0.137514         1
         5        10         9         8     9      180.000000       17.677910         2
         5        10         9         8     9        0.000000       -1.212639         3
         5        10         9         8     9      180.000000       -0.435431         4
         5        10         9        32     9        0.000000       -0.019297         1
         5        10         9        32     9      180.000000       13.352360         2
         5        10         9        32     9        0.000000       -0.401291         3
         5        10         9        32     9      180.000000        0.028631         4
         5        10        11        12     9        0.000000       -0.159564         1
         5        10        11        12     9      180.000000        3.606170         2
         5        10        11        12     9        0.000000        0.428941         3
         5        10        11        12     9      180.000000        0.108712         4
         6         2         1        27     9        0.000000        5.571604         1
         6         2         1        27     9      180.000000       -2.587743         2
         6         2         1        27     9        0.000000        0.877962         3
         6         2         1        27     9      180.000000        0.137926         4
         6         2         3        24     9        0.000000        0.351722         1
         6         2         3        24     9      180.000000        0.336934         2
         6         2         3        24     9        0.000000        0.335003         3
         6         2         3        24     9      180.000000        0.227291         4
         6         2         3        25     9        0.000000        0.351722         1
         6         2         3        25     9      180.000000        0.336934         2
         6         2         3        25     9        0.000000        0.335003         3
         6         2         3        25     9      180.000000        0.227291         4
         6         5         4        29     9        0.000000        0.082820         1
         6         5         4        29     9      180.000000       -0.039386         2
         6         5         4        29     9        0.000000       -0.458344         3
         6         5         4        29     9      180.000000        0.404251         4
         6         5         4        30     9        0.000000        0.082820         1
         6         5         4        30     9      180.000000       -0.039386         2
         6         5         4        30     9        0.000000       -0.458344         3
         6         5         4        30     9      180.000000        0.404251         4
         6         5        10         9     9        0.000000        0.061287         1
         6         5        10         9     9      180.000000       17.065700         2
         6         5        10         9     9        0.000000       -1.102283         3
         6         5        10         9     9      180.000000       -0.464994         4
         6         5        10        11     9        0.000000        0.356806         1
         6         5        10        11     9      180.000000       17.565653         2
         6         5        10        11     9        0.000000        0.274334         3
         6         5        10        11     9      180.000000       -0.560068         4
         6         7         8         9     9        0.000000       -0.160602         1
         6         7         8         9     9      180.000000       19.485317         2
         6         7         8         9     9        0.000000       -1.741453         3
         6         7         8         9     9      180.000000       -0.532763         4
         6         7         8        31     9        0.000000        0.053894         1
         6         7         8        31     9      180.000000       14.990884         2
         6         7         8        31     9        0.000000       -0.451414         3
         6         7         8        31     9      180.000000       -0.086621         4
         6         7        20        21     9        0.000000        0.171237         1
         6         7        20        21     9      180.000000        0.611184         2
         6         7        20        21     9        0.000000        0.995627         3
         6         7        20        21     9      180.000000       -0.147171         4
         6         7        20        22     9        0.000000        0.171237         1
         6         7        20        22     9      180.000000        0.611184         2
         6         7        20        22     9        0.000000        0.995627         3
         6         7        20        22     9      180.000000       -0.147171         4
         6         7        20        23     9        0.000000        0.165678         1
         6         7        20        23     9      180.000000        0.181826         2
         6         7        20        23     9        0.000000        1.795361         3
         6         7        20        23     9      180.000000        0.246401         4
         7         6         2        28     9        0.000000        0.879241         1
         7         6         2        28     9      180.000000        0.362496         2
         7         6         2        28     9        0.000000       -0.072562         3
         7         6         2        28     9      180.000000        0.184434         4
         7         6         5        10     9        0.000000       -0.097258         1
         7         6         5        10     9      180.000000       14.740897         2
         7         6         5        10     9        0.000000       -1.733111         3
         7         6         5        10     9      180.000000       -0.208122         4
         7         8         9        10     9        0.000000       -0.199243         1
         7         8         9        10     9      180.000000       18.637673         2
         7         8         9        10     9        0.000000       -1.796356         3
         7         8         9        10     9      180.000000       -0.499277         4
         7         8         9        32     9        0.000000        0.039740         1
         7         8         9        32     9      180.000000       14.661674         2
         7         8         9        32     9        0.000000       -0.655173         3
         7         8         9        32     9      180.000000        0.059966         4
         7        20        23        36     9        0.000000       -6.230081         1
         7        20        23        36     9      180.000000       -6.346687         2
         7        20        23        36     9        0.000000        1.608007         3
         7        20        23        36     9      180.000000        0.457263         4
         7        20        23        37     9        0.000000       -6.230081         1
         7        20        23        37     9      180.000000       -6.346687         2
         7        20        23        37     9        0.000000        1.608007         3
         7        20        23        37     9      180.000000        0.457263         4
         8         7        20        21     9        0.000000       -0.155731         1
         8         7        20        21     9      180.000000        0.589459         2
         8         7        20        21     9        0.000000       -0.198467         3
         8         7        20        21     9      180.000000        0.119268         4
         8         7        20        22     9        0.000000       -0.155731         1
         8         7        20        22     9      180.000000        0.589459         2
         8         7        20        22     9        0.000000       -0.198467         3
         8         7        20        22     9      180.000000        0.119268         4
         8         7        20        23     9        0.000000        1.724694         1
         8         7        20        23     9      180.000000        0.414977         2
         8         7        20        23     9        0.000000       -0.318657         3
         8         7        20        23     9      180.000000        0.436612         4
         8         9        10        11     9        0.000000        0.644568         1
         8         9        10        11     9      180.000000       19.184771         2
         8         9        10        11     9        0.000000        0.404842         3
         8         9        10        11     9      180.000000       -0.259394         4
         9         8         7        20     9        0.000000       -0.187584         1
         9         8         7        20     9      180.000000       13.893794         2
         9         8         7        20     9        0.000000        0.117712         3
         9         8         7        20     9      180.000000       -0.388769         4
         9        10        11        12     9        0.000000        0.018619         1
         9        10        11        12     9      180.000000        4.359630         2
         9        10        11        12     9        0.000000       -0.388762         3
         9        10        11        12     9      180.000000        0.309433         4
        10         5         4        29     9        0.000000        0.069257         1
        10         5         4        29     9      180.000000        0.104457         2
        10         5         4        29     9        0.000000        0.057355         3
        10         5         4        29     9      180.000000        0.069024         4
        10         5         4        30     9        0.000000        0.069257         1
        10         5         4        30     9      180.000000        0.104457         2
        10         5         4        30     9        0.000000        0.057355         3
        10         5         4        30     9      180.000000        0.069024         4
        10         9         8        31     9        0.000000        0.198467         1
        10         9         8        31     9      180.000000       14.741978         2
        10         9         8        31     9        0.000000       -0.456390         3
        10         9         8        31     9      180.000000        0.081689         4
        10        11        12        13     9        0.000000        0.061628         1
        10        11        12        13     9      180.000000        4.970901         2
        10        11        12        13     9        0.000000       -0.107231         3
        10        11        12        13     9      180.000000        0.264917         4
        10        11        12        19     9        0.000000        0.085009         1
        10        11        12        19     9      180.000000        4.973204         2
        10        11        12        19     9        0.000000       -0.130706         3
        10        11        12        19     9      180.000000        0.288730         4
        11        10         9        32     9        0.000000        0.197689         1
        11        10         9        32     9      180.000000       14.144257         2
        11        10         9        32     9        0.000000        0.069980         3
        11        10         9        32     9      180.000000        0.368949         4
        11        12        13        14     9        0.000000        0.439834         1
        11        12        13        14     9      180.000000       17.679830         2
        11        12        13        14     9        0.000000        0.518615         3
        11        12        13        14     9      180.000000       -0.304267         4
        11        12        13        33     9        0.000000        0.247031         1
        11        12        13        33     9      180.000000       13.315015         2
        11        12        13        33     9        0.000000       -0.057326         3
        11        12        13        33     9      180.000000        0.357953         4
        11        12        19        17     9        0.000000        0.414466         1
        11        12        19        17     9      180.000000       17.167011         2
        11        12        19        17     9        0.000000        0.430918         3
        11        12        19        17     9      180.000000       -0.092908         4
        11        12        19        35     9        0.000000        0.203641         1
        11        12        19        35     9      180.000000       13.434097         2
        11        12        19        35     9        0.000000       -0.034857         3
        11        12        19        35     9      180.000000        0.337343         4
        12        13        14        15     9        0.000000        0.459528         1
        12        13        14        15     9      180.000000       22.775544         2
        12        13        14        15     9        0.000000        0.620336         3
        12        13        14        15     9      180.000000       -0.895479         4
        12        13        14        16     9        0.000000       -0.037834         1
        12        13        14        16     9      180.000000       16.924316         2
        12        13        14        16     9        0.000000       -1.235725         3
        12        13        14        16     9      180.000000       -0.383379         4
        12        19        17        16     9        0.000000       -0.147115         1
        12        19        17        16     9      180.000000       18.104643         2
        12        19        17        16     9        0.000000       -1.723479         3
        12        19        17        16     9      180.000000       -0.396032         4
        12        19        17        18     9        0.000000       -0.086532         1
        12        19        17        18     9      180.000000       16.262249         2
        12        19        17        18     9        0.000000       -0.126424         3
        12        19        17        18     9      180.000000       -0.295179         4
        13        12        19        17     9        0.000000       -0.151288         1
        13        12        19        17     9      180.000000       16.720497         2
        13        12        19        17     9        0.000000       -0.954879         3
        13        12        19        17     9      180.000000       -0.285399         4
        13        12        19        35     9        0.000000        0.129425         1
        13        12        19        35     9      180.000000       12.822899         2
        13        12        19        35     9        0.000000       -0.471795         3
        13        12        19        35     9      180.000000        0.176763         4
        13        14        16        17     9        0.000000       -0.213127         1
        13        14        16        17     9      180.000000       17.562477         2
        13        14        16        17     9        0.000000       -1.146983         3
        13        14        16        17     9      180.000000       -0.459047         4
        13        14        16        34     9        0.000000        0.012917         1
        13        14        16        34     9      180.000000       13.202101         2
        13        14        16        34     9        0.000000       -0.546497         3
        13        14        16        34     9      180.000000        0.094661         4
        14        13        12        19     9        0.000000       -0.098513         1
        14        13        12        19     9      180.000000       16.419685         2
        14        13        12        19     9        0.000000       -1.019756         3
        14        13        12        19     9      180.000000       -0.197813         4
        14        16        17        18     9        0.000000        0.094774         1
        14        16        17        18     9      180.000000       16.943641         2
        14        16        17        18     9        0.000000       -0.003519         3
        14        16        17        18     9      180.000000       -0.413924         4
        14        16        17        19     9        0.000000       -0.159527         1
        14        16        17        19     9      180.000000       18.380973         2
        14        16        17        19     9        0.000000       -1.728032         3
        14        16        17        19     9      180.000000       -0.402124         4
        15        14        13        33     9        0.000000        0.330038         1
        15        14        13        33     9      180.000000       15.871795         2
        15        14        13        33     9        0.000000        0.248138         3
        15        14        13        33     9      180.000000        0.119632         4
        15        14        16        17     9        0.000000        0.384623         1
        15        14        16        17     9      180.000000       22.626144         2
        15        14        16        17     9        0.000000        0.654396         3
        15        14        16        17     9      180.000000       -0.714402         4
        15        14        16        34     9        0.000000        0.323706         1
        15        14        16        34     9      180.000000       15.967908         2
        15        14        16        34     9        0.000000        0.305032         3
        15        14        16        34     9      180.000000        0.124130         4
        16        14        13        33     9        0.000000        0.166901         1
        16        14        13        33     9      180.000000       12.714126         2
        16        14        13        33     9        0.000000       -0.506238         3
        16        14        13        33     9      180.000000        0.156592         4
        16        17        18        26     9        0.000000        0.000000         1
        16        17        18        26     9      180.000000        0.000000         2
        16        17        18        26     9        0.000000        0.000000         3
        16        17        18        26     9      180.000000        0.000000         4
        16        17        19        35     9        0.000000       -0.033626         1
        16        17        19        35     9      180.000000       14.163344         2
        16        17        19        35     9        0.000000       -0.688105         3
        16        17        19        35     9      180.000000        0.029301         4
        18        17        16        34     9        0.000000        0.029971         1
        18        17        16        34     9      180.000000       12.807836         2
        18        17        16        34     9        0.000000       -0.300729         3
        18        17        16        34     9      180.000000        0.113751         4
        18        17        19        35     9        0.000000        0.024029         1
        18        17        19        35     9      180.000000       12.824091         2
        18        17        19        35     9        0.000000       -0.314228         3
        18        17        19        35     9      180.000000        0.157371         4
        19        12        13        33     9        0.000000        0.123404         1
        19        12        13        33     9      180.000000       12.520774         2
        19        12        13        33     9        0.000000       -0.483970         3
        19        12        13        33     9      180.000000        0.186258         4
        19        17        16        34     9        0.000000       -0.016357         1
        19        17        16        34     9      180.000000       14.310019         2
        19        17        16        34     9        0.000000       -0.696961         3
        19        17        16        34     9      180.000000        0.020091         4
        19        17        18        26     9        0.000000        0.000000         1
        19        17        18        26     9      180.000000        0.000000         2
        19        17        18        26     9        0.000000        0.000000         3
        19        17        18        26     9      180.000000        0.000000         4
        20         7         8        31     9        0.000000        0.175704         1
        20         7         8        31     9      180.000000       12.522676         2
        20         7         8        31     9        0.000000       -0.153887         3
        20         7         8        31     9      180.000000       -0.056454         4
        21        20        23        36     9        0.000000        0.580343         1
        21        20        23        36     9      180.000000        0.902632         2
        21        20        23        36     9        0.000000        0.672685         3
        21        20        23        36     9      180.000000        0.014110         4
        21        20        23        37     9        0.000000        0.580343         1
        21        20        23        37     9      180.000000        0.902632         2
        21        20        23        37     9        0.000000        0.672685         3
        21        20        23        37     9      180.000000        0.014110         4
        22        20        23        36     9        0.000000        0.580343         1
        22        20        23        36     9      180.000000        0.902632         2
        22        20        23        36     9        0.000000        0.672685         3
        22        20        23        36     9      180.000000        0.014110         4
        22        20        23        37     9        0.000000        0.580343         1
        22        20        23        37     9      180.000000        0.902632         2
        22        20        23        37     9        0.000000        0.672685         3
        22        20        23        37     9      180.000000        0.014110         4
        24         3         2        28     9        0.000000       -0.107464         1
        24         3         2        28     9      180.000000        0.049368         2
        24         3         2        28     9        0.000000        0.511618         3
        24         3         2        28     9      180.000000        0.001057         4
        24         3         4        29     9        0.000000        0.023670         1
        24         3         4        29     9      180.000000       -0.092713         2
        24         3         4        29     9        0.000000        0.509467         3
        24         3         4        29     9      180.000000       -0.035231         4
        24         3         4        30     9        0.000000        0.023670         1
        24         3         4        30     9      180.000000       -0.092713         2
        24         3         4        30     9        0.000000        0.509467         3
        24         3         4        30     9      180.000000       -0.035231         4
        25         3         2        28     9        0.000000       -0.107464         1
        25         3         2        28     9      180.000000        0.049368         2
        25         3         2        28     9        0.000000        0.511618         3
        25         3         2        28     9      180.000000        0.001057         4
        25         3         4        29     9        0.000000        0.023670         1
        25         3         4        29     9      180.000000       -0.092713         2
        25         3         4        29     9        0.000000        0.509467         3
        25         3         4        29     9      180.000000       -0.035231         4
        25         3         4        30     9        0.000000        0.023670         1
        25         3         4        30     9      180.000000       -0.092713         2
        25         3         4        30     9        0.000000        0.509467         3
        25         3         4        30     9      180.000000       -0.035231         4
        27         1         2        28     9        0.000000        0.223211         1
        27         1         2        28     9      180.000000       -0.053762         2
        27         1         2        28     9        0.000000        0.727260         3
        27         1         2        28     9      180.000000        0.194502         4
        31         8         9        32     9        0.000000       -0.040029         1
        31         8         9        32     9      180.000000       12.749160         2
        31         8         9        32     9        0.000000       -0.826303         3
        31         8         9        32     9      180.000000        0.225595         4

[ dihedrals ] ; impropers
;       ai        aj        ak        al funct           phase               k        pn
        14        13        15        16     4      180.000000        1.740412         2
        14        15        16        13     4      180.000000        1.740412         2
        14        16        13        15     4      180.000000        1.740412         2

[ pairs ]
;       ai        aj funct
         1         4     1
         1         5     1
         1         7     1
         1        24     1
         1        25     1
         2         8     1
         2        10     1
         2        20     1
         2        29     1
         2        30     1
         3         7     1
         3        10     1
         3        27     1
         4         7     1
         4         9     1
         4        11     1
         4        28     1
         5         8     1
         5        12     1
         5        20     1
         5        24     1
         5        25     1
         5        28     1
         5        32     1
         6         9     1
         6        11     1
         6        21     1
         6        22     1
         6        23     1
         6        24     1
         6        25     1
         6        27     1
         6        29     1
         6        30     1
         6        31     1
         7        10     1
         7        28     1
         7        32     1
         7        36     1
         7        37     1
         8        11     1
         8        21     1
         8        22     1
         8        23     1
         9        12     1
         9        20     1
        10        13     1
        10        19     1
        10        29     1
        10        30     1
        10        31     1
        11        14     1
        11        17     1
        11        32     1
        11        33     1
        11        35     1
        12        15     1
        12        16     1
        12        18     1
        13        17     1
        13        34     1
        13        35     1
        14        18     1
        14        19     1
        15        17     1
        15        33     1
        15        34     1
        16        26     1
        16        33     1
        16        35     1
        18        34     1
        18        35     1
        19        26     1
        19        33     1
        19        34     1
        20        31     1
        21        36     1
        21        37     1
        22        36     1
        22        37     1
        24        28     1
        24        29     1
        24        30     1
        25        28     1
        25        29     1
        25        30     1
        27        28     1
        31        32     1
