; ITP file created by ByteFF-ML, 2026-02-21 07:40:39.738728

[ atomtypes ]
;name           bonded.type        at.num        mass        charge   ptype           sigma         epsilon
 o0bf                                   8      0.0000       0.00000       A     3.23829e-01     3.88924e-01
 c1bf                                   6      0.0000       0.00000       A     3.40170e-01     4.47986e-01
 c2bf                                   6      0.0000       0.00000       A     3.39806e-01     4.53836e-01
 c3bf                                   6      0.0000       0.00000       A     3.39919e-01     4.53552e-01
 c4bf                                   6      0.0000       0.00000       A     3.31707e-01     4.12972e-01
 c5bf                                   6      0.0000       0.00000       A     3.31628e-01     4.13695e-01
 c6bf                                   6      0.0000       0.00000       A     3.31436e-01     4.09879e-01
 c7bf                                   6      0.0000       0.00000       A     3.31342e-01     4.13856e-01
 c8bf                                   6      0.0000       0.00000       A     3.31313e-01     4.12898e-01
 c9bf                                   6      0.0000       0.00000       A     3.31551e-01     4.12804e-01
 o10bf                                  8      0.0000       0.00000       A     3.15848e-01     3.06354e-01
 c11bf                                  6      0.0000       0.00000       A     3.31461e-01     4.12807e-01
 c12bf                                  6      0.0000       0.00000       A     3.31497e-01     4.13743e-01
 c13bf                                  6      0.0000       0.00000       A     3.31573e-01     4.14252e-01
 f14bf                                  9      0.0000       0.00000       A     3.03468e-01     3.48235e-01
 c15bf                                  6      0.0000       0.00000       A     3.31552e-01     4.14123e-01
 c16bf                                  6      0.0000       0.00000       A     3.31534e-01     4.14279e-01
 c17bf                                  6      0.0000       0.00000       A     3.48195e-01     6.71490e-01
 c18bf                                  6      0.0000       0.00000       A     3.31496e-01     4.14341e-01
 s19bf                                 16      0.0000       0.00000       A     4.05905e-01     2.53628e-01
 o20bf                                  8      0.0000       0.00000       A     3.05147e-01     6.12468e-01
 o21bf                                  8      0.0000       0.00000       A     3.05147e-01     6.12468e-01
 n22bf                                  7      0.0000       0.00000       A     3.50636e-01     2.19220e-01
 f23bf                                  9      0.0000       0.00000       A     3.03598e-01     3.48417e-01
 f24bf                                  9      0.0000       0.00000       A     3.03598e-01     3.48417e-01
 n25bf                                  7      0.0000       0.00000       A     3.27424e-01     4.58548e-01
 c26bf                                  6      0.0000       0.00000       A     3.39740e-01     4.51172e-01
 h27bf                                  1      0.0000       0.00000       A     5.36710e-02     1.95151e-02
 h28bf                                  1      0.0000       0.00000       A     2.41570e-01     8.63936e-02
 h29bf                                  1      0.0000       0.00000       A     2.60031e-01     8.68485e-02
 h30bf                                  1      0.0000       0.00000       A     2.60031e-01     8.68485e-02
 h31bf                                  1      0.0000       0.00000       A     2.62799e-01     6.77388e-02
 h32bf                                  1      0.0000       0.00000       A     2.62431e-01     6.72328e-02
 h33bf                                  1      0.0000       0.00000       A     2.62432e-01     6.69886e-02
 h34bf                                  1      0.0000       0.00000       A     2.62464e-01     6.71849e-02
 h35bf                                  1      0.0000       0.00000       A     2.62428e-01     6.73733e-02
 h36bf                                  1      0.0000       0.00000       A     1.10571e-01     3.96591e-02
 h37bf                                  1      0.0000       0.00000       A     2.42089e-01     8.70672e-02
 h38bf                                  1      0.0000       0.00000       A     2.42089e-01     8.70672e-02
 h39bf                                  1      0.0000       0.00000       A     2.42089e-01     8.70672e-02

[ moleculetype ]
;name             nrexcl
 254                   3

[ atoms ]
;       nr            type      resi   res      atom      cgnr      charge          mass ; qtot
         1            o0bf         1   UNL        o0         1    -0.64390       15.9990 ; qtot   -0.644
         2            c1bf         1   UNL        c1         2     0.18230       12.0110 ; qtot   -0.462
         3            c2bf         1   UNL        c2         3     0.15537       12.0110 ; qtot   -0.306
         4            c3bf         1   UNL        c3         4    -0.06012       12.0110 ; qtot   -0.366
         5            c4bf         1   UNL        c4         5    -0.09976       12.0110 ; qtot   -0.466
         6            c5bf         1   UNL        c5         6     0.00277       12.0110 ; qtot   -0.463
         7            c6bf         1   UNL        c6         7    -0.23706       12.0110 ; qtot   -0.700
         8            c7bf         1   UNL        c7         8     0.01543       12.0110 ; qtot   -0.685
         9            c8bf         1   UNL        c8         9    -0.15522       12.0110 ; qtot   -0.840
        10            c9bf         1   UNL        c9        10     0.14519       12.0110 ; qtot   -0.695
        11           o10bf         1   UNL       o10        11    -0.24267       15.9990 ; qtot   -0.938
        12           c11bf         1   UNL       c11        12     0.15070       12.0110 ; qtot   -0.787
        13           c12bf         1   UNL       c12        13    -0.16635       12.0110 ; qtot   -0.953
        14           c13bf         1   UNL       c13        14     0.19192       12.0110 ; qtot   -0.761
        15           f14bf         1   UNL       f14        15    -0.16215       18.9980 ; qtot   -0.924
        16           c15bf         1   UNL       c15        16    -0.13469       12.0110 ; qtot   -1.058
        17           c16bf         1   UNL       c16        17     0.04075       12.0110 ; qtot   -1.017
        18           c17bf         1   UNL       c17        18     0.31339       12.0110 ; qtot   -0.704
        19           c18bf         1   UNL       c18        19    -0.11736       12.0110 ; qtot   -0.821
        20           s19bf         1   UNL       s19        20     1.07345       32.0670 ; qtot    0.252
        21           o20bf         1   UNL       o20        21    -0.52187       15.9990 ; qtot   -0.270
        22           o21bf         1   UNL       o21        22    -0.52187       15.9990 ; qtot   -0.792
        23           n22bf         1   UNL       n22        23    -0.83038       14.0070 ; qtot   -1.622
        24           f23bf         1   UNL       f23        24    -0.10126       18.9980 ; qtot   -1.723
        25           f24bf         1   UNL       f24        25    -0.10126       18.9980 ; qtot   -1.825
        26           n25bf         1   UNL       n25        26    -0.43909       14.0070 ; qtot   -2.264
        27           c26bf         1   UNL       c26        27     0.16982       12.0110 ; qtot   -2.094
        28           h27bf         1   UNL       h27        28     0.46187        1.0080 ; qtot   -1.632
        29           h28bf         1   UNL       h28        29     0.09501        1.0080 ; qtot   -1.537
        30           h29bf         1   UNL       h29        30     0.09046        1.0080 ; qtot   -1.447
        31           h30bf         1   UNL       h30        31     0.09046        1.0080 ; qtot   -1.356
        32           h31bf         1   UNL       h31        32     0.14847        1.0080 ; qtot   -1.208
        33           h32bf         1   UNL       h32        33     0.13571        1.0080 ; qtot   -1.072
        34           h33bf         1   UNL       h33        34     0.15329        1.0080 ; qtot   -0.919
        35           h34bf         1   UNL       h34        35     0.14757        1.0080 ; qtot   -0.771
        36           h35bf         1   UNL       h35        36     0.14589        1.0080 ; qtot   -0.625
        37           h36bf         1   UNL       h36        37     0.46813        1.0080 ; qtot   -0.157
        38           h37bf         1   UNL       h37        38     0.05235        1.0080 ; qtot   -0.105
        39           h38bf         1   UNL       h38        39     0.05235        1.0080 ; qtot   -0.052
        40           h39bf         1   UNL       h39        40     0.05236        1.0080 ; qtot    0.000

[ bonds ]
;       ai        aj funct               r               k
         1         2     1        0.142075   213567.828882
         1        28     1        0.097160   464731.313574
         2         3     1        0.155083   154261.799536
         2         6     1        0.151912   171312.455029
         2        29     1        0.109489   296946.656982
         3         4     1        0.153347   171559.079663
         3        24     1        0.137650   224399.891797
         3        25     1        0.137650   224399.891797
         4         5     1        0.151016   191477.820679
         4        30     1        0.109299   306936.288965
         4        31     1        0.109299   306936.288965
         5         6     1        0.139847   280435.026025
         5        10     1        0.139553   294554.621484
         6         7     1        0.139877   292141.032666
         7         8     1        0.139775   298373.108838
         7        20     1        0.180140   130471.287988
         8         9     1        0.139459   318950.477441
         8        32     1        0.108386   327076.998535
         9        10     1        0.139874   294474.434961
         9        33     1        0.108428   324837.981396
        10        11     1        0.138436   237751.101172
        11        12     1        0.137421   250794.179785
        12        13     1        0.139961   293934.708154
        12        19     1        0.139702   295896.749805
        13        14     1        0.139111   310051.892920
        13        34     1        0.108374   328151.165967
        14        15     1        0.135083   300333.720410
        14        16     1        0.138892   307835.578271
        16        17     1        0.140515   294475.124463
        16        35     1        0.108386   329357.334717
        17        18     1        0.143765   270871.863770
        17        19     1        0.140387   298138.014209
        18        26     1        0.116512  1108338.024805
        19        36     1        0.108395   327534.189404
        20        21     1        0.146559   518580.394629
        20        22     1        0.146559   518580.394629
        20        23     1        0.168870   155923.422632
        23        27     1        0.147135   201129.494556
        23        37     1        0.101846   403412.985547
        27        38     1        0.109277   303676.017285
        27        39     1        0.109277   303676.017285
        27        40     1        0.109277   303676.017285

[ angles ]
;       ai        aj        ak funct           theta             cth
         1         2         3     1      112.804115      505.154828
         1         2         6     1      112.766602      633.261322
         1         2        29     1      108.702026      411.473123
         2         1        28     1      107.947983      570.473295
         2         3         4     1      107.619408      448.371213
         2         3        24     1      110.366714      538.476701
         2         3        25     1      110.366714      538.476701
         2         6         5     1      110.108498      404.231788
         2         6         7     1      129.698456      419.214442
         3         2         6     1      101.897591      554.984463
         3         2        29     1      108.575989      461.743976
         3         4         5     1      102.387344      560.640869
         3         4        30     1      110.204872      490.175876
         3         4        31     1      110.204872      490.175876
         4         3        24     1      111.618088      567.835311
         4         3        25     1      111.618088      567.835311
         4         5         6     1      111.711708      369.303694
         4         5        10     1      127.951431      423.022408
         5         4        30     1      112.432816      451.960358
         5         4        31     1      112.432816      451.960358
         5         6         7     1      119.614609      627.923874
         5        10         9     1      119.991211      672.399751
         5        10        11     1      118.786232      414.837126
         6         2        29     1      111.599655      424.580619
         6         5        10     1      120.136414      661.799616
         6         7         8     1      120.045410      697.523287
         6         7        20     1      122.104477      546.032174
         7         8         9     1      120.416405      622.626520
         7         8        32     1      119.532364      355.033143
         7        20        21     1      108.100220      602.300258
         7        20        22     1      108.100220      602.300258
         7        20        23     1      103.300987      573.044435
         8         7        20     1      117.673904      532.310734
         8         9        10     1      119.810196      701.508097
         8         9        33     1      120.695480      419.471154
         9         8        32     1      120.503494      396.764354
         9        10        11     1      121.027039      528.620526
        10         9        33     1      119.707115      424.101351
        10        11        12     1      118.801376      430.087409
        11        12        13     1      119.322159      518.676887
        11        12        19     1      119.615601      500.976988
        12        13        14     1      118.171036      766.741494
        12        13        34     1      121.308182      417.404883
        12        19        17     1      118.959595      688.354954
        12        19        36     1      120.280678      422.219011
        13        12        19     1      120.802040      630.818314
        13        14        15     1      118.343826      541.971774
        13        14        16     1      122.953712      628.021298
        14        13        34     1      120.554909      416.906303
        14        16        17     1      117.516953      637.448450
        14        16        35     1      120.746925      422.893797
        15        14        16     1      118.731651      524.645196
        16        17        18     1      119.386719      476.745240
        16        17        19     1      121.187233      684.585996
        17        16        35     1      121.582848      413.830549
        17        18        26     1      179.655121      167.360000
        17        19        36     1      120.651222      407.470181
        18        17        19     1      119.288147      472.497366
        20        23        27     1      117.202065      587.375350
        20        23        37     1      108.283226      611.614983
        21        20        22     1      121.326866      716.769457
        21        20        23     1      106.819603      695.515815
        22        20        23     1      106.819603      695.515815
        23        27        38     1      109.895973      467.868541
        23        27        39     1      109.895973      467.868509
        23        27        40     1      109.895973      467.868509
        24         3        25     1      106.171570      726.740804
        27        23        37     1      114.404678      500.923424
        30         4        31     1      107.711754      357.271981
        38        27        39     1      109.059982      349.409296
        38        27        40     1      109.059982      349.409296
        39        27        40     1      109.059982      349.409296

[ dihedrals ] ; propers for gromacs 4.5 or higher, use funct 9
;       ai        aj        ak        al funct           phase               k        pn
         1         2         3         4     9        0.000000       -2.314670         1
         1         2         3         4     9      180.000000        1.249741         2
         1         2         3         4     9        0.000000        0.444305         3
         1         2         3         4     9      180.000000       -0.128966         4
         1         2         3        24     9        0.000000        0.953543         1
         1         2         3        24     9      180.000000        0.201693         2
         1         2         3        24     9        0.000000        0.693225         3
         1         2         3        24     9      180.000000       -0.122166         4
         1         2         3        25     9        0.000000        0.953543         1
         1         2         3        25     9      180.000000        0.201693         2
         1         2         3        25     9        0.000000        0.693225         3
         1         2         3        25     9      180.000000       -0.122166         4
         1         2         6         5     9        0.000000       -3.120820         1
         1         2         6         5     9      180.000000        3.337890         2
         1         2         6         5     9        0.000000        0.285254         3
         1         2         6         5     9      180.000000        1.256949         4
         1         2         6         7     9        0.000000       -0.857255         1
         1         2         6         7     9      180.000000        2.196140         2
         1         2         6         7     9        0.000000        0.188080         3
         1         2         6         7     9      180.000000        0.383634         4
         2         3         4         5     9        0.000000       -0.840360         1
         2         3         4         5     9      180.000000        4.766051         2
         2         3         4         5     9        0.000000       -0.151941         3
         2         3         4         5     9      180.000000       -1.124581         4
         2         3         4        30     9        0.000000        0.020294         1
         2         3         4        30     9      180.000000        0.006303         2
         2         3         4        30     9        0.000000        0.074733         3
         2         3         4        30     9      180.000000        0.046972         4
         2         3         4        31     9        0.000000        0.020294         1
         2         3         4        31     9      180.000000        0.006304         2
         2         3         4        31     9        0.000000        0.074733         3
         2         3         4        31     9      180.000000        0.046972         4
         2         6         5         4     9        0.000000       -0.089736         1
         2         6         5         4     9      180.000000       19.412225         2
         2         6         5         4     9        0.000000       -2.948321         3
         2         6         5         4     9      180.000000       -0.483744         4
         2         6         5        10     9        0.000000        0.156826         1
         2         6         5        10     9      180.000000       14.715597         2
         2         6         5        10     9        0.000000       -1.506642         3
         2         6         5        10     9      180.000000       -0.333484         4
         2         6         7         8     9        0.000000        0.106502         1
         2         6         7         8     9      180.000000       13.889849         2
         2         6         7         8     9        0.000000       -0.091783         3
         2         6         7         8     9      180.000000       -0.421203         4
         2         6         7        20     9        0.000000       -0.223643         1
         2         6         7        20     9      180.000000        9.829905         2
         2         6         7        20     9        0.000000        0.411175         3
         2         6         7        20     9      180.000000       -0.536639         4
         3         2         1        28     9        0.000000        1.315440         1
         3         2         1        28     9      180.000000       -3.314635         2
         3         2         1        28     9        0.000000        0.693764         3
         3         2         1        28     9      180.000000        0.163334         4
         3         2         6         5     9        0.000000       -0.668939         1
         3         2         6         5     9      180.000000       14.116073         2
         3         2         6         5     9        0.000000       -1.358059         3
         3         2         6         5     9      180.000000       -0.101414         4
         3         2         6         7     9        0.000000       -0.409797         1
         3         2         6         7     9      180.000000        1.843521         2
         3         2         6         7     9        0.000000       -0.142714         3
         3         2         6         7     9      180.000000        0.912586         4
         3         4         5         6     9        0.000000       -0.601362         1
         3         4         5         6     9      180.000000       13.364278         2
         3         4         5         6     9        0.000000       -1.978681         3
         3         4         5         6     9      180.000000       -0.737651         4
         3         4         5        10     9        0.000000        0.751398         1
         3         4         5        10     9      180.000000        0.859399         2
         3         4         5        10     9        0.000000       -0.136812         3
         3         4         5        10     9      180.000000        0.564880         4
         4         3         2         6     9        0.000000       -0.934637         1
         4         3         2         6     9      180.000000        4.909434         2
         4         3         2         6     9        0.000000       -0.056626         3
         4         3         2         6     9      180.000000       -1.463976         4
         4         3         2        29     9        0.000000       -0.221151         1
         4         3         2        29     9      180.000000        0.286791         2
         4         3         2        29     9        0.000000        0.368684         3
         4         3         2        29     9      180.000000       -0.063865         4
         4         5         6         7     9        0.000000       -0.153641         1
         4         5         6         7     9      180.000000       14.022262         2
         4         5         6         7     9        0.000000       -1.363492         3
         4         5         6         7     9      180.000000       -0.096862         4
         4         5        10         9     9        0.000000       -0.195014         1
         4         5        10         9     9      180.000000       12.541336         2
         4         5        10         9     9        0.000000       -0.107155         3
         4         5        10         9     9      180.000000       -0.063417         4
         4         5        10        11     9        0.000000       -0.242233         1
         4         5        10        11     9      180.000000       15.896334         2
         4         5        10        11     9        0.000000        0.149386         3
         4         5        10        11     9      180.000000       -0.349535         4
         5         4         3        24     9        0.000000        0.313396         1
         5         4         3        24     9      180.000000        0.074449         2
         5         4         3        24     9        0.000000        0.404805         3
         5         4         3        24     9      180.000000        0.205798         4
         5         4         3        25     9        0.000000        0.313396         1
         5         4         3        25     9      180.000000        0.074449         2
         5         4         3        25     9        0.000000        0.404805         3
         5         4         3        25     9      180.000000        0.205798         4
         5         6         2        29     9        0.000000        1.093236         1
         5         6         2        29     9      180.000000        0.796689         2
         5         6         2        29     9        0.000000       -0.311247         3
         5         6         2        29     9      180.000000        0.709595         4
         5         6         7         8     9        0.000000        0.082066         1
         5         6         7         8     9      180.000000       19.144437         2
         5         6         7         8     9        0.000000       -1.841158         3
         5         6         7         8     9      180.000000       -0.511028         4
         5         6         7        20     9        0.000000       -0.114615         1
         5         6         7        20     9      180.000000       11.784022         2
         5         6         7        20     9        0.000000       -0.044078         3
         5         6         7        20     9      180.000000       -0.497133         4
         5        10         9         8     9        0.000000       -0.140860         1
         5        10         9         8     9      180.000000       17.666387         2
         5        10         9         8     9        0.000000       -1.226914         3
         5        10         9         8     9      180.000000       -0.418623         4
         5        10         9        33     9        0.000000       -0.019297         1
         5        10         9        33     9      180.000000       13.352360         2
         5        10         9        33     9        0.000000       -0.401291         3
         5        10         9        33     9      180.000000        0.028631         4
         5        10        11        12     9        0.000000       -0.159564         1
         5        10        11        12     9      180.000000        3.606170         2
         5        10        11        12     9        0.000000        0.428941         3
         5        10        11        12     9      180.000000        0.108712         4
         6         2         1        28     9        0.000000        5.549100         1
         6         2         1        28     9      180.000000       -2.639202         2
         6         2         1        28     9        0.000000        0.868375         3
         6         2         1        28     9      180.000000        0.123038         4
         6         2         3        24     9        0.000000        0.310820         1
         6         2         3        24     9      180.000000        0.347273         2
         6         2         3        24     9        0.000000        0.336287         3
         6         2         3        24     9      180.000000        0.227628         4
         6         2         3        25     9        0.000000        0.310820         1
         6         2         3        25     9      180.000000        0.347273         2
         6         2         3        25     9        0.000000        0.336287         3
         6         2         3        25     9      180.000000        0.227628         4
         6         5         4        30     9        0.000000        0.076046         1
         6         5         4        30     9      180.000000       -0.051059         2
         6         5         4        30     9        0.000000       -0.458443         3
         6         5         4        30     9      180.000000        0.409627         4
         6         5         4        31     9        0.000000        0.076046         1
         6         5         4        31     9      180.000000       -0.051060         2
         6         5         4        31     9        0.000000       -0.458443         3
         6         5         4        31     9      180.000000        0.409627         4
         6         5        10         9     9        0.000000        0.033940         1
         6         5        10         9     9      180.000000       17.191682         2
         6         5        10         9     9        0.000000       -1.149719         3
         6         5        10         9     9      180.000000       -0.473322         4
         6         5        10        11     9        0.000000        0.354160         1
         6         5        10        11     9      180.000000       17.770002         2
         6         5        10        11     9        0.000000        0.297372         3
         6         5        10        11     9      180.000000       -0.586965         4
         6         7         8         9     9        0.000000       -0.187962         1
         6         7         8         9     9      180.000000       19.564113         2
         6         7         8         9     9        0.000000       -1.658741         3
         6         7         8         9     9      180.000000       -0.577083         4
         6         7         8        32     9        0.000000       -0.033629         1
         6         7         8        32     9      180.000000       14.874734         2
         6         7         8        32     9        0.000000       -0.434879         3
         6         7         8        32     9      180.000000       -0.053431         4
         6         7        20        21     9        0.000000        0.192379         1
         6         7        20        21     9      180.000000        0.498280         2
         6         7        20        21     9        0.000000        0.674190         3
         6         7        20        21     9      180.000000       -0.176423         4
         6         7        20        22     9        0.000000        0.192379         1
         6         7        20        22     9      180.000000        0.498280         2
         6         7        20        22     9        0.000000        0.674190         3
         6         7        20        22     9      180.000000       -0.176423         4
         6         7        20        23     9        0.000000        0.241802         1
         6         7        20        23     9      180.000000       -0.438483         2
         6         7        20        23     9        0.000000        1.210141         3
         6         7        20        23     9      180.000000       -0.025431         4
         7         6         2        29     9        0.000000        1.016901         1
         7         6         2        29     9      180.000000        0.293660         2
         7         6         2        29     9        0.000000       -0.092359         3
         7         6         2        29     9      180.000000        0.208776         4
         7         6         5        10     9        0.000000       -0.152603         1
         7         6         5        10     9      180.000000       14.564694         2
         7         6         5        10     9        0.000000       -1.793396         3
         7         6         5        10     9      180.000000       -0.195803         4
         7         8         9        10     9        0.000000       -0.247294         1
         7         8         9        10     9      180.000000       18.511998         2
         7         8         9        10     9        0.000000       -1.760310         3
         7         8         9        10     9      180.000000       -0.499802         4
         7         8         9        33     9        0.000000        0.002799         1
         7         8         9        33     9      180.000000       14.539639         2
         7         8         9        33     9        0.000000       -0.644072         3
         7         8         9        33     9      180.000000        0.076983         4
         7        20        23        27     9        0.000000       -1.676029         1
         7        20        23        27     9      180.000000       -7.546562         2
         7        20        23        27     9        0.000000        3.164553         3
         7        20        23        27     9      180.000000        1.053066         4
         7        20        23        37     9        0.000000       -7.846287         1
         7        20        23        37     9      180.000000       -5.037715         2
         7        20        23        37     9        0.000000       -0.066216         3
         7        20        23        37     9      180.000000        0.959092         4
         8         7        20        21     9        0.000000       -0.295591         1
         8         7        20        21     9      180.000000        0.438768         2
         8         7        20        21     9        0.000000       -0.164552         3
         8         7        20        21     9      180.000000        0.025143         4
         8         7        20        22     9        0.000000       -0.295591         1
         8         7        20        22     9      180.000000        0.438768         2
         8         7        20        22     9        0.000000       -0.164552         3
         8         7        20        22     9      180.000000        0.025143         4
         8         7        20        23     9        0.000000        0.901022         1
         8         7        20        23     9      180.000000       -0.324165         2
         8         7        20        23     9        0.000000       -0.255829         3
         8         7        20        23     9      180.000000        0.144984         4
         8         9        10        11     9        0.000000        0.632557         1
         8         9        10        11     9      180.000000       19.334487         2
         8         9        10        11     9        0.000000        0.421081         3
         8         9        10        11     9      180.000000       -0.298484         4
         9         8         7        20     9        0.000000       -0.159082         1
         9         8         7        20     9      180.000000       13.888488         2
         9         8         7        20     9        0.000000        0.038350         3
         9         8         7        20     9      180.000000       -0.362467         4
         9        10        11        12     9        0.000000        0.018619         1
         9        10        11        12     9      180.000000        4.359630         2
         9        10        11        12     9        0.000000       -0.388762         3
         9        10        11        12     9      180.000000        0.309433         4
        10         5         4        30     9        0.000000        0.069256         1
        10         5         4        30     9      180.000000        0.104457         2
        10         5         4        30     9        0.000000        0.057355         3
        10         5         4        30     9      180.000000        0.069024         4
        10         5         4        31     9        0.000000        0.069257         1
        10         5         4        31     9      180.000000        0.104457         2
        10         5         4        31     9        0.000000        0.057355         3
        10         5         4        31     9      180.000000        0.069024         4
        10         9         8        32     9        0.000000        0.221268         1
        10         9         8        32     9      180.000000       14.705201         2
        10         9         8        32     9        0.000000       -0.467977         3
        10         9         8        32     9      180.000000        0.078343         4
        10        11        12        13     9        0.000000        0.061628         1
        10        11        12        13     9      180.000000        4.970901         2
        10        11        12        13     9        0.000000       -0.107231         3
        10        11        12        13     9      180.000000        0.264917         4
        10        11        12        19     9        0.000000        0.085009         1
        10        11        12        19     9      180.000000        4.973204         2
        10        11        12        19     9        0.000000       -0.130706         3
        10        11        12        19     9      180.000000        0.288730         4
        11        10         9        33     9        0.000000        0.197689         1
        11        10         9        33     9      180.000000       14.144257         2
        11        10         9        33     9        0.000000        0.069980         3
        11        10         9        33     9      180.000000        0.368949         4
        11        12        13        14     9        0.000000        0.439834         1
        11        12        13        14     9      180.000000       17.679830         2
        11        12        13        14     9        0.000000        0.518615         3
        11        12        13        14     9      180.000000       -0.304267         4
        11        12        13        34     9        0.000000        0.247031         1
        11        12        13        34     9      180.000000       13.315015         2
        11        12        13        34     9        0.000000       -0.057326         3
        11        12        13        34     9      180.000000        0.357953         4
        11        12        19        17     9        0.000000        0.414466         1
        11        12        19        17     9      180.000000       17.167011         2
        11        12        19        17     9        0.000000        0.430918         3
        11        12        19        17     9      180.000000       -0.092908         4
        11        12        19        36     9        0.000000        0.203641         1
        11        12        19        36     9      180.000000       13.434097         2
        11        12        19        36     9        0.000000       -0.034857         3
        11        12        19        36     9      180.000000        0.337343         4
        12        13        14        15     9        0.000000        0.459528         1
        12        13        14        15     9      180.000000       22.775544         2
        12        13        14        15     9        0.000000        0.620336         3
        12        13        14        15     9      180.000000       -0.895479         4
        12        13        14        16     9        0.000000       -0.037834         1
        12        13        14        16     9      180.000000       16.924316         2
        12        13        14        16     9        0.000000       -1.235725         3
        12        13        14        16     9      180.000000       -0.383379         4
        12        19        17        16     9        0.000000       -0.147115         1
        12        19        17        16     9      180.000000       18.104643         2
        12        19        17        16     9        0.000000       -1.723479         3
        12        19        17        16     9      180.000000       -0.396032         4
        12        19        17        18     9        0.000000       -0.086532         1
        12        19        17        18     9      180.000000       16.262249         2
        12        19        17        18     9        0.000000       -0.126424         3
        12        19        17        18     9      180.000000       -0.295179         4
        13        12        19        17     9        0.000000       -0.151288         1
        13        12        19        17     9      180.000000       16.720497         2
        13        12        19        17     9        0.000000       -0.954879         3
        13        12        19        17     9      180.000000       -0.285399         4
        13        12        19        36     9        0.000000        0.129425         1
        13        12        19        36     9      180.000000       12.822899         2
        13        12        19        36     9        0.000000       -0.471795         3
        13        12        19        36     9      180.000000        0.176763         4
        13        14        16        17     9        0.000000       -0.213127         1
        13        14        16        17     9      180.000000       17.562477         2
        13        14        16        17     9        0.000000       -1.146983         3
        13        14        16        17     9      180.000000       -0.459047         4
        13        14        16        35     9        0.000000        0.012917         1
        13        14        16        35     9      180.000000       13.202101         2
        13        14        16        35     9        0.000000       -0.546497         3
        13        14        16        35     9      180.000000        0.094661         4
        14        13        12        19     9        0.000000       -0.098513         1
        14        13        12        19     9      180.000000       16.419685         2
        14        13        12        19     9        0.000000       -1.019756         3
        14        13        12        19     9      180.000000       -0.197813         4
        14        16        17        18     9        0.000000        0.094774         1
        14        16        17        18     9      180.000000       16.943641         2
        14        16        17        18     9        0.000000       -0.003519         3
        14        16        17        18     9      180.000000       -0.413924         4
        14        16        17        19     9        0.000000       -0.159527         1
        14        16        17        19     9      180.000000       18.380973         2
        14        16        17        19     9        0.000000       -1.728032         3
        14        16        17        19     9      180.000000       -0.402124         4
        15        14        13        34     9        0.000000        0.330038         1
        15        14        13        34     9      180.000000       15.871795         2
        15        14        13        34     9        0.000000        0.248138         3
        15        14        13        34     9      180.000000        0.119632         4
        15        14        16        17     9        0.000000        0.384623         1
        15        14        16        17     9      180.000000       22.626144         2
        15        14        16        17     9        0.000000        0.654396         3
        15        14        16        17     9      180.000000       -0.714402         4
        15        14        16        35     9        0.000000        0.323706         1
        15        14        16        35     9      180.000000       15.967908         2
        15        14        16        35     9        0.000000        0.305032         3
        15        14        16        35     9      180.000000        0.124130         4
        16        14        13        34     9        0.000000        0.166901         1
        16        14        13        34     9      180.000000       12.714126         2
        16        14        13        34     9        0.000000       -0.506238         3
        16        14        13        34     9      180.000000        0.156592         4
        16        17        18        26     9        0.000000        0.000000         1
        16        17        18        26     9      180.000000        0.000000         2
        16        17        18        26     9        0.000000        0.000000         3
        16        17        18        26     9      180.000000        0.000000         4
        16        17        19        36     9        0.000000       -0.033626         1
        16        17        19        36     9      180.000000       14.163344         2
        16        17        19        36     9        0.000000       -0.688105         3
        16        17        19        36     9      180.000000        0.029301         4
        18        17        16        35     9        0.000000        0.029971         1
        18        17        16        35     9      180.000000       12.807836         2
        18        17        16        35     9        0.000000       -0.300729         3
        18        17        16        35     9      180.000000        0.113751         4
        18        17        19        36     9        0.000000        0.024029         1
        18        17        19        36     9      180.000000       12.824091         2
        18        17        19        36     9        0.000000       -0.314228         3
        18        17        19        36     9      180.000000        0.157371         4
        19        12        13        34     9        0.000000        0.123404         1
        19        12        13        34     9      180.000000       12.520774         2
        19        12        13        34     9        0.000000       -0.483970         3
        19        12        13        34     9      180.000000        0.186258         4
        19        17        16        35     9        0.000000       -0.016357         1
        19        17        16        35     9      180.000000       14.310019         2
        19        17        16        35     9        0.000000       -0.696961         3
        19        17        16        35     9      180.000000        0.020091         4
        19        17        18        26     9        0.000000        0.000000         1
        19        17        18        26     9      180.000000        0.000000         2
        19        17        18        26     9        0.000000        0.000000         3
        19        17        18        26     9      180.000000        0.000000         4
        20         7         8        32     9        0.000000        0.330194         1
        20         7         8        32     9      180.000000       12.647592         2
        20         7         8        32     9        0.000000       -0.095017         3
        20         7         8        32     9      180.000000       -0.103952         4
        20        23        27        38     9        0.000000        0.020975         1
        20        23        27        38     9      180.000000       -0.050230         2
        20        23        27        38     9        0.000000       -1.091995         3
        20        23        27        38     9      180.000000       -0.024420         4
        20        23        27        39     9        0.000000        0.020975         1
        20        23        27        39     9      180.000000       -0.050230         2
        20        23        27        39     9        0.000000       -1.091995         3
        20        23        27        39     9      180.000000       -0.024420         4
        20        23        27        40     9        0.000000        0.020975         1
        20        23        27        40     9      180.000000       -0.050230         2
        20        23        27        40     9        0.000000       -1.091995         3
        20        23        27        40     9      180.000000       -0.024420         4
        21        20        23        27     9        0.000000        0.216100         1
        21        20        23        27     9      180.000000        0.497035         2
        21        20        23        27     9        0.000000        1.801350         3
        21        20        23        27     9      180.000000        0.019816         4
        21        20        23        37     9        0.000000        0.161176         1
        21        20        23        37     9      180.000000       -0.090023         2
        21        20        23        37     9        0.000000       -0.991510         3
        21        20        23        37     9      180.000000       -0.319603         4
        22        20        23        27     9        0.000000        0.216100         1
        22        20        23        27     9      180.000000        0.497035         2
        22        20        23        27     9        0.000000        1.801350         3
        22        20        23        27     9      180.000000        0.019816         4
        22        20        23        37     9        0.000000        0.161176         1
        22        20        23        37     9      180.000000       -0.090023         2
        22        20        23        37     9        0.000000       -0.991510         3
        22        20        23        37     9      180.000000       -0.319603         4
        24         3         2        29     9        0.000000       -0.107464         1
        24         3         2        29     9      180.000000        0.049368         2
        24         3         2        29     9        0.000000        0.511618         3
        24         3         2        29     9      180.000000        0.001057         4
        24         3         4        30     9        0.000000        0.023671         1
        24         3         4        30     9      180.000000       -0.092712         2
        24         3         4        30     9        0.000000        0.509467         3
        24         3         4        30     9      180.000000       -0.035232         4
        24         3         4        31     9        0.000000        0.023670         1
        24         3         4        31     9      180.000000       -0.092713         2
        24         3         4        31     9        0.000000        0.509467         3
        24         3         4        31     9      180.000000       -0.035231         4
        25         3         2        29     9        0.000000       -0.107464         1
        25         3         2        29     9      180.000000        0.049368         2
        25         3         2        29     9        0.000000        0.511618         3
        25         3         2        29     9      180.000000        0.001057         4
        25         3         4        30     9        0.000000        0.023671         1
        25         3         4        30     9      180.000000       -0.092712         2
        25         3         4        30     9        0.000000        0.509467         3
        25         3         4        30     9      180.000000       -0.035232         4
        25         3         4        31     9        0.000000        0.023670         1
        25         3         4        31     9      180.000000       -0.092713         2
        25         3         4        31     9        0.000000        0.509467         3
        25         3         4        31     9      180.000000       -0.035231         4
        28         1         2        29     9        0.000000        0.223211         1
        28         1         2        29     9      180.000000       -0.053762         2
        28         1         2        29     9        0.000000        0.727260         3
        28         1         2        29     9      180.000000        0.194502         4
        32         8         9        33     9        0.000000       -0.035321         1
        32         8         9        33     9      180.000000       12.807685         2
        32         8         9        33     9        0.000000       -0.837694         3
        32         8         9        33     9      180.000000        0.197466         4
        37        23        27        38     9        0.000000        0.160768         1
        37        23        27        38     9      180.000000       -0.117941         2
        37        23        27        38     9        0.000000        1.170066         3
        37        23        27        38     9      180.000000        0.034050         4
        37        23        27        39     9        0.000000        0.160768         1
        37        23        27        39     9      180.000000       -0.117941         2
        37        23        27        39     9        0.000000        1.170066         3
        37        23        27        39     9      180.000000        0.034050         4
        37        23        27        40     9        0.000000        0.160768         1
        37        23        27        40     9      180.000000       -0.117941         2
        37        23        27        40     9        0.000000        1.170066         3
        37        23        27        40     9      180.000000        0.034050         4

[ dihedrals ] ; impropers
;       ai        aj        ak        al funct           phase               k        pn
         8         7         9        32     4      180.000000        0.301249         2
         8         9        32         7     4      180.000000        0.301249         2
         8        32         7         9     4      180.000000        0.301249         2
        14        13        15        16     4      180.000000        1.740412         2
        14        15        16        13     4      180.000000        1.740412         2
        14        16        13        15     4      180.000000        1.740412         2

[ pairs ]
;       ai        aj funct
         1         4     1
         1         5     1
         1         7     1
         1        24     1
         1        25     1
         2         8     1
         2        10     1
         2        20     1
         2        30     1
         2        31     1
         3         7     1
         3        10     1
         3        28     1
         4         7     1
         4         9     1
         4        11     1
         4        29     1
         5         8     1
         5        12     1
         5        20     1
         5        24     1
         5        25     1
         5        29     1
         5        33     1
         6         9     1
         6        11     1
         6        21     1
         6        22     1
         6        23     1
         6        24     1
         6        25     1
         6        28     1
         6        30     1
         6        31     1
         6        32     1
         7        10     1
         7        27     1
         7        29     1
         7        33     1
         7        37     1
         8        11     1
         8        21     1
         8        22     1
         8        23     1
         9        12     1
         9        20     1
        10        13     1
        10        19     1
        10        30     1
        10        31     1
        10        32     1
        11        14     1
        11        17     1
        11        33     1
        11        34     1
        11        36     1
        12        15     1
        12        16     1
        12        18     1
        13        17     1
        13        35     1
        13        36     1
        14        18     1
        14        19     1
        15        17     1
        15        34     1
        15        35     1
        16        26     1
        16        34     1
        16        36     1
        18        35     1
        18        36     1
        19        26     1
        19        34     1
        19        35     1
        20        32     1
        20        38     1
        20        39     1
        20        40     1
        21        27     1
        21        37     1
        22        27     1
        22        37     1
        24        29     1
        24        30     1
        24        31     1
        25        29     1
        25        30     1
        25        31     1
        28        29     1
        32        33     1
        37        38     1
        37        39     1
        37        40     1
