; ITP file created by ByteFF-ML, 2026-02-21 07:40:16.242377

[ atomtypes ]
;name           bonded.type        at.num        mass        charge   ptype           sigma         epsilon
 o0bf                                   8      0.0000       0.00000       A     3.23829e-01     3.88924e-01
 c1bf                                   6      0.0000       0.00000       A     3.40155e-01     4.48409e-01
 c2bf                                   6      0.0000       0.00000       A     3.39806e-01     4.53836e-01
 c3bf                                   6      0.0000       0.00000       A     3.39919e-01     4.53552e-01
 c4bf                                   6      0.0000       0.00000       A     3.31682e-01     4.12761e-01
 c5bf                                   6      0.0000       0.00000       A     3.31641e-01     4.12386e-01
 c6bf                                   6      0.0000       0.00000       A     3.31260e-01     4.13503e-01
 c7bf                                   6      0.0000       0.00000       A     3.31352e-01     4.14121e-01
 c8bf                                   6      0.0000       0.00000       A     3.31340e-01     4.13060e-01
 c9bf                                   6      0.0000       0.00000       A     3.31532e-01     4.12841e-01
 o10bf                                  8      0.0000       0.00000       A     3.15580e-01     3.05649e-01
 c11bf                                  6      0.0000       0.00000       A     3.31486e-01     4.13230e-01
 c12bf                                  6      0.0000       0.00000       A     3.31333e-01     4.13060e-01
 c13bf                                  6      0.0000       0.00000       A     3.31593e-01     4.13107e-01
 c14bf                                  6      0.0000       0.00000       A     3.31460e-01     4.13462e-01
 c15bf                                  6      0.0000       0.00000       A     3.31590e-01     4.14681e-01
 c16bf                                  6      0.0000       0.00000       A     3.31536e-01     4.11398e-01
 s17bf                                 16      0.0000       0.00000       A     4.05925e-01     2.58262e-01
 o18bf                                  8      0.0000       0.00000       A     3.05136e-01     6.14715e-01
 o19bf                                  8      0.0000       0.00000       A     3.05136e-01     6.14715e-01
 c20bf                                  6      0.0000       0.00000       A     3.39605e-01     4.51520e-01
 f21bf                                  9      0.0000       0.00000       A     3.03598e-01     3.48417e-01
 f22bf                                  9      0.0000       0.00000       A     3.03598e-01     3.48417e-01
 f23bf                                  9      0.0000       0.00000       A     3.02962e-01     3.48010e-01
 f24bf                                  9      0.0000       0.00000       A     3.02962e-01     3.48010e-01
 f25bf                                  9      0.0000       0.00000       A     3.02962e-01     3.48010e-01
 f26bf                                  9      0.0000       0.00000       A     3.03364e-01     3.45069e-01
 c27bf                                  6      0.0000       0.00000       A     3.31440e-01     4.12546e-01
 n28bf                                  7      0.0000       0.00000       A     3.38270e-01     3.92237e-01
 n29bf                                  7      0.0000       0.00000       A     3.20414e-01     8.57761e-01
 h30bf                                  1      0.0000       0.00000       A     5.36710e-02     1.95151e-02
 h31bf                                  1      0.0000       0.00000       A     2.41570e-01     8.63936e-02
 h32bf                                  1      0.0000       0.00000       A     2.60031e-01     8.68485e-02
 h33bf                                  1      0.0000       0.00000       A     2.60031e-01     8.68485e-02
 h34bf                                  1      0.0000       0.00000       A     2.62720e-01     6.76047e-02
 h35bf                                  1      0.0000       0.00000       A     2.62431e-01     6.72328e-02
 h36bf                                  1      0.0000       0.00000       A     2.62468e-01     6.71977e-02
 h37bf                                  1      0.0000       0.00000       A     2.62510e-01     6.70844e-02
 h38bf                                  1      0.0000       0.00000       A     2.53766e-01     6.69136e-02
 h39bf                                  1      0.0000       0.00000       A     1.10652e-01     4.12408e-02

[ moleculetype ]
;name             nrexcl
 266                   3

[ atoms ]
;       nr            type      resi   res      atom      cgnr      charge          mass ; qtot
         1            o0bf         1   UNL        o0         1    -0.64391       15.9990 ; qtot   -0.644
         2            c1bf         1   UNL        c1         2     0.18391       12.0110 ; qtot   -0.460
         3            c2bf         1   UNL        c2         3     0.15503       12.0110 ; qtot   -0.305
         4            c3bf         1   UNL        c3         4    -0.05999       12.0110 ; qtot   -0.365
         5            c4bf         1   UNL        c4         5    -0.09780       12.0110 ; qtot   -0.463
         6            c5bf         1   UNL        c5         6     0.00997       12.0110 ; qtot   -0.453
         7            c6bf         1   UNL        c6         7    -0.22245       12.0110 ; qtot   -0.675
         8            c7bf         1   UNL        c7         8     0.01604       12.0110 ; qtot   -0.659
         9            c8bf         1   UNL        c8         9    -0.14958       12.0110 ; qtot   -0.809
        10            c9bf         1   UNL        c9        10     0.14826       12.0110 ; qtot   -0.661
        11           o10bf         1   UNL       o10        11    -0.24264       15.9990 ; qtot   -0.903
        12           c11bf         1   UNL       c11        12     0.17675       12.0110 ; qtot   -0.726
        13           c12bf         1   UNL       c12        13    -0.15208       12.0110 ; qtot   -0.878
        14           c13bf         1   UNL       c13        14    -0.08594       12.0110 ; qtot   -0.964
        15           c14bf         1   UNL       c14        15     0.11788       12.0110 ; qtot   -0.847
        16           c15bf         1   UNL       c15        16    -0.03874       12.0110 ; qtot   -0.885
        17           c16bf         1   UNL       c16        17    -0.24390       12.0110 ; qtot   -1.129
        18           s17bf         1   UNL       s17        18     0.96262       32.0670 ; qtot   -0.167
        19           o18bf         1   UNL       o18        19    -0.45928       15.9990 ; qtot   -0.626
        20           o19bf         1   UNL       o19        20    -0.45928       15.9990 ; qtot   -1.085
        21           c20bf         1   UNL       c20        21     0.16659       12.0110 ; qtot   -0.919
        22           f21bf         1   UNL       f21        22    -0.10126       18.9980 ; qtot   -1.020
        23           f22bf         1   UNL       f22        23    -0.10126       18.9980 ; qtot   -1.121
        24           f23bf         1   UNL       f23        24    -0.08289       18.9980 ; qtot   -1.204
        25           f24bf         1   UNL       f24        25    -0.08289       18.9980 ; qtot   -1.287
        26           f25bf         1   UNL       f25        26    -0.08289       18.9980 ; qtot   -1.370
        27           f26bf         1   UNL       f26        27    -0.17266       18.9980 ; qtot   -1.542
        28           c27bf         1   UNL       c27        28     0.37191       12.0110 ; qtot   -1.170
        29           n28bf         1   UNL       n28        29    -0.50694       14.0070 ; qtot   -1.677
        30           n29bf         1   UNL       n29        30    -0.06647       14.0070 ; qtot   -1.744
        31           h30bf         1   UNL       h30        31     0.46187        1.0080 ; qtot   -1.282
        32           h31bf         1   UNL       h31        32     0.09424        1.0080 ; qtot   -1.188
        33           h32bf         1   UNL       h32        33     0.09046        1.0080 ; qtot   -1.097
        34           h33bf         1   UNL       h33        34     0.09046        1.0080 ; qtot   -1.007
        35           h34bf         1   UNL       h34        35     0.14984        1.0080 ; qtot   -0.857
        36           h35bf         1   UNL       h35        36     0.13750        1.0080 ; qtot   -0.720
        37           h36bf         1   UNL       h36        37     0.13785        1.0080 ; qtot   -0.582
        38           h37bf         1   UNL       h37        38     0.14029        1.0080 ; qtot   -0.441
        39           h38bf         1   UNL       h38        39     0.05446        1.0080 ; qtot   -0.387
        40           h39bf         1   UNL       h39        40     0.38692        1.0080 ; qtot    0.000

[ bonds ]
;       ai        aj funct               r               k
         1         2     1        0.142089   213175.719336
         1        31     1        0.097160   464731.313574
         2         3     1        0.155081   154333.290674
         2         6     1        0.151886   172095.473877
         2        32     1        0.109501   296513.675293
         3         4     1        0.153347   171559.079663
         3        22     1        0.137650   224399.891797
         3        23     1        0.137650   224399.891797
         4         5     1        0.151014   191670.281104
         4        33     1        0.109299   306936.288965
         4        34     1        0.109299   306936.288965
         5         6     1        0.139828   281523.187793
         5        10     1        0.139534   295123.103076
         6         7     1        0.139874   292942.336084
         7         8     1        0.139860   299573.097607
         7        18     1        0.179169   127521.356030
         8         9     1        0.139452   319764.702637
         8        35     1        0.108389   327451.066113
         9        10     1        0.139907   294164.644287
         9        36     1        0.108425   325038.754150
        10        11     1        0.138242   240386.633008
        11        12     1        0.137860   247656.741602
        12        13     1        0.138723   321119.114307
        12        17     1        0.141100   280485.512891
        13        14     1        0.141629   281228.336328
        13        37     1        0.108405   325628.533691
        14        15     1        0.137773   342110.107471
        14        38     1        0.108456   325669.725049
        15        16     1        0.140041   293648.513770
        15        27     1        0.136003   289617.813037
        16        17     1        0.141608   260221.152637
        16        30     1        0.136647   295322.547900
        17        28     1        0.143071   252384.937402
        18        19     1        0.146431   531792.426758
        18        20     1        0.146431   531792.426758
        18        21     1        0.190227   134210.329395
        21        24     1        0.133876   269218.718994
        21        25     1        0.133876   269218.718994
        21        26     1        0.133876   269218.718994
        28        29     1        0.132587   380509.313965
        28        39     1        0.108166   335095.037988
        29        30     1        0.136132   242589.898193
        30        40     1        0.100978   434846.613477

[ angles ]
;       ai        aj        ak funct           theta             cth
         1         2         3     1      112.810814      504.488564
         1         2         6     1      112.434753      634.168783
         1         2        32     1      108.656921      411.490871
         2         1        31     1      107.962685      571.596608
         2         3         4     1      107.597389      448.756217
         2         3        22     1      110.369896      538.766547
         2         3        23     1      110.369896      538.766547
         2         6         5     1      110.098618      408.218514
         2         6         7     1      129.561188      417.660509
         3         2         6     1      101.913521      559.721661
         3         2        32     1      108.538010      462.332255
         3         4         5     1      102.388016      560.509162
         3         4        33     1      110.204872      490.175876
         3         4        34     1      110.204872      490.175876
         4         3        22     1      111.618088      567.835311
         4         3        23     1      111.618088      567.835311
         4         5         6     1      111.691795      375.114695
         4         5        10     1      127.955276      422.975516
         5         4        33     1      112.420494      451.882023
         5         4        34     1      112.420494      451.882023
         5         6         7     1      119.474121      604.959693
         5        10         9     1      120.031235      670.073959
         5        10        11     1      118.757736      413.599853
         6         2        32     1      111.599403      427.038310
         6         5        10     1      120.152367      666.725022
         6         7         8     1      120.461525      682.891992
         6         7        18     1      122.137184      546.044688
         7         8         9     1      120.172043      592.974616
         7         8        35     1      119.832397      369.751360
         7        18        19     1      109.407471      623.445751
         7        18        20     1      109.407471      623.445751
         7        18        21     1      102.486572      449.498230
         8         7        18     1      117.389000      534.105131
         8         9        10     1      119.808517      705.398612
         8         9        36     1      120.699440      420.569792
         9         8        35     1      120.607140      398.727137
         9        10        11     1      121.228127      524.425577
        10         9        36     1      119.677444      429.467975
        10        11        12     1      118.705666      428.354365
        11        12        13     1      121.758591      527.124658
        11        12        17     1      118.823776      427.003324
        12        13        14     1      120.825821      652.295151
        12        13        37     1      119.623276      428.753957
        12        17        16     1      119.147949      715.464830
        12        17        28     1      136.910675      435.879321
        13        12        17     1      118.974686      598.146009
        13        14        15     1      120.318542      651.014337
        13        14        38     1      120.464989      422.797969
        14        13        37     1      119.815933      423.467329
        14        15        16     1      119.200012      685.391628
        14        15        27     1      121.613846      594.247258
        15        14        38     1      119.315346      427.026467
        15        16        17     1      120.732872      596.739042
        15        16        30     1      133.066910      375.949025
        16        15        27     1      119.114601      440.111970
        16        17        28     1      104.128906      452.959019
        16        30        29     1      112.086472      453.659087
        16        30        40     1      128.321533      376.326942
        17        16        30     1      106.120255      167.360000
        17        28        29     1      111.045776      393.642092
        17        28        39     1      129.038742      346.003316
        18        21        24     1      109.502701      457.627458
        18        21        25     1      109.502701      457.627458
        18        21        26     1      109.502701      457.627458
        19        18        20     1      122.141808      706.229845
        19        18        21     1      104.918213      350.942704
        20        18        21     1      104.918213      350.942704
        22         3        23     1      106.171570      726.740804
        24        21        25     1      109.097572      705.605016
        24        21        26     1      109.097572      705.605016
        25        21        26     1      109.097572      705.605016
        28        29        30     1      106.041992      500.626109
        29        28        39     1      119.771378      386.209835
        29        30        40     1      119.409348      467.644581
        33         4        34     1      107.711754      357.271981

[ dihedrals ] ; propers for gromacs 4.5 or higher, use funct 9
;       ai        aj        ak        al funct           phase               k        pn
         1         2         3         4     9        0.000000       -2.316051         1
         1         2         3         4     9      180.000000        1.227582         2
         1         2         3         4     9        0.000000        0.447916         3
         1         2         3         4     9      180.000000       -0.134155         4
         1         2         3        22     9        0.000000        0.925729         1
         1         2         3        22     9      180.000000        0.198236         2
         1         2         3        22     9        0.000000        0.694412         3
         1         2         3        22     9      180.000000       -0.120878         4
         1         2         3        23     9        0.000000        0.925729         1
         1         2         3        23     9      180.000000        0.198236         2
         1         2         3        23     9        0.000000        0.694412         3
         1         2         3        23     9      180.000000       -0.120878         4
         1         2         6         5     9        0.000000       -2.851780         1
         1         2         6         5     9      180.000000        3.224960         2
         1         2         6         5     9        0.000000        0.275030         3
         1         2         6         5     9      180.000000        1.249681         4
         1         2         6         7     9        0.000000       -0.938993         1
         1         2         6         7     9      180.000000        2.556924         2
         1         2         6         7     9        0.000000        0.022276         3
         1         2         6         7     9      180.000000        0.489602         4
         2         3         4         5     9        0.000000       -0.912541         1
         2         3         4         5     9      180.000000        4.724159         2
         2         3         4         5     9        0.000000       -0.154772         3
         2         3         4         5     9      180.000000       -1.122970         4
         2         3         4        33     9        0.000000        0.020287         1
         2         3         4        33     9      180.000000        0.002269         2
         2         3         4        33     9        0.000000        0.073985         3
         2         3         4        33     9      180.000000        0.044940         4
         2         3         4        34     9        0.000000        0.020287         1
         2         3         4        34     9      180.000000        0.002269         2
         2         3         4        34     9        0.000000        0.073985         3
         2         3         4        34     9      180.000000        0.044940         4
         2         6         5         4     9        0.000000       -0.157806         1
         2         6         5         4     9      180.000000       19.171981         2
         2         6         5         4     9        0.000000       -2.815960         3
         2         6         5         4     9      180.000000       -0.454450         4
         2         6         5        10     9        0.000000        0.051185         1
         2         6         5        10     9      180.000000       14.865588         2
         2         6         5        10     9        0.000000       -1.415496         3
         2         6         5        10     9      180.000000       -0.357986         4
         2         6         7         8     9        0.000000       -0.033463         1
         2         6         7         8     9      180.000000       13.714574         2
         2         6         7         8     9        0.000000       -0.019558         3
         2         6         7         8     9      180.000000       -0.377708         4
         2         6         7        18     9        0.000000       -0.285034         1
         2         6         7        18     9      180.000000        9.255397         2
         2         6         7        18     9        0.000000        0.374741         3
         2         6         7        18     9      180.000000       -0.479050         4
         3         2         1        31     9        0.000000        1.285396         1
         3         2         1        31     9      180.000000       -3.328464         2
         3         2         1        31     9        0.000000        0.697281         3
         3         2         1        31     9      180.000000        0.165302         4
         3         2         6         5     9        0.000000       -0.719326         1
         3         2         6         5     9      180.000000       13.717001         2
         3         2         6         5     9        0.000000       -1.393843         3
         3         2         6         5     9      180.000000       -0.200238         4
         3         2         6         7     9        0.000000       -0.824701         1
         3         2         6         7     9      180.000000        1.853898         2
         3         2         6         7     9        0.000000       -0.204964         3
         3         2         6         7     9      180.000000        0.901925         4
         3         4         5         6     9        0.000000       -0.598380         1
         3         4         5         6     9      180.000000       13.046775         2
         3         4         5         6     9        0.000000       -1.963210         3
         3         4         5         6     9      180.000000       -0.710933         4
         3         4         5        10     9        0.000000        0.750990         1
         3         4         5        10     9      180.000000        0.827775         2
         3         4         5        10     9        0.000000       -0.115892         3
         3         4         5        10     9      180.000000        0.555820         4
         4         3         2         6     9        0.000000       -1.003684         1
         4         3         2         6     9      180.000000        5.083538         2
         4         3         2         6     9        0.000000       -0.079224         3
         4         3         2         6     9      180.000000       -1.615636         4
         4         3         2        32     9        0.000000       -0.231699         1
         4         3         2        32     9      180.000000        0.281540         2
         4         3         2        32     9        0.000000        0.367337         3
         4         3         2        32     9      180.000000       -0.065595         4
         4         5         6         7     9        0.000000       -0.284012         1
         4         5         6         7     9      180.000000       13.976481         2
         4         5         6         7     9        0.000000       -1.364264         3
         4         5         6         7     9      180.000000       -0.111054         4
         4         5        10         9     9        0.000000       -0.202489         1
         4         5        10         9     9      180.000000       12.550537         2
         4         5        10         9     9        0.000000       -0.110353         3
         4         5        10         9     9      180.000000       -0.075726         4
         4         5        10        11     9        0.000000       -0.277216         1
         4         5        10        11     9      180.000000       15.722078         2
         4         5        10        11     9        0.000000        0.129950         3
         4         5        10        11     9      180.000000       -0.308785         4
         5         4         3        22     9        0.000000        0.326681         1
         5         4         3        22     9      180.000000        0.106441         2
         5         4         3        22     9        0.000000        0.396571         3
         5         4         3        22     9      180.000000        0.210831         4
         5         4         3        23     9        0.000000        0.326681         1
         5         4         3        23     9      180.000000        0.106441         2
         5         4         3        23     9        0.000000        0.396571         3
         5         4         3        23     9      180.000000        0.210831         4
         5         6         2        32     9        0.000000        1.142393         1
         5         6         2        32     9      180.000000        0.757282         2
         5         6         2        32     9        0.000000       -0.320614         3
         5         6         2        32     9      180.000000        0.669890         4
         5         6         7         8     9        0.000000        0.079772         1
         5         6         7         8     9      180.000000       18.766258         2
         5         6         7         8     9        0.000000       -1.802221         3
         5         6         7         8     9      180.000000       -0.406592         4
         5         6         7        18     9        0.000000       -0.625081         1
         5         6         7        18     9      180.000000       10.766121         2
         5         6         7        18     9        0.000000       -0.078735         3
         5         6         7        18     9      180.000000       -0.466541         4
         5        10         9         8     9        0.000000       -0.128240         1
         5        10         9         8     9      180.000000       17.574481         2
         5        10         9         8     9        0.000000       -1.228187         3
         5        10         9         8     9      180.000000       -0.407209         4
         5        10         9        36     9        0.000000       -0.060830         1
         5        10         9        36     9      180.000000       13.357640         2
         5        10         9        36     9        0.000000       -0.417992         3
         5        10         9        36     9      180.000000        0.039823         4
         5        10        11        12     9        0.000000        0.055119         1
         5        10        11        12     9      180.000000        3.708365         2
         5        10        11        12     9        0.000000        0.508654         3
         5        10        11        12     9      180.000000        0.099156         4
         6         2         1        31     9        0.000000        5.399917         1
         6         2         1        31     9      180.000000       -2.669684         2
         6         2         1        31     9        0.000000        0.864465         3
         6         2         1        31     9      180.000000        0.134895         4
         6         2         3        22     9        0.000000        0.300676         1
         6         2         3        22     9      180.000000        0.344407         2
         6         2         3        22     9        0.000000        0.324360         3
         6         2         3        22     9      180.000000        0.201606         4
         6         2         3        23     9        0.000000        0.300676         1
         6         2         3        23     9      180.000000        0.344407         2
         6         2         3        23     9        0.000000        0.324360         3
         6         2         3        23     9      180.000000        0.201606         4
         6         5         4        33     9        0.000000        0.050211         1
         6         5         4        33     9      180.000000       -0.030493         2
         6         5         4        33     9        0.000000       -0.452799         3
         6         5         4        33     9      180.000000        0.382472         4
         6         5         4        34     9        0.000000        0.050211         1
         6         5         4        34     9      180.000000       -0.030493         2
         6         5         4        34     9        0.000000       -0.452799         3
         6         5         4        34     9      180.000000        0.382472         4
         6         5        10         9     9        0.000000       -0.004899         1
         6         5        10         9     9      180.000000       16.974515         2
         6         5        10         9     9        0.000000       -1.118736         3
         6         5        10         9     9      180.000000       -0.465054         4
         6         5        10        11     9        0.000000        0.336570         1
         6         5        10        11     9      180.000000       17.730477         2
         6         5        10        11     9        0.000000        0.307920         3
         6         5        10        11     9      180.000000       -0.615047         4
         6         7         8         9     9        0.000000       -0.077143         1
         6         7         8         9     9      180.000000       19.647713         2
         6         7         8         9     9        0.000000       -1.756713         3
         6         7         8         9     9      180.000000       -0.537517         4
         6         7         8        35     9        0.000000        0.050179         1
         6         7         8        35     9      180.000000       14.601026         2
         6         7         8        35     9        0.000000       -0.529638         3
         6         7         8        35     9      180.000000       -0.036322         4
         6         7        18        19     9        0.000000       -0.038238         1
         6         7        18        19     9      180.000000        0.945122         2
         6         7        18        19     9        0.000000        0.466953         3
         6         7        18        19     9      180.000000       -0.118047         4
         6         7        18        20     9        0.000000       -0.038238         1
         6         7        18        20     9      180.000000        0.945122         2
         6         7        18        20     9        0.000000        0.466953         3
         6         7        18        20     9      180.000000       -0.118047         4
         6         7        18        21     9        0.000000        1.984305         1
         6         7        18        21     9      180.000000       -3.075219         2
         6         7        18        21     9        0.000000        0.473197         3
         6         7        18        21     9      180.000000        0.159016         4
         7         6         2        32     9        0.000000        0.827921         1
         7         6         2        32     9      180.000000        0.234513         2
         7         6         2        32     9        0.000000       -0.083416         3
         7         6         2        32     9      180.000000        0.270847         4
         7         6         5        10     9        0.000000       -0.090361         1
         7         6         5        10     9      180.000000       14.880671         2
         7         6         5        10     9        0.000000       -1.909665         3
         7         6         5        10     9      180.000000       -0.241675         4
         7         8         9        10     9        0.000000       -0.177847         1
         7         8         9        10     9      180.000000       18.675639         2
         7         8         9        10     9        0.000000       -1.904797         3
         7         8         9        10     9      180.000000       -0.459222         4
         7         8         9        36     9        0.000000        0.060367         1
         7         8         9        36     9      180.000000       14.509135         2
         7         8         9        36     9        0.000000       -0.755494         3
         7         8         9        36     9      180.000000        0.031380         4
         7        18        21        24     9        0.000000       -0.182321         1
         7        18        21        24     9      180.000000       -0.203991         2
         7        18        21        24     9        0.000000        0.205073         3
         7        18        21        24     9      180.000000        0.012482         4
         7        18        21        25     9        0.000000       -0.182321         1
         7        18        21        25     9      180.000000       -0.203991         2
         7        18        21        25     9        0.000000        0.205073         3
         7        18        21        25     9      180.000000        0.012482         4
         7        18        21        26     9        0.000000       -0.182321         1
         7        18        21        26     9      180.000000       -0.203991         2
         7        18        21        26     9        0.000000        0.205073         3
         7        18        21        26     9      180.000000        0.012482         4
         8         7        18        19     9        0.000000       -0.044469         1
         8         7        18        19     9      180.000000        1.064694         2
         8         7        18        19     9        0.000000        0.042383         3
         8         7        18        19     9      180.000000       -0.020069         4
         8         7        18        20     9        0.000000       -0.044469         1
         8         7        18        20     9      180.000000        1.064694         2
         8         7        18        20     9        0.000000        0.042383         3
         8         7        18        20     9      180.000000       -0.020069         4
         8         7        18        21     9        0.000000        0.371168         1
         8         7        18        21     9      180.000000       -2.189255         2
         8         7        18        21     9        0.000000       -0.023026         3
         8         7        18        21     9      180.000000        0.162125         4
         8         9        10        11     9        0.000000        0.723052         1
         8         9        10        11     9      180.000000       19.133432         2
         8         9        10        11     9        0.000000        0.484842         3
         8         9        10        11     9      180.000000       -0.283769         4
         9         8         7        18     9        0.000000       -0.264588         1
         9         8         7        18     9      180.000000       13.313945         2
         9         8         7        18     9        0.000000        0.005653         3
         9         8         7        18     9      180.000000       -0.286046         4
         9        10        11        12     9        0.000000        0.092759         1
         9        10        11        12     9      180.000000        4.494820         2
         9        10        11        12     9        0.000000       -0.323257         3
         9        10        11        12     9      180.000000        0.317295         4
        10         5         4        33     9        0.000000        0.053396         1
        10         5         4        33     9      180.000000        0.082642         2
        10         5         4        33     9        0.000000        0.064153         3
        10         5         4        33     9      180.000000        0.065428         4
        10         5         4        34     9        0.000000        0.053396         1
        10         5         4        34     9      180.000000        0.082642         2
        10         5         4        34     9        0.000000        0.064153         3
        10         5         4        34     9      180.000000        0.065428         4
        10         9         8        35     9        0.000000        0.175926         1
        10         9         8        35     9      180.000000       14.632492         2
        10         9         8        35     9        0.000000       -0.472179         3
        10         9         8        35     9      180.000000        0.089747         4
        10        11        12        13     9        0.000000        0.482939         1
        10        11        12        13     9      180.000000        4.075121         2
        10        11        12        13     9        0.000000       -0.390104         3
        10        11        12        13     9      180.000000        0.258858         4
        10        11        12        17     9        0.000000        0.605061         1
        10        11        12        17     9      180.000000        4.040217         2
        10        11        12        17     9        0.000000        0.344137         3
        10        11        12        17     9      180.000000        0.110639         4
        11        10         9        36     9        0.000000        0.176516         1
        11        10         9        36     9      180.000000       14.192220         2
        11        10         9        36     9        0.000000        0.080635         3
        11        10         9        36     9      180.000000        0.352858         4
        11        12        13        14     9        0.000000        0.591877         1
        11        12        13        14     9      180.000000       20.416584         2
        11        12        13        14     9        0.000000        0.440656         3
        11        12        13        14     9      180.000000       -0.471439         4
        11        12        13        37     9        0.000000        0.267737         1
        11        12        13        37     9      180.000000       14.612433         2
        11        12        13        37     9        0.000000        0.126417         3
        11        12        13        37     9      180.000000        0.403536         4
        11        12        17        16     9        0.000000        0.686008         1
        11        12        17        16     9      180.000000       17.670333         2
        11        12        17        16     9        0.000000        0.475519         3
        11        12        17        16     9      180.000000       -0.666375         4
        11        12        17        28     9        0.000000        0.360823         1
        11        12        17        28     9      180.000000       11.557838         2
        11        12        17        28     9        0.000000        0.553135         3
        11        12        17        28     9      180.000000       -0.148856         4
        12        13        14        15     9        0.000000       -0.032024         1
        12        13        14        15     9      180.000000       16.838625         2
        12        13        14        15     9        0.000000       -1.449090         3
        12        13        14        15     9      180.000000       -0.332410         4
        12        13        14        38     9        0.000000        0.240346         1
        12        13        14        38     9      180.000000       13.008426         2
        12        13        14        38     9        0.000000       -0.535284         3
        12        13        14        38     9      180.000000        0.172501         4
        12        17        16        15     9        0.000000       -0.624179         1
        12        17        16        15     9      180.000000        9.800507         2
        12        17        16        15     9        0.000000       -2.105832         3
        12        17        16        15     9      180.000000        0.103747         4
        12        17        16        30     9        0.000000        0.214136         1
        12        17        16        30     9      180.000000       10.518112         2
        12        17        16        30     9        0.000000       -2.597171         3
        12        17        16        30     9      180.000000        0.043322         4
        12        17        28        29     9        0.000000       -0.854632         1
        12        17        28        29     9      180.000000        5.248241         2
        12        17        28        29     9        0.000000       -0.591046         3
        12        17        28        29     9      180.000000        0.109717         4
        12        17        28        39     9        0.000000       -0.074821         1
        12        17        28        39     9      180.000000        5.124719         2
        12        17        28        39     9        0.000000        0.128141         3
        12        17        28        39     9      180.000000        0.062168         4
        13        12        17        16     9        0.000000       -0.218483         1
        13        12        17        16     9      180.000000       17.347171         2
        13        12        17        16     9        0.000000       -1.897878         3
        13        12        17        16     9      180.000000       -0.421615         4
        13        12        17        28     9        0.000000       -0.023412         1
        13        12        17        28     9      180.000000        9.725159         2
        13        12        17        28     9        0.000000       -0.475460         3
        13        12        17        28     9      180.000000       -0.050387         4
        13        14        15        16     9        0.000000       -0.038636         1
        13        14        15        16     9      180.000000       20.214462         2
        13        14        15        16     9        0.000000       -1.406206         3
        13        14        15        16     9      180.000000       -0.417898         4
        13        14        15        27     9        0.000000        0.459687         1
        13        14        15        27     9      180.000000       24.403417         2
        13        14        15        27     9        0.000000        0.301386         3
        13        14        15        27     9      180.000000       -0.645766         4
        14        13        12        17     9        0.000000       -0.007959         1
        14        13        12        17     9      180.000000       19.606521         2
        14        13        12        17     9        0.000000       -1.206654         3
        14        13        12        17     9      180.000000       -0.440048         4
        14        15        16        17     9        0.000000       -0.097054         1
        14        15        16        17     9      180.000000       15.831565         2
        14        15        16        17     9        0.000000       -1.411363         3
        14        15        16        17     9      180.000000       -0.422752         4
        14        15        16        30     9        0.000000        0.217107         1
        14        15        16        30     9      180.000000       10.735569         2
        14        15        16        30     9        0.000000       -0.058463         3
        14        15        16        30     9      180.000000       -0.066875         4
        15        14        13        37     9        0.000000        0.379668         1
        15        14        13        37     9      180.000000       13.350963         2
        15        14        13        37     9        0.000000       -0.463449         3
        15        14        13        37     9      180.000000        0.078659         4
        15        16        17        28     9        0.000000       -0.054547         1
        15        16        17        28     9      180.000000        9.506754         2
        15        16        17        28     9        0.000000       -2.189748         3
        15        16        17        28     9      180.000000        0.167080         4
        15        16        30        29     9        0.000000        1.063765         1
        15        16        30        29     9      180.000000        4.523318         2
        15        16        30        29     9        0.000000        1.005436         3
        15        16        30        29     9      180.000000       -0.094356         4
        15        16        30        40     9        0.000000       -0.128372         1
        15        16        30        40     9      180.000000        0.712575         2
        15        16        30        40     9        0.000000        0.262837         3
        15        16        30        40     9      180.000000       -0.145637         4
        16        15        14        38     9        0.000000        0.061078         1
        16        15        14        38     9      180.000000       14.990983         2
        16        15        14        38     9        0.000000       -0.489998         3
        16        15        14        38     9      180.000000       -0.025567         4
        16        17        28        29     9        0.000000       -0.172478         1
        16        17        28        29     9      180.000000       31.214807         2
        16        17        28        29     9        0.000000      -10.365944         3
        16        17        28        29     9      180.000000       -0.345357         4
        16        17        28        39     9        0.000000        1.189716         1
        16        17        28        39     9      180.000000       13.805132         2
        16        17        28        39     9        0.000000        0.382911         3
        16        17        28        39     9      180.000000       -0.500385         4
        16        30        29        28     9        0.000000        0.044869         1
        16        30        29        28     9      180.000000       19.266971         2
        16        30        29        28     9        0.000000       -2.567074         3
        16        30        29        28     9      180.000000       -0.755637         4
        17        12        13        37     9        0.000000        0.137569         1
        17        12        13        37     9      180.000000       14.778857         2
        17        12        13        37     9        0.000000       -0.362661         3
        17        12        13        37     9      180.000000        0.065434         4
        17        16        15        27     9        0.000000        0.121402         1
        17        16        15        27     9      180.000000       17.302563         2
        17        16        15        27     9        0.000000        0.229635         3
        17        16        15        27     9      180.000000       -0.621517         4
        17        16        30        29     9        0.000000        0.432905         1
        17        16        30        29     9      180.000000       23.138022         2
        17        16        30        29     9        0.000000       -5.592157         3
        17        16        30        29     9      180.000000       -0.889191         4
        17        16        30        40     9        0.000000        0.870803         1
        17        16        30        40     9      180.000000        1.869012         2
        17        16        30        40     9        0.000000        0.397889         3
        17        16        30        40     9      180.000000        0.125191         4
        17        28        29        30     9        0.000000       -0.319759         1
        17        28        29        30     9      180.000000       42.209243         2
        17        28        29        30     9        0.000000       -5.042773         3
        17        28        29        30     9      180.000000       -0.122786         4
        18         7         8        35     9        0.000000        0.266414         1
        18         7         8        35     9      180.000000       11.746161         2
        18         7         8        35     9        0.000000       -0.308103         3
        18         7         8        35     9      180.000000       -0.034733         4
        19        18        21        24     9        0.000000        0.201334         1
        19        18        21        24     9      180.000000        0.027334         2
        19        18        21        24     9        0.000000        0.263610         3
        19        18        21        24     9      180.000000        0.122726         4
        19        18        21        25     9        0.000000        0.201334         1
        19        18        21        25     9      180.000000        0.027334         2
        19        18        21        25     9        0.000000        0.263610         3
        19        18        21        25     9      180.000000        0.122726         4
        19        18        21        26     9        0.000000        0.201334         1
        19        18        21        26     9      180.000000        0.027334         2
        19        18        21        26     9        0.000000        0.263610         3
        19        18        21        26     9      180.000000        0.122726         4
        20        18        21        24     9        0.000000        0.201334         1
        20        18        21        24     9      180.000000        0.027334         2
        20        18        21        24     9        0.000000        0.263610         3
        20        18        21        24     9      180.000000        0.122726         4
        20        18        21        25     9        0.000000        0.201334         1
        20        18        21        25     9      180.000000        0.027334         2
        20        18        21        25     9        0.000000        0.263610         3
        20        18        21        25     9      180.000000        0.122726         4
        20        18        21        26     9        0.000000        0.201334         1
        20        18        21        26     9      180.000000        0.027334         2
        20        18        21        26     9        0.000000        0.263610         3
        20        18        21        26     9      180.000000        0.122726         4
        22         3         2        32     9        0.000000       -0.105368         1
        22         3         2        32     9      180.000000        0.049510         2
        22         3         2        32     9        0.000000        0.512239         3
        22         3         2        32     9      180.000000        0.003501         4
        22         3         4        33     9        0.000000        0.023670         1
        22         3         4        33     9      180.000000       -0.092713         2
        22         3         4        33     9        0.000000        0.509467         3
        22         3         4        33     9      180.000000       -0.035231         4
        22         3         4        34     9        0.000000        0.023670         1
        22         3         4        34     9      180.000000       -0.092713         2
        22         3         4        34     9        0.000000        0.509467         3
        22         3         4        34     9      180.000000       -0.035231         4
        23         3         2        32     9        0.000000       -0.105368         1
        23         3         2        32     9      180.000000        0.049510         2
        23         3         2        32     9        0.000000        0.512239         3
        23         3         2        32     9      180.000000        0.003501         4
        23         3         4        33     9        0.000000        0.023670         1
        23         3         4        33     9      180.000000       -0.092713         2
        23         3         4        33     9        0.000000        0.509467         3
        23         3         4        33     9      180.000000       -0.035231         4
        23         3         4        34     9        0.000000        0.023670         1
        23         3         4        34     9      180.000000       -0.092713         2
        23         3         4        34     9        0.000000        0.509467         3
        23         3         4        34     9      180.000000       -0.035231         4
        27        15        14        38     9        0.000000        0.262105         1
        27        15        14        38     9      180.000000       16.466198         2
        27        15        14        38     9        0.000000        0.315944         3
        27        15        14        38     9      180.000000        0.214463         4
        27        15        16        30     9        0.000000        0.420105         1
        27        15        16        30     9      180.000000       13.212103         2
        27        15        16        30     9        0.000000        0.475081         3
        27        15        16        30     9      180.000000       -0.224510         4
        28        17        16        30     9        0.000000        0.295472         1
        28        17        16        30     9      180.000000       15.307476         2
        28        17        16        30     9        0.000000       -5.780326         3
        28        17        16        30     9      180.000000        0.001469         4
        28        29        30        40     9        0.000000        1.073962         1
        28        29        30        40     9      180.000000        3.665505         2
        28        29        30        40     9        0.000000        0.492216         3
        28        29        30        40     9      180.000000        0.148468         4
        30        29        28        39     9        0.000000        1.678459         1
        30        29        28        39     9      180.000000       29.037273         2
        30        29        28        39     9        0.000000        0.500905         3
        30        29        28        39     9      180.000000       -0.204669         4
        31         1         2        32     9        0.000000        0.165313         1
        31         1         2        32     9      180.000000       -0.087622         2
        31         1         2        32     9        0.000000        0.730153         3
        31         1         2        32     9      180.000000        0.188148         4
        35         8         9        36     9        0.000000       -0.064319         1
        35         8         9        36     9      180.000000       12.728851         2
        35         8         9        36     9        0.000000       -0.859815         3
        35         8         9        36     9      180.000000        0.229522         4
        37        13        14        38     9        0.000000       -0.020749         1
        37        13        14        38     9      180.000000       11.282893         2
        37        13        14        38     9        0.000000       -0.704493         3
        37        13        14        38     9      180.000000        0.066822         4

[ pairs ]
;       ai        aj funct
         1         4     1
         1         5     1
         1         7     1
         1        22     1
         1        23     1
         2         8     1
         2        10     1
         2        18     1
         2        33     1
         2        34     1
         3         7     1
         3        10     1
         3        31     1
         4         7     1
         4         9     1
         4        11     1
         4        32     1
         5         8     1
         5        12     1
         5        18     1
         5        22     1
         5        23     1
         5        32     1
         5        36     1
         6         9     1
         6        11     1
         6        19     1
         6        20     1
         6        21     1
         6        22     1
         6        23     1
         6        31     1
         6        33     1
         6        34     1
         6        35     1
         7        10     1
         7        24     1
         7        25     1
         7        26     1
         7        32     1
         7        36     1
         8        11     1
         8        19     1
         8        20     1
         8        21     1
         9        12     1
         9        18     1
        10        13     1
        10        17     1
        10        33     1
        10        34     1
        10        35     1
        11        14     1
        11        16     1
        11        28     1
        11        36     1
        11        37     1
        12        15     1
        12        29     1
        12        30     1
        12        38     1
        12        39     1
        13        16     1
        13        27     1
        13        28     1
        14        17     1
        14        30     1
        15        28     1
        15        29     1
        15        37     1
        15        40     1
        16        38     1
        16        39     1
        17        27     1
        17        37     1
        17        40     1
        18        35     1
        19        24     1
        19        25     1
        19        26     1
        20        24     1
        20        25     1
        20        26     1
        22        32     1
        22        33     1
        22        34     1
        23        32     1
        23        33     1
        23        34     1
        27        30     1
        27        38     1
        28        40     1
        30        39     1
        31        32     1
        35        36     1
        37        38     1
