; ITP file created by ByteFF-ML, 2026-02-21 07:41:51.846270

[ atomtypes ]
;name           bonded.type        at.num        mass        charge   ptype           sigma         epsilon
 cl0bf                                 17      0.0000       0.00000       A     3.46582e-01     1.10499e+00
 c1bf                                   6      0.0000       0.00000       A     3.31610e-01     4.14905e-01
 c2bf                                   6      0.0000       0.00000       A     3.31515e-01     4.13755e-01
 c3bf                                   6      0.0000       0.00000       A     3.31880e-01     4.10951e-01
 c4bf                                   6      0.0000       0.00000       A     3.31321e-01     4.14745e-01
 c5bf                                   6      0.0000       0.00000       A     3.31535e-01     4.13615e-01
 c6bf                                   6      0.0000       0.00000       A     3.31558e-01     4.14619e-01
 o7bf                                   8      0.0000       0.00000       A     3.16300e-01     3.05475e-01
 c8bf                                   6      0.0000       0.00000       A     3.31504e-01     4.12980e-01
 c9bf                                   6      0.0000       0.00000       A     3.31498e-01     4.13688e-01
 c10bf                                  6      0.0000       0.00000       A     3.31573e-01     4.14252e-01
 f11bf                                  9      0.0000       0.00000       A     3.03468e-01     3.48235e-01
 c12bf                                  6      0.0000       0.00000       A     3.31552e-01     4.14123e-01
 c13bf                                  6      0.0000       0.00000       A     3.31534e-01     4.14279e-01
 c14bf                                  6      0.0000       0.00000       A     3.48195e-01     6.71490e-01
 c15bf                                  6      0.0000       0.00000       A     3.31499e-01     4.14253e-01
 s16bf                                 16      0.0000       0.00000       A     4.06036e-01     2.58014e-01
 o17bf                                  8      0.0000       0.00000       A     3.05170e-01     6.12284e-01
 o18bf                                  8      0.0000       0.00000       A     3.05170e-01     6.12284e-01
 c19bf                                  6      0.0000       0.00000       A     3.40045e-01     4.52179e-01
 f20bf                                  9      0.0000       0.00000       A     3.03109e-01     3.45246e-01
 f21bf                                  9      0.0000       0.00000       A     3.03109e-01     3.45246e-01
 c22bf                                  6      0.0000       0.00000       A     3.47791e-01     6.71495e-01
 n23bf                                  7      0.0000       0.00000       A     3.27257e-01     4.60667e-01
 n24bf                                  7      0.0000       0.00000       A     3.27424e-01     4.58548e-01
 h25bf                                  1      0.0000       0.00000       A     2.62696e-01     6.82543e-02
 h26bf                                  1      0.0000       0.00000       A     2.62411e-01     6.71450e-02
 h27bf                                  1      0.0000       0.00000       A     2.62432e-01     6.69886e-02
 h28bf                                  1      0.0000       0.00000       A     2.62464e-01     6.71849e-02
 h29bf                                  1      0.0000       0.00000       A     2.62428e-01     6.73733e-02
 h30bf                                  1      0.0000       0.00000       A     2.06356e-01     8.82610e-02

[ moleculetype ]
;name             nrexcl
 30                    3

[ atoms ]
;       nr            type      resi   res      atom      cgnr      charge          mass ; qtot
         1           cl0bf         1   UNL       cl0         1    -0.12661       35.4530 ; qtot   -0.127
         2            c1bf         1   UNL        c1         2    -0.04685       12.0110 ; qtot   -0.173
         3            c2bf         1   UNL        c2         3     0.27349       12.0110 ; qtot    0.100
         4            c3bf         1   UNL        c3         4    -0.24844       12.0110 ; qtot   -0.148
         5            c4bf         1   UNL        c4         5     0.02724       12.0110 ; qtot   -0.121
         6            c5bf         1   UNL        c5         6    -0.16062       12.0110 ; qtot   -0.282
         7            c6bf         1   UNL        c6         7     0.19305       12.0110 ; qtot   -0.089
         8            o7bf         1   UNL        o7         8    -0.23001       15.9990 ; qtot   -0.319
         9            c8bf         1   UNL        c8         9     0.14966       12.0110 ; qtot   -0.169
        10            c9bf         1   UNL        c9        10    -0.16390       12.0110 ; qtot   -0.333
        11           c10bf         1   UNL       c10        11     0.19206       12.0110 ; qtot   -0.141
        12           f11bf         1   UNL       f11        12    -0.16215       18.9980 ; qtot   -0.303
        13           c12bf         1   UNL       c12        13    -0.13469       12.0110 ; qtot   -0.438
        14           c13bf         1   UNL       c13        14     0.04074       12.0110 ; qtot   -0.397
        15           c14bf         1   UNL       c14        15     0.31339       12.0110 ; qtot   -0.084
        16           c15bf         1   UNL       c15        16    -0.11455       12.0110 ; qtot   -0.198
        17           s16bf         1   UNL       s16        17     0.93767       32.0670 ; qtot    0.739
        18           o17bf         1   UNL       o17        18    -0.46655       15.9990 ; qtot    0.273
        19           o18bf         1   UNL       o18        19    -0.46655       15.9990 ; qtot   -0.194
        20           c19bf         1   UNL       c19        20     0.04878       12.0110 ; qtot   -0.145
        21           f20bf         1   UNL       f20        21    -0.08931       18.9980 ; qtot   -0.234
        22           f21bf         1   UNL       f21        22    -0.08931       18.9980 ; qtot   -0.323
        23           c22bf         1   UNL       c22        23     0.32522       12.0110 ; qtot    0.002
        24           n23bf         1   UNL       n23        24    -0.42297       14.0070 ; qtot   -0.421
        25           n24bf         1   UNL       n24        25    -0.43909       14.0070 ; qtot   -0.860
        26           h25bf         1   UNL       h25        26     0.15659        1.0080 ; qtot   -0.704
        27           h26bf         1   UNL       h26        27     0.15085        1.0080 ; qtot   -0.553
        28           h27bf         1   UNL       h27        28     0.15291        1.0080 ; qtot   -0.400
        29           h28bf         1   UNL       h28        29     0.14757        1.0080 ; qtot   -0.252
        30           h29bf         1   UNL       h29        30     0.14562        1.0080 ; qtot   -0.107
        31           h30bf         1   UNL       h30        31     0.10676        1.0080 ; qtot   -0.000

[ bonds ]
;       ai        aj funct               r               k
         1         3     1        0.173536   163809.997046
         2         3     1        0.140894   273907.408887
         2         7     1        0.141157   265522.145801
         2        23     1        0.143206   275062.937549
         3         4     1        0.140152   280489.445605
         4         5     1        0.139774   293729.875000
         4        17     1        0.180861   120266.684619
         5         6     1        0.139180   327632.200830
         5        26     1        0.108383   328204.002246
         6         7     1        0.139703   296596.134619
         6        27     1        0.108373   327732.076465
         7         8     1        0.136815   257077.253564
         8         9     1        0.138404   236276.792773
         9        10     1        0.139867   295617.731348
         9        16     1        0.139609   297704.496240
        10        11     1        0.139107   310161.012988
        10        28     1        0.108372   328127.876123
        11        12     1        0.135083   300333.720410
        11        13     1        0.138892   307835.578271
        13        14     1        0.140515   294475.124463
        13        29     1        0.108386   329357.334717
        14        15     1        0.143765   270871.863770
        14        16     1        0.140382   298286.486963
        15        25     1        0.116512  1108337.922656
        16        30     1        0.108393   327502.804297
        17        18     1        0.146514   528491.397852
        17        19     1        0.146514   528491.397852
        17        20     1        0.188157   131297.004883
        20        21     1        0.135493   268055.146143
        20        22     1        0.135493   268055.146143
        20        31     1        0.109154   320072.884473
        23        24     1        0.116464  1111137.504883

[ angles ]
;       ai        aj        ak funct           theta             cth
         1         3         2     1      118.102074      389.852097
         1         3         4     1      122.645020      341.470096
         2         3         4     1      119.636757      541.846834
         2         7         6     1      120.295578      587.983771
         2         7         8     1      118.574852      471.325085
         2        23        24     1      177.864243      167.360000
         3         2         7     1      119.150856      707.712274
         3         2        23     1      121.352676      481.271342
         3         4         5     1      119.935440      594.856318
         3         4        17     1      123.235268      667.126976
         4         5         6     1      120.775223      646.535830
         4         5        26     1      119.017502      354.071766
         4        17        18     1      108.762497      615.351572
         4        17        19     1      108.762497      615.351572
         4        17        20     1      102.307877      522.062277
         5         4        17     1      116.874290      541.825829
         5         6         7     1      119.662392      735.535402
         5         6        27     1      120.909470      416.537579
         6         5        26     1      120.528000      395.757682
         6         7         8     1      120.983864      509.518449
         7         2        23     1      119.459183      538.109414
         7         6        27     1      119.416122      432.787927
         7         8         9     1      119.148926      418.956071
         8         9        10     1      119.091629      516.047458
         8         9        16     1      119.423927      498.900726
         9        10        11     1      118.109924      765.138849
         9        10        28     1      121.348373      416.548719
         9        16        14     1      118.902328      685.208974
         9        16        30     1      120.324875      421.423211
        10         9        16     1      120.936241      628.964065
        10        11        12     1      118.334900      541.945215
        10        11        13     1      122.964890      627.156037
        11        10        28     1      120.534988      417.664180
        11        13        14     1      117.516968      637.448450
        11        13        29     1      120.746925      422.893797
        12        11        13     1      118.731651      524.645196
        13        14        15     1      119.386719      476.745240
        13        14        16     1      121.196091      683.752145
        14        13        29     1      121.582848      413.830517
        14        15        25     1      179.655121      167.360000
        14        16        30     1      120.635300      407.790416
        15        14        16     1      119.287766      472.484597
        17        20        21     1      108.858421      509.373303
        17        20        22     1      108.858421      509.373303
        17        20        31     1      108.697067      474.188816
        18        17        19     1      121.590965      717.695241
        18        17        20     1      105.814415      440.953864
        19        17        20     1      105.814415      440.953864
        21        20        22     1      108.856224      734.498723
        21        20        31     1      110.620987      438.413943
        22        20        31     1      110.620987      438.413943

[ dihedrals ] ; propers for gromacs 4.5 or higher, use funct 9
;       ai        aj        ak        al funct           phase               k        pn
         1         3         2         7     9        0.000000        0.769693         1
         1         3         2         7     9      180.000000       18.572457         2
         1         3         2         7     9        0.000000        0.655468         3
         1         3         2         7     9      180.000000       -0.825434         4
         1         3         2        23     9        0.000000        0.080815         1
         1         3         2        23     9      180.000000       18.381360         2
         1         3         2        23     9        0.000000        0.315640         3
         1         3         2        23     9      180.000000       -0.914641         4
         1         3         4         5     9        0.000000        0.626318         1
         1         3         4         5     9      180.000000       19.125763         2
         1         3         4         5     9        0.000000        0.456583         3
         1         3         4         5     9      180.000000       -0.853364         4
         1         3         4        17     9        0.000000       -0.012289         1
         1         3         4        17     9      180.000000       11.358753         2
         1         3         4        17     9        0.000000        0.418991         3
         1         3         4        17     9      180.000000       -0.293916         4
         2         3         4         5     9        0.000000       -0.102605         1
         2         3         4         5     9      180.000000       17.636835         2
         2         3         4         5     9        0.000000       -1.194620         3
         2         3         4         5     9      180.000000       -0.607915         4
         2         3         4        17     9        0.000000       -1.085611         1
         2         3         4        17     9      180.000000       10.731670         2
         2         3         4        17     9        0.000000       -0.068772         3
         2         3         4        17     9      180.000000       -0.341878         4
         2         7         6         5     9        0.000000       -0.148910         1
         2         7         6         5     9      180.000000       17.131823         2
         2         7         6         5     9        0.000000       -1.006239         3
         2         7         6         5     9      180.000000       -0.455589         4
         2         7         6        27     9        0.000000        0.018208         1
         2         7         6        27     9      180.000000       13.085033         2
         2         7         6        27     9        0.000000       -0.428389         3
         2         7         6        27     9      180.000000        0.016067         4
         2         7         8         9     9        0.000000       -0.803427         1
         2         7         8         9     9      180.000000        5.839688         2
         2         7         8         9     9        0.000000       -0.226025         3
         2         7         8         9     9      180.000000        0.214796         4
         3         2         7         6     9        0.000000       -0.068841         1
         3         2         7         6     9      180.000000       14.776338         2
         3         2         7         6     9        0.000000       -0.875757         3
         3         2         7         6     9      180.000000       -0.212429         4
         3         2         7         8     9        0.000000        0.446630         1
         3         2         7         8     9      180.000000       16.897033         2
         3         2         7         8     9        0.000000        0.464759         3
         3         2         7         8     9      180.000000       -0.266815         4
         3         2        23        24     9        0.000000        0.000000         1
         3         2        23        24     9      180.000000        0.000000         2
         3         2        23        24     9        0.000000        0.000000         3
         3         2        23        24     9      180.000000        0.000000         4
         3         4         5         6     9        0.000000       -0.073712         1
         3         4         5         6     9      180.000000       18.155333         2
         3         4         5         6     9        0.000000       -1.534167         3
         3         4         5         6     9      180.000000       -0.489350         4
         3         4         5        26     9        0.000000        0.216590         1
         3         4         5        26     9      180.000000       14.148756         2
         3         4         5        26     9        0.000000       -0.566320         3
         3         4         5        26     9      180.000000       -0.044399         4
         3         4        17        18     9        0.000000        0.680670         1
         3         4        17        18     9      180.000000        0.498686         2
         3         4        17        18     9        0.000000        0.311245         3
         3         4        17        18     9      180.000000       -0.108675         4
         3         4        17        19     9        0.000000        0.680670         1
         3         4        17        19     9      180.000000        0.498686         2
         3         4        17        19     9        0.000000        0.311245         3
         3         4        17        19     9      180.000000       -0.108675         4
         3         4        17        20     9        0.000000        1.940034         1
         3         4        17        20     9      180.000000       -2.768956         2
         3         4        17        20     9        0.000000        0.368206         3
         3         4        17        20     9      180.000000        0.215018         4
         4         3         2         7     9        0.000000       -0.192938         1
         4         3         2         7     9      180.000000       16.901447         2
         4         3         2         7     9        0.000000       -1.386370         3
         4         3         2         7     9      180.000000       -0.463924         4
         4         3         2        23     9        0.000000       -0.004092         1
         4         3         2        23     9      180.000000       15.928801         2
         4         3         2        23     9        0.000000       -0.266923         3
         4         3         2        23     9      180.000000       -0.529503         4
         4         5         6         7     9        0.000000       -0.156373         1
         4         5         6         7     9      180.000000       18.536522         2
         4         5         6         7     9        0.000000       -1.579237         3
         4         5         6         7     9      180.000000       -0.523187         4
         4         5         6        27     9        0.000000        0.054459         1
         4         5         6        27     9      180.000000       14.762428         2
         4         5         6        27     9        0.000000       -0.708433         3
         4         5         6        27     9      180.000000        0.040413         4
         4        17        20        21     9        0.000000       -0.483675         1
         4        17        20        21     9      180.000000       -0.123834         2
         4        17        20        21     9        0.000000        0.237033         3
         4        17        20        21     9      180.000000       -0.002842         4
         4        17        20        22     9        0.000000       -0.483675         1
         4        17        20        22     9      180.000000       -0.123834         2
         4        17        20        22     9        0.000000        0.237033         3
         4        17        20        22     9      180.000000       -0.002842         4
         4        17        20        31     9        0.000000       -0.375963         1
         4        17        20        31     9      180.000000        0.079689         2
         4        17        20        31     9        0.000000        0.325847         3
         4        17        20        31     9      180.000000       -0.040518         4
         5         4        17        18     9        0.000000       -0.079675         1
         5         4        17        18     9      180.000000        0.838740         2
         5         4        17        18     9        0.000000       -0.202615         3
         5         4        17        18     9      180.000000        0.025224         4
         5         4        17        19     9        0.000000       -0.079675         1
         5         4        17        19     9      180.000000        0.838740         2
         5         4        17        19     9        0.000000       -0.202615         3
         5         4        17        19     9      180.000000        0.025224         4
         5         4        17        20     9        0.000000       -0.378122         1
         5         4        17        20     9      180.000000       -1.454055         2
         5         4        17        20     9        0.000000       -0.337153         3
         5         4        17        20     9      180.000000        0.211128         4
         5         6         7         8     9        0.000000        0.638201         1
         5         6         7         8     9      180.000000       19.557729         2
         5         6         7         8     9        0.000000        0.532424         3
         5         6         7         8     9      180.000000       -0.487388         4
         6         5         4        17     9        0.000000       -0.365160         1
         6         5         4        17     9      180.000000       13.389783         2
         6         5         4        17     9        0.000000        0.019936         3
         6         5         4        17     9      180.000000       -0.394912         4
         6         7         2        23     9        0.000000       -0.136444         1
         6         7         2        23     9      180.000000       14.393063         2
         6         7         2        23     9        0.000000       -0.162892         3
         6         7         2        23     9      180.000000       -0.172433         4
         6         7         8         9     9        0.000000       -0.184603         1
         6         7         8         9     9      180.000000        5.627455         2
         6         7         8         9     9        0.000000       -0.235053         3
         6         7         8         9     9      180.000000        0.277554         4
         7         2        23        24     9        0.000000        0.000000         1
         7         2        23        24     9      180.000000        0.000000         2
         7         2        23        24     9        0.000000        0.000000         3
         7         2        23        24     9      180.000000        0.000000         4
         7         6         5        26     9        0.000000        0.122567         1
         7         6         5        26     9      180.000000       14.639437         2
         7         6         5        26     9        0.000000       -0.477005         3
         7         6         5        26     9      180.000000        0.081370         4
         7         8         9        10     9        0.000000       -0.013654         1
         7         8         9        10     9      180.000000        4.343462         2
         7         8         9        10     9        0.000000       -0.120290         3
         7         8         9        10     9      180.000000        0.269505         4
         7         8         9        16     9        0.000000       -0.227763         1
         7         8         9        16     9      180.000000        4.420141         2
         7         8         9        16     9        0.000000       -0.159072         3
         7         8         9        16     9      180.000000        0.288541         4
         8         7         2        23     9        0.000000       -0.291039         1
         8         7         2        23     9      180.000000       17.131885         2
         8         7         2        23     9        0.000000        0.148851         3
         8         7         2        23     9      180.000000       -0.531204         4
         8         7         6        27     9        0.000000        0.271754         1
         8         7         6        27     9      180.000000       14.735098         2
         8         7         6        27     9        0.000000        0.132480         3
         8         7         6        27     9      180.000000        0.215998         4
         8         9        10        11     9        0.000000        0.562021         1
         8         9        10        11     9      180.000000       18.826340         2
         8         9        10        11     9        0.000000        0.636308         3
         8         9        10        11     9      180.000000       -0.504759         4
         8         9        10        28     9        0.000000        0.278488         1
         8         9        10        28     9      180.000000       13.754405         2
         8         9        10        28     9        0.000000       -0.002309         3
         8         9        10        28     9      180.000000        0.339604         4
         8         9        16        14     9        0.000000        0.543372         1
         8         9        16        14     9      180.000000       18.228722         2
         8         9        16        14     9        0.000000        0.513661         3
         8         9        16        14     9      180.000000       -0.290542         4
         8         9        16        30     9        0.000000        0.216798         1
         8         9        16        30     9      180.000000       13.915967         2
         8         9        16        30     9        0.000000        0.036912         3
         8         9        16        30     9      180.000000        0.284145         4
         9        10        11        12     9        0.000000        0.492498         1
         9        10        11        12     9      180.000000       22.780977         2
         9        10        11        12     9        0.000000        0.657370         3
         9        10        11        12     9      180.000000       -0.889518         4
         9        10        11        13     9        0.000000       -0.031668         1
         9        10        11        13     9      180.000000       16.991908         2
         9        10        11        13     9        0.000000       -1.233148         3
         9        10        11        13     9      180.000000       -0.389917         4
         9        16        14        13     9        0.000000       -0.130778         1
         9        16        14        13     9      180.000000       18.209721         2
         9        16        14        13     9        0.000000       -1.708728         3
         9        16        14        13     9      180.000000       -0.407409         4
         9        16        14        15     9        0.000000       -0.054885         1
         9        16        14        15     9      180.000000       16.292532         2
         9        16        14        15     9        0.000000       -0.104319         3
         9        16        14        15     9      180.000000       -0.302044         4
        10         9        16        14     9        0.000000       -0.159475         1
        10         9        16        14     9      180.000000       16.788483         2
        10         9        16        14     9        0.000000       -0.983472         3
        10         9        16        14     9      180.000000       -0.287744         4
        10         9        16        30     9        0.000000        0.115015         1
        10         9        16        30     9      180.000000       12.878886         2
        10         9        16        30     9        0.000000       -0.487894         3
        10         9        16        30     9      180.000000        0.173411         4
        10        11        13        14     9        0.000000       -0.215231         1
        10        11        13        14     9      180.000000       17.549257         2
        10        11        13        14     9        0.000000       -1.146379         3
        10        11        13        14     9      180.000000       -0.458426         4
        10        11        13        29     9        0.000000        0.010842         1
        10        11        13        29     9      180.000000       13.201518         2
        10        11        13        29     9        0.000000       -0.547868         3
        10        11        13        29     9      180.000000        0.095581         4
        11        10         9        16     9        0.000000       -0.112443         1
        11        10         9        16     9      180.000000       16.514871         2
        11        10         9        16     9        0.000000       -1.050209         3
        11        10         9        16     9      180.000000       -0.204705         4
        11        13        14        15     9        0.000000        0.094774         1
        11        13        14        15     9      180.000000       16.943641         2
        11        13        14        15     9        0.000000       -0.003519         3
        11        13        14        15     9      180.000000       -0.413924         4
        11        13        14        16     9        0.000000       -0.162097         1
        11        13        14        16     9      180.000000       18.378240         2
        11        13        14        16     9        0.000000       -1.727253         3
        11        13        14        16     9      180.000000       -0.401568         4
        12        11        10        28     9        0.000000        0.332728         1
        12        11        10        28     9      180.000000       15.886466         2
        12        11        10        28     9        0.000000        0.249567         3
        12        11        10        28     9      180.000000        0.118378         4
        12        11        13        14     9        0.000000        0.384623         1
        12        11        13        14     9      180.000000       22.626144         2
        12        11        13        14     9        0.000000        0.654396         3
        12        11        13        14     9      180.000000       -0.714402         4
        12        11        13        29     9        0.000000        0.323706         1
        12        11        13        29     9      180.000000       15.967908         2
        12        11        13        29     9        0.000000        0.305032         3
        12        11        13        29     9      180.000000        0.124130         4
        13        11        10        28     9        0.000000        0.165860         1
        13        11        10        28     9      180.000000       12.728262         2
        13        11        10        28     9        0.000000       -0.505643         3
        13        11        10        28     9      180.000000        0.156615         4
        13        14        15        25     9        0.000000        0.000000         1
        13        14        15        25     9      180.000000        0.000000         2
        13        14        15        25     9        0.000000        0.000000         3
        13        14        15        25     9      180.000000        0.000000         4
        13        14        16        30     9        0.000000       -0.035873         1
        13        14        16        30     9      180.000000       14.177049         2
        13        14        16        30     9        0.000000       -0.688764         3
        13        14        16        30     9      180.000000        0.027156         4
        15        14        13        29     9        0.000000        0.029971         1
        15        14        13        29     9      180.000000       12.807836         2
        15        14        13        29     9        0.000000       -0.300729         3
        15        14        13        29     9      180.000000        0.113751         4
        15        14        16        30     9        0.000000        0.023555         1
        15        14        16        30     9      180.000000       12.831571         2
        15        14        16        30     9        0.000000       -0.316821         3
        15        14        16        30     9      180.000000        0.159065         4
        16         9        10        28     9        0.000000        0.116180         1
        16         9        10        28     9      180.000000       12.564783         2
        16         9        10        28     9        0.000000       -0.497384         3
        16         9        10        28     9      180.000000        0.183550         4
        16        14        13        29     9        0.000000       -0.017233         1
        16        14        13        29     9      180.000000       14.308165         2
        16        14        13        29     9        0.000000       -0.696064         3
        16        14        13        29     9      180.000000        0.020065         4
        16        14        15        25     9        0.000000        0.000000         1
        16        14        15        25     9      180.000000        0.000000         2
        16        14        15        25     9        0.000000        0.000000         3
        16        14        15        25     9      180.000000        0.000000         4
        17         4         5        26     9        0.000000        0.196391         1
        17         4         5        26     9      180.000000       11.396413         2
        17         4         5        26     9        0.000000       -0.239800         3
        17         4         5        26     9      180.000000       -0.055423         4
        18        17        20        21     9        0.000000        0.086197         1
        18        17        20        21     9      180.000000        0.104953         2
        18        17        20        21     9        0.000000        0.182550         3
        18        17        20        21     9      180.000000        0.101752         4
        18        17        20        22     9        0.000000        0.086197         1
        18        17        20        22     9      180.000000        0.104953         2
        18        17        20        22     9        0.000000        0.182550         3
        18        17        20        22     9      180.000000        0.101752         4
        18        17        20        31     9        0.000000       -0.253177         1
        18        17        20        31     9      180.000000        0.100792         2
        18        17        20        31     9        0.000000        0.257606         3
        18        17        20        31     9      180.000000       -0.008170         4
        19        17        20        21     9        0.000000        0.086197         1
        19        17        20        21     9      180.000000        0.104953         2
        19        17        20        21     9        0.000000        0.182550         3
        19        17        20        21     9      180.000000        0.101752         4
        19        17        20        22     9        0.000000        0.086197         1
        19        17        20        22     9      180.000000        0.104953         2
        19        17        20        22     9        0.000000        0.182550         3
        19        17        20        22     9      180.000000        0.101752         4
        19        17        20        31     9        0.000000       -0.253177         1
        19        17        20        31     9      180.000000        0.100792         2
        19        17        20        31     9        0.000000        0.257606         3
        19        17        20        31     9      180.000000       -0.008170         4
        26         5         6        27     9        0.000000       -0.155045         1
        26         5         6        27     9      180.000000       13.158242         2
        26         5         6        27     9        0.000000       -0.774187         3
        26         5         6        27     9      180.000000        0.226926         4

[ dihedrals ] ; impropers
;       ai        aj        ak        al funct           phase               k        pn
         5         4         6        26     4      180.000000        0.545253         2
         5         6        26         4     4      180.000000        0.545253         2
         5        26         4         6     4      180.000000        0.545253         2
        11        10        12        13     4      180.000000        1.727065         2
        11        12        13        10     4      180.000000        1.727065         2
        11        13        10        12     4      180.000000        1.727065         2

[ pairs ]
;       ai        aj funct
         1         5     1
         1         7     1
         1        17     1
         1        23     1
         2         5     1
         2         9     1
         2        17     1
         2        27     1
         3         6     1
         3         8     1
         3        18     1
         3        19     1
         3        20     1
         3        24     1
         3        26     1
         4         7     1
         4        21     1
         4        22     1
         4        23     1
         4        27     1
         4        31     1
         5         8     1
         5        18     1
         5        19     1
         5        20     1
         6         9     1
         6        17     1
         6        23     1
         7        10     1
         7        16     1
         7        24     1
         7        26     1
         8        11     1
         8        14     1
         8        23     1
         8        27     1
         8        28     1
         8        30     1
         9        12     1
         9        13     1
         9        15     1
        10        14     1
        10        29     1
        10        30     1
        11        15     1
        11        16     1
        12        14     1
        12        28     1
        12        29     1
        13        25     1
        13        28     1
        13        30     1
        15        29     1
        15        30     1
        16        25     1
        16        28     1
        16        29     1
        17        26     1
        18        21     1
        18        22     1
        18        31     1
        19        21     1
        19        22     1
        19        31     1
        26        27     1
