; ITP file created by ByteFF-ML, 2026-02-21 07:40:19.048470

[ atomtypes ]
;name           bonded.type        at.num        mass        charge   ptype           sigma         epsilon
 c0bf                                   6      0.0000       0.00000       A     3.39890e-01     4.51984e-01
 c1bf                                   6      0.0000       0.00000       A     3.31452e-01     4.15945e-01
 c2bf                                   6      0.0000       0.00000       A     3.31383e-01     4.11989e-01
 c3bf                                   6      0.0000       0.00000       A     3.31678e-01     4.09539e-01
 c4bf                                   6      0.0000       0.00000       A     3.31229e-01     4.14024e-01
 c5bf                                   6      0.0000       0.00000       A     3.31501e-01     4.13656e-01
 c6bf                                   6      0.0000       0.00000       A     3.31592e-01     4.14499e-01
 o7bf                                   8      0.0000       0.00000       A     3.16078e-01     3.04570e-01
 c8bf                                   6      0.0000       0.00000       A     3.31508e-01     4.13024e-01
 c9bf                                   6      0.0000       0.00000       A     3.31574e-01     4.12983e-01
 c10bf                                  6      0.0000       0.00000       A     3.31518e-01     4.12854e-01
 c11bf                                  6      0.0000       0.00000       A     3.31500e-01     4.13221e-01
 c12bf                                  6      0.0000       0.00000       A     3.31527e-01     4.14348e-01
 c13bf                                  6      0.0000       0.00000       A     3.48169e-01     6.71363e-01
 c14bf                                  6      0.0000       0.00000       A     3.31500e-01     4.14244e-01
 s15bf                                 16      0.0000       0.00000       A     4.06333e-01     2.56831e-01
 o16bf                                  8      0.0000       0.00000       A     3.05258e-01     6.13033e-01
 o17bf                                  8      0.0000       0.00000       A     3.05258e-01     6.13033e-01
 c18bf                                  6      0.0000       0.00000       A     3.40010e-01     4.52708e-01
 f19bf                                  9      0.0000       0.00000       A     3.03109e-01     3.45246e-01
 f20bf                                  9      0.0000       0.00000       A     3.03109e-01     3.45246e-01
 c21bf                                  6      0.0000       0.00000       A     3.47839e-01     6.70122e-01
 n22bf                                  7      0.0000       0.00000       A     3.27279e-01     4.59673e-01
 n23bf                                  7      0.0000       0.00000       A     3.27424e-01     4.58548e-01
 h24bf                                  1      0.0000       0.00000       A     2.60053e-01     8.68246e-02
 h25bf                                  1      0.0000       0.00000       A     2.60053e-01     8.68246e-02
 h26bf                                  1      0.0000       0.00000       A     2.60053e-01     8.68230e-02
 h27bf                                  1      0.0000       0.00000       A     2.62760e-01     6.80213e-02
 h28bf                                  1      0.0000       0.00000       A     2.62411e-01     6.71450e-02
 h29bf                                  1      0.0000       0.00000       A     2.62525e-01     6.72408e-02
 h30bf                                  1      0.0000       0.00000       A     2.62559e-01     6.73477e-02
 h31bf                                  1      0.0000       0.00000       A     2.62439e-01     6.70764e-02
 h32bf                                  1      0.0000       0.00000       A     2.62428e-01     6.73733e-02
 h33bf                                  1      0.0000       0.00000       A     2.06356e-01     8.82610e-02

[ moleculetype ]
;name             nrexcl
 31                    3

[ atoms ]
;       nr            type      resi   res      atom      cgnr      charge          mass ; qtot
         1            c0bf         1   UNL        c0         1    -0.07817       12.0110 ; qtot   -0.078
         2            c1bf         1   UNL        c1         2    -0.06014       12.0110 ; qtot   -0.138
         3            c2bf         1   UNL        c2         3     0.10614       12.0110 ; qtot   -0.032
         4            c3bf         1   UNL        c3         4    -0.26194       12.0110 ; qtot   -0.294
         5            c4bf         1   UNL        c4         5     0.02200       12.0110 ; qtot   -0.272
         6            c5bf         1   UNL        c5         6    -0.15953       12.0110 ; qtot   -0.432
         7            c6bf         1   UNL        c6         7     0.18563       12.0110 ; qtot   -0.246
         8            o7bf         1   UNL        o7         8    -0.24058       15.9990 ; qtot   -0.487
         9            c8bf         1   UNL        c8         9     0.11787       12.0110 ; qtot   -0.369
        10            c9bf         1   UNL        c9        10    -0.11682       12.0110 ; qtot   -0.486
        11           c10bf         1   UNL       c10        11    -0.09281       12.0110 ; qtot   -0.578
        12           c11bf         1   UNL       c11        12    -0.09376       12.0110 ; qtot   -0.672
        13           c12bf         1   UNL       c12        13     0.01136       12.0110 ; qtot   -0.661
        14           c13bf         1   UNL       c13        14     0.31628       12.0110 ; qtot   -0.344
        15           c14bf         1   UNL       c14        15    -0.10055       12.0110 ; qtot   -0.445
        16           s15bf         1   UNL       s15        16     0.93403       32.0670 ; qtot    0.489
        17           o16bf         1   UNL       o16        17    -0.47297       15.9990 ; qtot    0.016
        18           o17bf         1   UNL       o17        18    -0.47297       15.9990 ; qtot   -0.457
        19           c18bf         1   UNL       c18        19     0.04250       12.0110 ; qtot   -0.414
        20           f19bf         1   UNL       f19        20    -0.09019       18.9980 ; qtot   -0.505
        21           f20bf         1   UNL       f20        21    -0.09019       18.9980 ; qtot   -0.595
        22           c21bf         1   UNL       c21        22     0.32202       12.0110 ; qtot   -0.273
        23           n22bf         1   UNL       n22        23    -0.44225       14.0070 ; qtot   -0.715
        24           n23bf         1   UNL       n23        24    -0.44663       14.0070 ; qtot   -1.162
        25           h24bf         1   UNL       h24        25     0.07470        1.0080 ; qtot   -1.087
        26           h25bf         1   UNL       h25        26     0.07470        1.0080 ; qtot   -1.012
        27           h26bf         1   UNL       h26        27     0.07470        1.0080 ; qtot   -0.938
        28           h27bf         1   UNL       h27        28     0.14926        1.0080 ; qtot   -0.788
        29           h28bf         1   UNL       h28        29     0.14551        1.0080 ; qtot   -0.643
        30           h29bf         1   UNL       h29        30     0.13369        1.0080 ; qtot   -0.509
        31           h30bf         1   UNL       h30        31     0.12924        1.0080 ; qtot   -0.380
        32           h31bf         1   UNL       h31        32     0.13031        1.0080 ; qtot   -0.250
        33           h32bf         1   UNL       h32        33     0.14307        1.0080 ; qtot   -0.106
        34           h33bf         1   UNL       h33        34     0.10649        1.0080 ; qtot   -0.000

[ bonds ]
;       ai        aj funct               r               k
         1         3     1        0.150920   197515.827588
         1        25     1        0.109147   309592.454785
         1        26     1        0.109147   309592.454785
         1        27     1        0.109147   309592.454785
         2         3     1        0.141251   269696.901367
         2         7     1        0.140966   270788.408496
         2        22     1        0.143410   267345.291113
         3         4     1        0.140768   270491.667285
         4         5     1        0.139766   297800.847754
         4        16     1        0.180164   123882.943604
         5         6     1        0.139258   325549.470801
         5        28     1        0.108410   326678.338721
         6         7     1        0.139567   299368.621973
         6        29     1        0.108392   326853.038086
         7         8     1        0.137025   253598.614063
         8         9     1        0.138691   232769.168652
         9        10     1        0.139854   294073.808789
         9        15     1        0.139511   299940.985205
        10        11     1        0.139750   315385.624658
        10        30     1        0.108467   324338.986279
        11        12     1        0.139537   312931.048779
        11        31     1        0.108541   323301.643359
        12        13     1        0.140545   292076.781299
        12        32     1        0.108458   326037.229590
        13        14     1        0.143738   269489.591113
        13        15     1        0.140444   297548.030371
        14        24     1        0.116541  1105043.226953
        15        33     1        0.108412   326717.333887
        16        17     1        0.146761   520356.398437
        16        18     1        0.146761   520356.398437
        16        19     1        0.188096   132064.203491
        19        20     1        0.135555   266652.980078
        19        21     1        0.135555   266652.980078
        19        34     1        0.109155   319785.949512
        22        23     1        0.116549  1103378.820312

[ angles ]
;       ai        aj        ak funct           theta             cth
         1         3         2     1      119.610535      476.562458
         1         3         4     1      123.720474      437.561610
         2         3         4     1      116.383034      602.031863
         2         7         6     1      120.129433      586.480466
         2         7         8     1      118.679260      470.015190
         2        22        23     1      177.705185      167.360000
         3         1        25     1      110.870743      488.664335
         3         1        26     1      110.870743      488.664335
         3         1        27     1      110.870743      488.664335
         3         2         7     1      121.168663      706.492430
         3         2        22     1      120.055153      466.443985
         3         4         5     1      122.290726      682.539452
         3         4        16     1      121.802048      597.387429
         4         5         6     1      120.288834      636.932473
         4         5        28     1      119.708374      360.879130
         4        16        17     1      109.337669      632.269524
         4        16        18     1      109.337669      632.269524
         4        16        19     1      102.686096      523.183708
         5         4        16     1      116.178467      554.104774
         5         6         7     1      119.382240      728.965087
         5         6        29     1      121.034668      418.143831
         6         5        28     1      120.399185      400.123091
         6         7         8     1      120.965027      509.796038
         7         2        22     1      118.825455      545.057104
         7         6        29     1      119.631004      427.758489
         7         8         9     1      118.968056      423.973251
         8         9        10     1      119.706276      514.805142
         8         9        15     1      119.341751      496.180225
         9        10        11     1      119.472672      724.839439
         9        10        30     1      119.634689      425.511127
         9        15        13     1      118.993225      682.377227
         9        15        33     1      120.292320      416.184337
        10         9        15     1      120.742737      635.101398
        10        11        12     1      120.710892      717.450596
        10        11        31     1      119.565659      427.213431
        11        10        30     1      120.962036      417.805336
        11        12        13     1      119.072487      646.869217
        11        12        32     1      121.099228      421.280873
        12        11        31     1      119.802902      429.905904
        12        13        14     1      119.789818      482.386037
        12        13        15     1      120.721359      690.798089
        13        12        32     1      119.892273      422.193601
        13        14        24     1      179.657593      167.360000
        13        15        33     1      120.601486      405.788562
        14        13        15     1      119.325401      474.456509
        16        19        20     1      109.119339      510.101270
        16        19        21     1      109.119339      510.101270
        16        19        34     1      108.731552      471.899382
        17        16        18     1      121.514877      718.653266
        17        16        19     1      105.390884      443.971329
        18        16        19     1      105.390884      443.971329
        20        19        21     1      108.754395      734.916063
        20        19        34     1      110.548447      439.039762
        21        19        34     1      110.548447      439.039762
        25         1        26     1      108.149315      351.805795
        25         1        27     1      108.149315      351.805795
        26         1        27     1      108.149315      351.805826

[ dihedrals ] ; propers for gromacs 4.5 or higher, use funct 9
;       ai        aj        ak        al funct           phase               k        pn
         1         3         2         7     9        0.000000        0.178368         1
         1         3         2         7     9      180.000000       15.820273         2
         1         3         2         7     9        0.000000       -0.064844         3
         1         3         2         7     9      180.000000       -0.471293         4
         1         3         2        22     9        0.000000       -0.095603         1
         1         3         2        22     9      180.000000       17.469659         2
         1         3         2        22     9        0.000000        0.082578         3
         1         3         2        22     9      180.000000       -0.692943         4
         1         3         4         5     9        0.000000        0.034598         1
         1         3         4         5     9      180.000000       16.008889         2
         1         3         4         5     9        0.000000        0.003332         3
         1         3         4         5     9      180.000000       -0.416439         4
         1         3         4        16     9        0.000000       -0.102322         1
         1         3         4        16     9      180.000000       12.912287         2
         1         3         4        16     9        0.000000        0.181838         3
         1         3         4        16     9      180.000000       -0.477806         4
         2         3         1        25     9        0.000000       -0.029588         1
         2         3         1        25     9      180.000000       -0.011293         2
         2         3         1        25     9        0.000000       -0.041280         3
         2         3         1        25     9      180.000000        0.069246         4
         2         3         1        26     9        0.000000       -0.029588         1
         2         3         1        26     9      180.000000       -0.011293         2
         2         3         1        26     9        0.000000       -0.041280         3
         2         3         1        26     9      180.000000        0.069246         4
         2         3         1        27     9        0.000000       -0.029587         1
         2         3         1        27     9      180.000000       -0.011294         2
         2         3         1        27     9        0.000000       -0.041280         3
         2         3         1        27     9      180.000000        0.069246         4
         2         3         4         5     9        0.000000       -0.324216         1
         2         3         4         5     9      180.000000       18.442551         2
         2         3         4         5     9        0.000000       -1.383461         3
         2         3         4         5     9      180.000000       -0.600383         4
         2         3         4        16     9        0.000000       -0.606572         1
         2         3         4        16     9      180.000000       12.389548         2
         2         3         4        16     9        0.000000       -0.013454         3
         2         3         4        16     9      180.000000       -0.553240         4
         2         7         6         5     9        0.000000       -0.298059         1
         2         7         6         5     9      180.000000       16.879273         2
         2         7         6         5     9        0.000000       -1.137206         3
         2         7         6         5     9      180.000000       -0.427771         4
         2         7         6        29     9        0.000000       -0.021033         1
         2         7         6        29     9      180.000000       13.021940         2
         2         7         6        29     9        0.000000       -0.456348         3
         2         7         6        29     9      180.000000        0.067100         4
         2         7         8         9     9        0.000000       -1.302708         1
         2         7         8         9     9      180.000000        6.217209         2
         2         7         8         9     9        0.000000       -0.439463         3
         2         7         8         9     9      180.000000        0.239455         4
         3         2         7         6     9        0.000000       -0.141335         1
         3         2         7         6     9      180.000000       14.619016         2
         3         2         7         6     9        0.000000       -1.111231         3
         3         2         7         6     9      180.000000       -0.209712         4
         3         2         7         8     9        0.000000        0.424730         1
         3         2         7         8     9      180.000000       16.583969         2
         3         2         7         8     9        0.000000        0.360257         3
         3         2         7         8     9      180.000000       -0.259818         4
         3         2        22        23     9        0.000000        0.000000         1
         3         2        22        23     9      180.000000        0.000000         2
         3         2        22        23     9        0.000000        0.000000         3
         3         2        22        23     9      180.000000        0.000000         4
         3         4         5         6     9        0.000000       -0.068103         1
         3         4         5         6     9      180.000000       18.355699         2
         3         4         5         6     9        0.000000       -1.618575         3
         3         4         5         6     9      180.000000       -0.523028         4
         3         4         5        28     9        0.000000        0.128504         1
         3         4         5        28     9      180.000000       14.294323         2
         3         4         5        28     9        0.000000       -0.596215         3
         3         4         5        28     9      180.000000       -0.058533         4
         3         4        16        17     9        0.000000        0.081073         1
         3         4        16        17     9      180.000000        1.054039         2
         3         4        16        17     9        0.000000        0.497879         3
         3         4        16        17     9      180.000000       -0.100492         4
         3         4        16        18     9        0.000000        0.081073         1
         3         4        16        18     9      180.000000        1.054039         2
         3         4        16        18     9        0.000000        0.497879         3
         3         4        16        18     9      180.000000       -0.100492         4
         3         4        16        19     9        0.000000        1.003265         1
         3         4        16        19     9      180.000000       -2.084425         2
         3         4        16        19     9        0.000000        0.486002         3
         3         4        16        19     9      180.000000        0.154967         4
         4         3         1        25     9        0.000000       -0.058213         1
         4         3         1        25     9      180.000000        0.008691         2
         4         3         1        25     9        0.000000        0.023885         3
         4         3         1        25     9      180.000000        0.063288         4
         4         3         1        26     9        0.000000       -0.058213         1
         4         3         1        26     9      180.000000        0.008691         2
         4         3         1        26     9        0.000000        0.023885         3
         4         3         1        26     9      180.000000        0.063288         4
         4         3         1        27     9        0.000000       -0.058214         1
         4         3         1        27     9      180.000000        0.008691         2
         4         3         1        27     9        0.000000        0.023885         3
         4         3         1        27     9      180.000000        0.063288         4
         4         3         2         7     9        0.000000       -0.165646         1
         4         3         2         7     9      180.000000       18.434194         2
         4         3         2         7     9        0.000000       -1.775849         3
         4         3         2         7     9      180.000000       -0.604900         4
         4         3         2        22     9        0.000000       -0.023298         1
         4         3         2        22     9      180.000000       18.762431         2
         4         3         2        22     9        0.000000       -0.100280         3
         4         3         2        22     9      180.000000       -0.780991         4
         4         5         6         7     9        0.000000       -0.221672         1
         4         5         6         7     9      180.000000       18.742157         2
         4         5         6         7     9        0.000000       -1.732227         3
         4         5         6         7     9      180.000000       -0.503905         4
         4         5         6        29     9        0.000000       -0.023987         1
         4         5         6        29     9      180.000000       14.652810         2
         4         5         6        29     9        0.000000       -0.741760         3
         4         5         6        29     9      180.000000        0.078052         4
         4        16        19        20     9        0.000000       -0.423361         1
         4        16        19        20     9      180.000000       -0.328559         2
         4        16        19        20     9        0.000000        0.284061         3
         4        16        19        20     9      180.000000        0.018960         4
         4        16        19        21     9        0.000000       -0.423361         1
         4        16        19        21     9      180.000000       -0.328559         2
         4        16        19        21     9        0.000000        0.284061         3
         4        16        19        21     9      180.000000        0.018960         4
         4        16        19        34     9        0.000000       -0.135815         1
         4        16        19        34     9      180.000000       -0.064181         2
         4        16        19        34     9        0.000000        0.368896         3
         4        16        19        34     9      180.000000       -0.029896         4
         5         4        16        17     9        0.000000        0.146918         1
         5         4        16        17     9      180.000000        1.078102         2
         5         4        16        17     9        0.000000       -0.016493         3
         5         4        16        17     9      180.000000        0.018950         4
         5         4        16        18     9        0.000000        0.146918         1
         5         4        16        18     9      180.000000        1.078102         2
         5         4        16        18     9        0.000000       -0.016493         3
         5         4        16        18     9      180.000000        0.018950         4
         5         4        16        19     9        0.000000       -0.077402         1
         5         4        16        19     9      180.000000       -1.658284         2
         5         4        16        19     9        0.000000       -0.051612         3
         5         4        16        19     9      180.000000        0.161961         4
         5         6         7         8     9        0.000000        0.612631         1
         5         6         7         8     9      180.000000       19.016404         2
         5         6         7         8     9        0.000000        0.546649         3
         5         6         7         8     9      180.000000       -0.397413         4
         6         5         4        16     9        0.000000       -0.225200         1
         6         5         4        16     9      180.000000       13.733655         2
         6         5         4        16     9        0.000000        0.032991         3
         6         5         4        16     9      180.000000       -0.403243         4
         6         7         2        22     9        0.000000       -0.195968         1
         6         7         2        22     9      180.000000       14.615585         2
         6         7         2        22     9        0.000000       -0.157749         3
         6         7         2        22     9      180.000000       -0.182392         4
         6         7         8         9     9        0.000000       -0.057677         1
         6         7         8         9     9      180.000000        5.487813         2
         6         7         8         9     9        0.000000       -0.193557         3
         6         7         8         9     9      180.000000        0.303160         4
         7         2        22        23     9        0.000000        0.000000         1
         7         2        22        23     9      180.000000        0.000000         2
         7         2        22        23     9        0.000000        0.000000         3
         7         2        22        23     9      180.000000        0.000000         4
         7         6         5        28     9        0.000000        0.146989         1
         7         6         5        28     9      180.000000       14.733530         2
         7         6         5        28     9        0.000000       -0.466740         3
         7         6         5        28     9      180.000000        0.078280         4
         7         8         9        10     9        0.000000       -0.077776         1
         7         8         9        10     9      180.000000        4.225705         2
         7         8         9        10     9        0.000000       -0.105718         3
         7         8         9        10     9      180.000000        0.286058         4
         7         8         9        15     9        0.000000       -0.135482         1
         7         8         9        15     9      180.000000        4.286829         2
         7         8         9        15     9        0.000000       -0.224562         3
         7         8         9        15     9      180.000000        0.299621         4
         8         7         2        22     9        0.000000       -0.326269         1
         8         7         2        22     9      180.000000       17.501601         2
         8         7         2        22     9        0.000000        0.147107         3
         8         7         2        22     9      180.000000       -0.551531         4
         8         7         6        29     9        0.000000        0.332648         1
         8         7         6        29     9      180.000000       14.464771         2
         8         7         6        29     9        0.000000        0.157276         3
         8         7         6        29     9      180.000000        0.300329         4
         8         9        10        11     9        0.000000        0.735626         1
         8         9        10        11     9      180.000000       18.420003         2
         8         9        10        11     9        0.000000        0.509524         3
         8         9        10        11     9      180.000000       -0.291703         4
         8         9        10        30     9        0.000000        0.195169         1
         8         9        10        30     9      180.000000       13.963821         2
         8         9        10        30     9        0.000000        0.026434         3
         8         9        10        30     9      180.000000        0.294120         4
         8         9        15        13     9        0.000000        0.524948         1
         8         9        15        13     9      180.000000       18.215237         2
         8         9        15        13     9        0.000000        0.531174         3
         8         9        15        13     9      180.000000       -0.275738         4
         8         9        15        33     9        0.000000        0.241937         1
         8         9        15        33     9      180.000000       13.858322         2
         8         9        15        33     9        0.000000        0.052900         3
         8         9        15        33     9      180.000000        0.319465         4
         9        10        11        12     9        0.000000       -0.061491         1
         9        10        11        12     9      180.000000       18.689044         2
         9        10        11        12     9        0.000000       -1.478973         3
         9        10        11        12     9      180.000000       -0.469086         4
         9        10        11        31     9        0.000000        0.004843         1
         9        10        11        31     9      180.000000       14.664020         2
         9        10        11        31     9        0.000000       -0.519322         3
         9        10        11        31     9      180.000000        0.047963         4
         9        15        13        12     9        0.000000       -0.113700         1
         9        15        13        12     9      180.000000       18.269819         2
         9        15        13        12     9        0.000000       -1.651124         3
         9        15        13        12     9      180.000000       -0.429527         4
         9        15        13        14     9        0.000000       -0.071259         1
         9        15        13        14     9      180.000000       16.293348         2
         9        15        13        14     9        0.000000       -0.092224         3
         9        15        13        14     9      180.000000       -0.308874         4
        10         9        15        13     9        0.000000       -0.111397         1
        10         9        15        13     9      180.000000       16.803071         2
        10         9        15        13     9        0.000000       -0.924530         3
        10         9        15        13     9      180.000000       -0.223148         4
        10         9        15        33     9        0.000000        0.042423         1
        10         9        15        33     9      180.000000       12.757957         2
        10         9        15        33     9        0.000000       -0.502600         3
        10         9        15        33     9      180.000000        0.179819         4
        10        11        12        13     9        0.000000       -0.146510         1
        10        11        12        13     9      180.000000       18.927990         2
        10        11        12        13     9        0.000000       -1.518533         3
        10        11        12        13     9      180.000000       -0.444172         4
        10        11        12        32     9        0.000000        0.019043         1
        10        11        12        32     9      180.000000       14.885020         2
        10        11        12        32     9        0.000000       -0.719626         3
        10        11        12        32     9      180.000000        0.058608         4
        11        10         9        15     9        0.000000        0.026109         1
        11        10         9        15     9      180.000000       16.622833         2
        11        10         9        15     9        0.000000       -0.902991         3
        11        10         9        15     9      180.000000       -0.209134         4
        11        12        13        14     9        0.000000        0.059856         1
        11        12        13        14     9      180.000000       16.969509         2
        11        12        13        14     9        0.000000       -0.049690         3
        11        12        13        14     9      180.000000       -0.298569         4
        11        12        13        15     9        0.000000       -0.079221         1
        11        12        13        15     9      180.000000       18.499359         2
        11        12        13        15     9        0.000000       -1.596728         3
        11        12        13        15     9      180.000000       -0.419471         4
        12        11        10        30     9        0.000000        0.075981         1
        12        11        10        30     9      180.000000       14.187473         2
        12        11        10        30     9        0.000000       -0.587459         3
        12        11        10        30     9      180.000000        0.121953         4
        12        13        14        24     9        0.000000        0.000000         1
        12        13        14        24     9      180.000000        0.000000         2
        12        13        14        24     9        0.000000        0.000000         3
        12        13        14        24     9      180.000000        0.000000         4
        12        13        15        33     9        0.000000       -0.050028         1
        12        13        15        33     9      180.000000       13.978883         2
        12        13        15        33     9        0.000000       -0.654211         3
        12        13        15        33     9      180.000000        0.031482         4
        13        12        11        31     9        0.000000       -0.024931         1
        13        12        11        31     9      180.000000       14.495108         2
        13        12        11        31     9        0.000000       -0.568559         3
        13        12        11        31     9      180.000000        0.123923         4
        14        13        12        32     9        0.000000        0.047503         1
        14        13        12        32     9      180.000000       12.848971         2
        14        13        12        32     9        0.000000       -0.299787         3
        14        13        12        32     9      180.000000        0.127365         4
        14        13        15        33     9        0.000000        0.047747         1
        14        13        15        33     9      180.000000       12.745745         2
        14        13        15        33     9        0.000000       -0.297321         3
        14        13        15        33     9      180.000000        0.169951         4
        15         9        10        30     9        0.000000        0.127402         1
        15         9        10        30     9      180.000000       12.832972         2
        15         9        10        30     9        0.000000       -0.503051         3
        15         9        10        30     9      180.000000        0.147520         4
        15        13        12        32     9        0.000000       -0.033282         1
        15        13        12        32     9      180.000000       14.401695         2
        15        13        12        32     9        0.000000       -0.708023         3
        15        13        12        32     9      180.000000        0.008932         4
        15        13        14        24     9        0.000000        0.000000         1
        15        13        14        24     9      180.000000        0.000000         2
        15        13        14        24     9        0.000000        0.000000         3
        15        13        14        24     9      180.000000        0.000000         4
        16         4         5        28     9        0.000000        0.170021         1
        16         4         5        28     9      180.000000       12.003716         2
        16         4         5        28     9        0.000000       -0.203852         3
        16         4         5        28     9      180.000000       -0.038239         4
        17        16        19        20     9        0.000000        0.153995         1
        17        16        19        20     9      180.000000        0.074083         2
        17        16        19        20     9        0.000000        0.216161         3
        17        16        19        20     9      180.000000        0.118586         4
        17        16        19        21     9        0.000000        0.153995         1
        17        16        19        21     9      180.000000        0.074083         2
        17        16        19        21     9        0.000000        0.216161         3
        17        16        19        21     9      180.000000        0.118586         4
        17        16        19        34     9        0.000000       -0.247860         1
        17        16        19        34     9      180.000000        0.091724         2
        17        16        19        34     9        0.000000        0.276776         3
        17        16        19        34     9      180.000000       -0.015059         4
        18        16        19        20     9        0.000000        0.153995         1
        18        16        19        20     9      180.000000        0.074083         2
        18        16        19        20     9        0.000000        0.216161         3
        18        16        19        20     9      180.000000        0.118586         4
        18        16        19        21     9        0.000000        0.153995         1
        18        16        19        21     9      180.000000        0.074083         2
        18        16        19        21     9        0.000000        0.216161         3
        18        16        19        21     9      180.000000        0.118586         4
        18        16        19        34     9        0.000000       -0.247860         1
        18        16        19        34     9      180.000000        0.091724         2
        18        16        19        34     9        0.000000        0.276776         3
        18        16        19        34     9      180.000000       -0.015059         4
        28         5         6        29     9        0.000000       -0.105271         1
        28         5         6        29     9      180.000000       13.029723         2
        28         5         6        29     9        0.000000       -0.799010         3
        28         5         6        29     9      180.000000        0.271873         4
        30        10        11        31     9        0.000000       -0.118813         1
        30        10        11        31     9      180.000000       11.947974         2
        30        10        11        31     9        0.000000       -0.588118         3
        30        10        11        31     9      180.000000        0.208989         4
        31        11        12        32     9        0.000000       -0.174245         1
        31        11        12        32     9      180.000000       11.809367         2
        31        11        12        32     9        0.000000       -0.635349         3
        31        11        12        32     9      180.000000        0.287123         4

[ dihedrals ] ; impropers
;       ai        aj        ak        al funct           phase               k        pn
         5         4         6        28     4      180.000000        0.211544         2
         5         6        28         4     4      180.000000        0.211544         2
         5        28         4         6     4      180.000000        0.211544         2

[ pairs ]
;       ai        aj funct
         1         5     1
         1         7     1
         1        16     1
         1        22     1
         2         5     1
         2         9     1
         2        16     1
         2        25     1
         2        26     1
         2        27     1
         2        29     1
         3         6     1
         3         8     1
         3        17     1
         3        18     1
         3        19     1
         3        23     1
         3        28     1
         4         7     1
         4        20     1
         4        21     1
         4        22     1
         4        25     1
         4        26     1
         4        27     1
         4        29     1
         4        34     1
         5         8     1
         5        17     1
         5        18     1
         5        19     1
         6         9     1
         6        16     1
         6        22     1
         7        10     1
         7        15     1
         7        23     1
         7        28     1
         8        11     1
         8        13     1
         8        22     1
         8        29     1
         8        30     1
         8        33     1
         9        12     1
         9        14     1
         9        31     1
        10        13     1
        10        32     1
        10        33     1
        11        14     1
        11        15     1
        12        24     1
        12        30     1
        12        33     1
        13        31     1
        14        32     1
        14        33     1
        15        24     1
        15        30     1
        15        32     1
        16        28     1
        17        20     1
        17        21     1
        17        34     1
        18        20     1
        18        21     1
        18        34     1
        28        29     1
        30        31     1
        31        32     1
