; ITP file created by ByteFF-ML, 2026-02-21 07:40:13.448674

[ atomtypes ]
;name           bonded.type        at.num        mass        charge   ptype           sigma         epsilon
 o0bf                                   8      0.0000       0.00000       A     3.23922e-01     3.89355e-01
 c1bf                                   6      0.0000       0.00000       A     3.40016e-01     4.49167e-01
 c2bf                                   6      0.0000       0.00000       A     3.39406e-01     4.47168e-01
 c3bf                                   6      0.0000       0.00000       A     3.39596e-01     4.49514e-01
 c4bf                                   6      0.0000       0.00000       A     3.31720e-01     4.10696e-01
 c5bf                                   6      0.0000       0.00000       A     3.31563e-01     4.13550e-01
 c6bf                                   6      0.0000       0.00000       A     3.31498e-01     4.10139e-01
 c7bf                                   6      0.0000       0.00000       A     3.31342e-01     4.13944e-01
 c8bf                                   6      0.0000       0.00000       A     3.31341e-01     4.12779e-01
 c9bf                                   6      0.0000       0.00000       A     3.31484e-01     4.11886e-01
 o10bf                                  8      0.0000       0.00000       A     3.15905e-01     3.06626e-01
 c11bf                                  6      0.0000       0.00000       A     3.31461e-01     4.12807e-01
 c12bf                                  6      0.0000       0.00000       A     3.31497e-01     4.13743e-01
 c13bf                                  6      0.0000       0.00000       A     3.31573e-01     4.14252e-01
 f14bf                                  9      0.0000       0.00000       A     3.03468e-01     3.48235e-01
 c15bf                                  6      0.0000       0.00000       A     3.31552e-01     4.14123e-01
 c16bf                                  6      0.0000       0.00000       A     3.31534e-01     4.14279e-01
 c17bf                                  6      0.0000       0.00000       A     3.48195e-01     6.71490e-01
 c18bf                                  6      0.0000       0.00000       A     3.31496e-01     4.14341e-01
 s19bf                                 16      0.0000       0.00000       A     4.06060e-01     2.59433e-01
 o20bf                                  8      0.0000       0.00000       A     3.05085e-01     6.12755e-01
 o21bf                                  8      0.0000       0.00000       A     3.05085e-01     6.12755e-01
 f22bf                                  9      0.0000       0.00000       A     3.03601e-01     3.46535e-01
 n23bf                                  7      0.0000       0.00000       A     3.27424e-01     4.58548e-01
 f24bf                                  9      0.0000       0.00000       A     3.03960e-01     3.49487e-01
 n25bf                                  7      0.0000       0.00000       A     3.64699e-01     1.40762e-01
 h26bf                                  1      0.0000       0.00000       A     5.37016e-02     1.95981e-02
 h27bf                                  1      0.0000       0.00000       A     2.41648e-01     8.68485e-02
 h28bf                                  1      0.0000       0.00000       A     2.42449e-01     8.71023e-02
 h29bf                                  1      0.0000       0.00000       A     2.41246e-01     8.92187e-02
 h30bf                                  1      0.0000       0.00000       A     2.62799e-01     6.77388e-02
 h31bf                                  1      0.0000       0.00000       A     2.62431e-01     6.72328e-02
 h32bf                                  1      0.0000       0.00000       A     2.62432e-01     6.69886e-02
 h33bf                                  1      0.0000       0.00000       A     2.62464e-01     6.71849e-02
 h34bf                                  1      0.0000       0.00000       A     2.62428e-01     6.73733e-02
 h35bf                                  1      0.0000       0.00000       A     1.10142e-01     3.92266e-02
 h36bf                                  1      0.0000       0.00000       A     1.10142e-01     3.92266e-02

[ moleculetype ]
;name             nrexcl
 336                   3

[ atoms ]
;       nr            type      resi   res      atom      cgnr      charge          mass ; qtot
         1            o0bf         1   UNL        o0         1    -0.64747       15.9990 ; qtot   -0.647
         2            c1bf         1   UNL        c1         2     0.19485       12.0110 ; qtot   -0.453
         3            c2bf         1   UNL        c2         3     0.14269       12.0110 ; qtot   -0.310
         4            c3bf         1   UNL        c3         4     0.23796       12.0110 ; qtot   -0.072
         5            c4bf         1   UNL        c4         5    -0.16031       12.0110 ; qtot   -0.232
         6            c5bf         1   UNL        c5         6     0.03049       12.0110 ; qtot   -0.202
         7            c6bf         1   UNL        c6         7    -0.24693       12.0110 ; qtot   -0.449
         8            c7bf         1   UNL        c7         8     0.01784       12.0110 ; qtot   -0.431
         9            c8bf         1   UNL        c8         9    -0.15708       12.0110 ; qtot   -0.588
        10            c9bf         1   UNL        c9        10     0.17654       12.0110 ; qtot   -0.411
        11           o10bf         1   UNL       o10        11    -0.23781       15.9990 ; qtot   -0.649
        12           c11bf         1   UNL       c11        12     0.15133       12.0110 ; qtot   -0.498
        13           c12bf         1   UNL       c12        13    -0.16635       12.0110 ; qtot   -0.664
        14           c13bf         1   UNL       c13        14     0.19192       12.0110 ; qtot   -0.472
        15           f14bf         1   UNL       f14        15    -0.16215       18.9980 ; qtot   -0.634
        16           c15bf         1   UNL       c15        16    -0.13469       12.0110 ; qtot   -0.769
        17           c16bf         1   UNL       c16        17     0.04075       12.0110 ; qtot   -0.728
        18           c17bf         1   UNL       c17        18     0.31339       12.0110 ; qtot   -0.415
        19           c18bf         1   UNL       c18        19    -0.11736       12.0110 ; qtot   -0.532
        20           s19bf         1   UNL       s19        20     1.06670       32.0670 ; qtot    0.534
        21           o20bf         1   UNL       o20        21    -0.52417       15.9990 ; qtot    0.010
        22           o21bf         1   UNL       o21        22    -0.52417       15.9990 ; qtot   -0.514
        23           f22bf         1   UNL       f22        23    -0.24407       18.9980 ; qtot   -0.758
        24           n23bf         1   UNL       n23        24    -0.43909       14.0070 ; qtot   -1.197
        25           f24bf         1   UNL       f24        25    -0.24834       18.9980 ; qtot   -1.446
        26           n25bf         1   UNL       n25        26    -0.95612       14.0070 ; qtot   -2.402
        27           h26bf         1   UNL       h26        27     0.45857        1.0080 ; qtot   -1.943
        28           h27bf         1   UNL       h27        28     0.09033        1.0080 ; qtot   -1.853
        29           h28bf         1   UNL       h28        29     0.09009        1.0080 ; qtot   -1.763
        30           h29bf         1   UNL       h29        30     0.09238        1.0080 ; qtot   -1.670
        31           h30bf         1   UNL       h30        31     0.14796        1.0080 ; qtot   -1.522
        32           h31bf         1   UNL       h31        32     0.13839        1.0080 ; qtot   -1.384
        33           h32bf         1   UNL       h32        33     0.15329        1.0080 ; qtot   -1.231
        34           h33bf         1   UNL       h33        34     0.14757        1.0080 ; qtot   -1.083
        35           h34bf         1   UNL       h34        35     0.14589        1.0080 ; qtot   -0.937
        36           h35bf         1   UNL       h35        36     0.46858        1.0080 ; qtot   -0.469
        37           h36bf         1   UNL       h36        37     0.46860        1.0080 ; qtot   -0.000

[ bonds ]
;       ai        aj funct               r               k
         1         2     1        0.142451   210666.813257
         1        27     1        0.097163   464031.341406
         2         3     1        0.154588   155854.868262
         2         6     1        0.152078   169540.741455
         2        28     1        0.109481   296932.637109
         3         4     1        0.154032   164179.582861
         3        23     1        0.139553   223215.225293
         3        29     1        0.109098   312222.266309
         4         5     1        0.150297   191729.859180
         4        25     1        0.140384   212461.152710
         4        30     1        0.109232   305820.138525
         5         6     1        0.139582   287487.711670
         5        10     1        0.139522   295626.439502
         6         7     1        0.139875   291009.457813
         7         8     1        0.139819   297929.120654
         7        20     1        0.180200   128854.265454
         8         9     1        0.139463   319930.821533
         8        31     1        0.108388   326985.447998
         9        10     1        0.139957   292486.549756
         9        32     1        0.108399   325784.922949
        10        11     1        0.137753   247211.527637
        11        12     1        0.137650   247453.900342
        12        13     1        0.139961   293934.708154
        12        19     1        0.139702   295896.749805
        13        14     1        0.139111   310051.892920
        13        33     1        0.108374   328151.165967
        14        15     1        0.135083   300333.720410
        14        16     1        0.138892   307835.578271
        16        17     1        0.140515   294475.124463
        16        34     1        0.108386   329357.334717
        17        18     1        0.143765   270871.863770
        17        19     1        0.140387   298138.014209
        18        24     1        0.116512  1108338.024805
        19        35     1        0.108395   327534.189404
        20        21     1        0.146517   523268.343945
        20        22     1        0.146517   523268.343945
        20        26     1        0.169760   163523.687744
        26        36     1        0.101911   405370.711426
        26        37     1        0.101911   405370.711426

[ angles ]
;       ai        aj        ak funct           theta             cth
         1         2         3     1      111.945129      547.340057
         1         2         6     1      112.087364      635.508970
         1         2        28     1      108.493065      414.004010
         2         1        27     1      107.885254      569.689497
         2         3         4     1      105.852219      594.727675
         2         3        23     1      110.056763      586.334074
         2         3        29     1      111.748535      435.802838
         2         6         5     1      110.386086      399.995852
         2         6         7     1      129.998123      420.792987
         3         2         6     1      102.501114      541.030668
         3         2        28     1      109.586342      446.719122
         3         4         5     1      102.860336      503.762193
         3         4        25     1      110.237526      585.460450
         3         4        30     1      111.490196      440.741236
         4         3        23     1      110.090073      573.520893
         4         3        29     1      111.537643      440.380397
         4         5         6     1      111.127975      442.814945
         4         5        10     1      128.418518      534.427282
         5         4        25     1      110.912186      604.190260
         5         4        30     1      113.796341      418.545402
         5         6         7     1      119.352295      627.344118
         5        10         9     1      119.285851      659.473058
         5        10        11     1      118.778931      426.587900
         6         2        28     1      111.194191      430.355645
         6         5        10     1      121.057922      669.278159
         6         7         8     1      119.959885      697.998788
         6         7        20     1      121.825340      551.277114
         7         8         9     1      120.585587      627.324327
         7         8        31     1      119.489502      368.801060
         7        20        21     1      107.921165      621.317999
         7        20        22     1      107.921165      621.317999
         7        20        26     1      102.633347      545.951924
         8         7        20     1      117.793777      530.450962
         8         9        10     1      119.919167      708.266238
         8         9        32     1      120.639908      419.329136
         9         8        31     1      120.399269      395.728410
         9        10        11     1      121.619095      528.797083
        10         9        32     1      119.690872      429.918258
        10        11        12     1      119.085060      428.280882
        11        12        13     1      119.279945      518.229253
        11        12        19     1      119.567528      501.255758
        12        13        14     1      118.171036      766.741494
        12        13        33     1      121.308182      417.404883
        12        19        17     1      118.959595      688.354954
        12        19        35     1      120.280678      422.219011
        13        12        19     1      120.802040      630.818314
        13        14        15     1      118.343826      541.971774
        13        14        16     1      122.953712      628.021298
        14        13        33     1      120.554909      416.906303
        14        16        17     1      117.516953      637.448450
        14        16        34     1      120.746925      422.893797
        15        14        16     1      118.731651      524.645196
        16        17        18     1      119.386719      476.745240
        16        17        19     1      121.187233      684.585996
        17        16        34     1      121.582848      413.830549
        17        18        24     1      179.655121      167.360000
        17        19        35     1      120.651222      407.470181
        18        17        19     1      119.288147      472.497366
        20        26        36     1      109.690613      599.942672
        20        26        37     1      109.690613      599.942672
        21        20        22     1      122.124596      701.802285
        21        20        26     1      106.832863      752.291512
        22        20        26     1      106.832863      752.291512
        23         3        29     1      107.384483      455.359156
        25         4        30     1      106.633774      435.128913
        36        26        37     1      111.526405      393.964562

[ dihedrals ] ; propers for gromacs 4.5 or higher, use funct 9
;       ai        aj        ak        al funct           phase               k        pn
         1         2         3         4     9        0.000000       -2.027602         1
         1         2         3         4     9      180.000000        0.729555         2
         1         2         3         4     9        0.000000        0.269329         3
         1         2         3         4     9      180.000000       -0.055395         4
         1         2         3        23     9        0.000000        1.123858         1
         1         2         3        23     9      180.000000       -1.556060         2
         1         2         3        23     9        0.000000        0.824574         3
         1         2         3        23     9      180.000000       -0.118870         4
         1         2         3        29     9        0.000000        0.407425         1
         1         2         3        29     9      180.000000       -0.204488         2
         1         2         3        29     9        0.000000        0.579413         3
         1         2         3        29     9      180.000000        0.001288         4
         1         2         6         5     9        0.000000       -2.131537         1
         1         2         6         5     9      180.000000        3.187395         2
         1         2         6         5     9        0.000000        0.184752         3
         1         2         6         5     9      180.000000        1.194624         4
         1         2         6         7     9        0.000000       -1.007404         1
         1         2         6         7     9      180.000000        2.271008         2
         1         2         6         7     9        0.000000        0.240713         3
         1         2         6         7     9      180.000000        0.399868         4
         2         3         4         5     9        0.000000       -0.656752         1
         2         3         4         5     9      180.000000        5.118087         2
         2         3         4         5     9        0.000000       -0.159203         3
         2         3         4         5     9      180.000000       -1.275566         4
         2         3         4        25     9        0.000000       -0.371701         1
         2         3         4        25     9      180.000000        0.073458         2
         2         3         4        25     9        0.000000        0.204340         3
         2         3         4        25     9      180.000000        0.160553         4
         2         3         4        30     9        0.000000        0.006930         1
         2         3         4        30     9      180.000000        0.220157         2
         2         3         4        30     9        0.000000        0.049764         3
         2         3         4        30     9      180.000000        0.057573         4
         2         6         5         4     9        0.000000        0.074192         1
         2         6         5         4     9      180.000000       18.759034         2
         2         6         5         4     9        0.000000       -2.932996         3
         2         6         5         4     9      180.000000       -0.480868         4
         2         6         5        10     9        0.000000        0.002130         1
         2         6         5        10     9      180.000000       13.863720         2
         2         6         5        10     9        0.000000       -1.444540         3
         2         6         5        10     9      180.000000       -0.243562         4
         2         6         7         8     9        0.000000        0.052090         1
         2         6         7         8     9      180.000000       13.813190         2
         2         6         7         8     9        0.000000       -0.185363         3
         2         6         7         8     9      180.000000       -0.397734         4
         2         6         7        20     9        0.000000       -0.350625         1
         2         6         7        20     9      180.000000       10.034894         2
         2         6         7        20     9        0.000000        0.393280         3
         2         6         7        20     9      180.000000       -0.518570         4
         3         2         1        27     9        0.000000        1.843917         1
         3         2         1        27     9      180.000000       -2.996369         2
         3         2         1        27     9        0.000000        0.780474         3
         3         2         1        27     9      180.000000        0.217724         4
         3         2         6         5     9        0.000000       -0.804398         1
         3         2         6         5     9      180.000000       12.178199         2
         3         2         6         5     9        0.000000       -1.217843         3
         3         2         6         5     9      180.000000        0.129074         4
         3         2         6         7     9        0.000000       -0.537869         1
         3         2         6         7     9      180.000000        1.201259         2
         3         2         6         7     9        0.000000       -0.076206         3
         3         2         6         7     9      180.000000        0.742166         4
         3         4         5         6     9        0.000000       -0.888038         1
         3         4         5         6     9      180.000000       14.755015         2
         3         4         5         6     9        0.000000       -1.947017         3
         3         4         5         6     9      180.000000       -1.056066         4
         3         4         5        10     9        0.000000       -0.119843         1
         3         4         5        10     9      180.000000        1.339921         2
         3         4         5        10     9        0.000000       -0.027509         3
         3         4         5        10     9      180.000000        0.583804         4
         4         3         2         6     9        0.000000       -0.863579         1
         4         3         2         6     9      180.000000        5.424648         2
         4         3         2         6     9        0.000000       -0.051163         3
         4         3         2         6     9      180.000000       -1.269094         4
         4         3         2        28     9        0.000000       -0.102273         1
         4         3         2        28     9      180.000000        0.203669         2
         4         3         2        28     9        0.000000        0.231166         3
         4         3         2        28     9      180.000000       -0.024649         4
         4         5         6         7     9        0.000000        0.031998         1
         4         5         6         7     9      180.000000       13.168282         2
         4         5         6         7     9        0.000000       -1.431134         3
         4         5         6         7     9      180.000000       -0.030699         4
         4         5        10         9     9        0.000000       -0.032938         1
         4         5        10         9     9      180.000000       11.327174         2
         4         5        10         9     9        0.000000       -0.090551         3
         4         5        10         9     9      180.000000       -0.121914         4
         4         5        10        11     9        0.000000        0.163841         1
         4         5        10        11     9      180.000000       14.247885         2
         4         5        10        11     9        0.000000        0.391801         3
         4         5        10        11     9      180.000000       -0.221325         4
         5         4         3        23     9        0.000000       -0.730669         1
         5         4         3        23     9      180.000000        0.479807         2
         5         4         3        23     9        0.000000        0.407077         3
         5         4         3        23     9      180.000000        0.236204         4
         5         4         3        29     9        0.000000        0.565739         1
         5         4         3        29     9      180.000000        0.000472         2
         5         4         3        29     9        0.000000        0.318167         3
         5         4         3        29     9      180.000000        0.056813         4
         5         6         2        28     9        0.000000        1.257682         1
         5         6         2        28     9      180.000000        0.690394         2
         5         6         2        28     9        0.000000       -0.268180         3
         5         6         2        28     9      180.000000        0.588487         4
         5         6         7         8     9        0.000000        0.048461         1
         5         6         7         8     9      180.000000       19.287099         2
         5         6         7         8     9        0.000000       -1.687681         3
         5         6         7         8     9      180.000000       -0.532630         4
         5         6         7        20     9        0.000000       -0.523434         1
         5         6         7        20     9      180.000000       12.678653         2
         5         6         7        20     9        0.000000       -0.068629         3
         5         6         7        20     9      180.000000       -0.561295         4
         5        10         9         8     9        0.000000       -0.162306         1
         5        10         9         8     9      180.000000       17.785444         2
         5        10         9         8     9        0.000000       -1.206092         3
         5        10         9         8     9      180.000000       -0.478963         4
         5        10         9        32     9        0.000000       -0.024187         1
         5        10         9        32     9      180.000000       13.539991         2
         5        10         9        32     9        0.000000       -0.327911         3
         5        10         9        32     9      180.000000        0.018230         4
         5        10        11        12     9        0.000000       -0.228423         1
         5        10        11        12     9      180.000000        4.255013         2
         5        10        11        12     9        0.000000        0.253473         3
         5        10        11        12     9      180.000000        0.059085         4
         6         2         1        27     9        0.000000        4.962672         1
         6         2         1        27     9      180.000000       -2.866666         2
         6         2         1        27     9        0.000000        0.871698         3
         6         2         1        27     9      180.000000        0.172162         4
         6         2         3        23     9        0.000000       -0.574072         1
         6         2         3        23     9      180.000000        0.393165         2
         6         2         3        23     9        0.000000        0.360922         3
         6         2         3        23     9      180.000000        0.234188         4
         6         2         3        29     9        0.000000        0.354483         1
         6         2         3        29     9      180.000000        0.345823         2
         6         2         3        29     9        0.000000        0.280620         3
         6         2         3        29     9      180.000000        0.003032         4
         6         5         4        25     9        0.000000        0.511557         1
         6         5         4        25     9      180.000000        2.388721         2
         6         5         4        25     9        0.000000       -0.061227         3
         6         5         4        25     9      180.000000        1.086283         4
         6         5         4        30     9        0.000000        0.619602         1
         6         5         4        30     9      180.000000        0.728650         2
         6         5         4        30     9        0.000000       -0.308731         3
         6         5         4        30     9      180.000000        0.696455         4
         6         5        10         9     9        0.000000       -0.131979         1
         6         5        10         9     9      180.000000       17.351875         2
         6         5        10         9     9        0.000000       -1.191466         3
         6         5        10         9     9      180.000000       -0.570517         4
         6         5        10        11     9        0.000000        0.397731         1
         6         5        10        11     9      180.000000       18.123673         2
         6         5        10        11     9        0.000000        0.233017         3
         6         5        10        11     9      180.000000       -0.673194         4
         6         7         8         9     9        0.000000       -0.125312         1
         6         7         8         9     9      180.000000       19.526643         2
         6         7         8         9     9        0.000000       -1.672613         3
         6         7         8         9     9      180.000000       -0.547406         4
         6         7         8        31     9        0.000000        0.087336         1
         6         7         8        31     9      180.000000       15.171578         2
         6         7         8        31     9        0.000000       -0.504841         3
         6         7         8        31     9      180.000000       -0.139717         4
         6         7        20        21     9        0.000000        0.082036         1
         6         7        20        21     9      180.000000        0.599665         2
         6         7        20        21     9        0.000000        0.913843         3
         6         7        20        21     9      180.000000       -0.103798         4
         6         7        20        22     9        0.000000        0.082036         1
         6         7        20        22     9      180.000000        0.599665         2
         6         7        20        22     9        0.000000        0.913843         3
         6         7        20        22     9      180.000000       -0.103798         4
         6         7        20        26     9        0.000000        0.204965         1
         6         7        20        26     9      180.000000        0.159772         2
         6         7        20        26     9        0.000000        1.701762         3
         6         7        20        26     9      180.000000        0.284347         4
         7         6         2        28     9        0.000000        0.568431         1
         7         6         2        28     9      180.000000        0.291947         2
         7         6         2        28     9        0.000000        0.020501         3
         7         6         2        28     9      180.000000        0.164157         4
         7         6         5        10     9        0.000000       -0.121333         1
         7         6         5        10     9      180.000000       14.350328         2
         7         6         5        10     9        0.000000       -1.824281         3
         7         6         5        10     9      180.000000       -0.126934         4
         7         8         9        10     9        0.000000       -0.184138         1
         7         8         9        10     9      180.000000       18.537408         2
         7         8         9        10     9        0.000000       -1.808798         3
         7         8         9        10     9      180.000000       -0.479983         4
         7         8         9        32     9        0.000000        0.030607         1
         7         8         9        32     9      180.000000       14.724319         2
         7         8         9        32     9        0.000000       -0.642701         3
         7         8         9        32     9      180.000000        0.061239         4
         7        20        26        36     9        0.000000       -6.461711         1
         7        20        26        36     9      180.000000       -6.312500         2
         7        20        26        36     9        0.000000        1.610960         3
         7        20        26        36     9      180.000000        0.424182         4
         7        20        26        37     9        0.000000       -6.461711         1
         7        20        26        37     9      180.000000       -6.312500         2
         7        20        26        37     9        0.000000        1.610960         3
         7        20        26        37     9      180.000000        0.424182         4
         8         7        20        21     9        0.000000       -0.180390         1
         8         7        20        21     9      180.000000        0.607840         2
         8         7        20        21     9        0.000000       -0.192177         3
         8         7        20        21     9      180.000000        0.112135         4
         8         7        20        22     9        0.000000       -0.180390         1
         8         7        20        22     9      180.000000        0.607840         2
         8         7        20        22     9        0.000000       -0.192177         3
         8         7        20        22     9      180.000000        0.112135         4
         8         7        20        26     9        0.000000        1.759839         1
         8         7        20        26     9      180.000000        0.436190         2
         8         7        20        26     9        0.000000       -0.281651         3
         8         7        20        26     9      180.000000        0.444325         4
         8         9        10        11     9        0.000000        0.639342         1
         8         9        10        11     9      180.000000       19.078633         2
         8         9        10        11     9        0.000000        0.450734         3
         8         9        10        11     9      180.000000       -0.288059         4
         9         8         7        20     9        0.000000       -0.176546         1
         9         8         7        20     9      180.000000       13.856327         2
         9         8         7        20     9        0.000000        0.087356         3
         9         8         7        20     9      180.000000       -0.372309         4
         9        10        11        12     9        0.000000        0.429641         1
         9        10        11        12     9      180.000000        4.647060         2
         9        10        11        12     9        0.000000       -0.308037         3
         9        10        11        12     9      180.000000        0.267726         4
        10         5         4        25     9        0.000000       -0.908231         1
        10         5         4        25     9      180.000000        1.569999         2
        10         5         4        25     9        0.000000        0.302829         3
        10         5         4        25     9      180.000000        0.407585         4
        10         5         4        30     9        0.000000        0.668176         1
        10         5         4        30     9      180.000000        0.701424         2
        10         5         4        30     9        0.000000        0.010263         3
        10         5         4        30     9      180.000000        0.095396         4
        10         9         8        31     9        0.000000        0.197818         1
        10         9         8        31     9      180.000000       14.817586         2
        10         9         8        31     9        0.000000       -0.453068         3
        10         9         8        31     9      180.000000        0.063487         4
        10        11        12        13     9        0.000000        0.133503         1
        10        11        12        13     9      180.000000        4.662028         2
        10        11        12        13     9        0.000000       -0.112846         3
        10        11        12        13     9      180.000000        0.279949         4
        10        11        12        19     9        0.000000        0.130138         1
        10        11        12        19     9      180.000000        4.680031         2
        10        11        12        19     9        0.000000       -0.142394         3
        10        11        12        19     9      180.000000        0.304750         4
        11        10         9        32     9        0.000000        0.184443         1
        11        10         9        32     9      180.000000       14.214565         2
        11        10         9        32     9        0.000000        0.048655         3
        11        10         9        32     9      180.000000        0.340782         4
        11        12        13        14     9        0.000000        0.480919         1
        11        12        13        14     9      180.000000       17.849488         2
        11        12        13        14     9        0.000000        0.544042         3
        11        12        13        14     9      180.000000       -0.342217         4
        11        12        13        33     9        0.000000        0.252723         1
        11        12        13        33     9      180.000000       13.456550         2
        11        12        13        33     9        0.000000       -0.050160         3
        11        12        13        33     9      180.000000        0.355864         4
        11        12        19        17     9        0.000000        0.451778         1
        11        12        19        17     9      180.000000       17.361781         2
        11        12        19        17     9        0.000000        0.459900         3
        11        12        19        17     9      180.000000       -0.129978         4
        11        12        19        35     9        0.000000        0.212085         1
        11        12        19        35     9      180.000000       13.560767         2
        11        12        19        35     9        0.000000       -0.030989         3
        11        12        19        35     9      180.000000        0.333491         4
        12        13        14        15     9        0.000000        0.459528         1
        12        13        14        15     9      180.000000       22.775544         2
        12        13        14        15     9        0.000000        0.620336         3
        12        13        14        15     9      180.000000       -0.895479         4
        12        13        14        16     9        0.000000       -0.037834         1
        12        13        14        16     9      180.000000       16.924316         2
        12        13        14        16     9        0.000000       -1.235725         3
        12        13        14        16     9      180.000000       -0.383379         4
        12        19        17        16     9        0.000000       -0.147115         1
        12        19        17        16     9      180.000000       18.104643         2
        12        19        17        16     9        0.000000       -1.723479         3
        12        19        17        16     9      180.000000       -0.396032         4
        12        19        17        18     9        0.000000       -0.086532         1
        12        19        17        18     9      180.000000       16.262249         2
        12        19        17        18     9        0.000000       -0.126424         3
        12        19        17        18     9      180.000000       -0.295179         4
        13        12        19        17     9        0.000000       -0.151288         1
        13        12        19        17     9      180.000000       16.720497         2
        13        12        19        17     9        0.000000       -0.954879         3
        13        12        19        17     9      180.000000       -0.285399         4
        13        12        19        35     9        0.000000        0.129425         1
        13        12        19        35     9      180.000000       12.822899         2
        13        12        19        35     9        0.000000       -0.471795         3
        13        12        19        35     9      180.000000        0.176763         4
        13        14        16        17     9        0.000000       -0.213127         1
        13        14        16        17     9      180.000000       17.562477         2
        13        14        16        17     9        0.000000       -1.146983         3
        13        14        16        17     9      180.000000       -0.459047         4
        13        14        16        34     9        0.000000        0.012917         1
        13        14        16        34     9      180.000000       13.202101         2
        13        14        16        34     9        0.000000       -0.546497         3
        13        14        16        34     9      180.000000        0.094661         4
        14        13        12        19     9        0.000000       -0.098513         1
        14        13        12        19     9      180.000000       16.419685         2
        14        13        12        19     9        0.000000       -1.019756         3
        14        13        12        19     9      180.000000       -0.197813         4
        14        16        17        18     9        0.000000        0.094774         1
        14        16        17        18     9      180.000000       16.943641         2
        14        16        17        18     9        0.000000       -0.003519         3
        14        16        17        18     9      180.000000       -0.413924         4
        14        16        17        19     9        0.000000       -0.159527         1
        14        16        17        19     9      180.000000       18.380973         2
        14        16        17        19     9        0.000000       -1.728032         3
        14        16        17        19     9      180.000000       -0.402124         4
        15        14        13        33     9        0.000000        0.330038         1
        15        14        13        33     9      180.000000       15.871795         2
        15        14        13        33     9        0.000000        0.248138         3
        15        14        13        33     9      180.000000        0.119632         4
        15        14        16        17     9        0.000000        0.384623         1
        15        14        16        17     9      180.000000       22.626144         2
        15        14        16        17     9        0.000000        0.654396         3
        15        14        16        17     9      180.000000       -0.714402         4
        15        14        16        34     9        0.000000        0.323706         1
        15        14        16        34     9      180.000000       15.967908         2
        15        14        16        34     9        0.000000        0.305032         3
        15        14        16        34     9      180.000000        0.124130         4
        16        14        13        33     9        0.000000        0.166901         1
        16        14        13        33     9      180.000000       12.714126         2
        16        14        13        33     9        0.000000       -0.506238         3
        16        14        13        33     9      180.000000        0.156592         4
        16        17        18        24     9        0.000000        0.000000         1
        16        17        18        24     9      180.000000        0.000000         2
        16        17        18        24     9        0.000000        0.000000         3
        16        17        18        24     9      180.000000        0.000000         4
        16        17        19        35     9        0.000000       -0.033626         1
        16        17        19        35     9      180.000000       14.163344         2
        16        17        19        35     9        0.000000       -0.688105         3
        16        17        19        35     9      180.000000        0.029301         4
        18        17        16        34     9        0.000000        0.029971         1
        18        17        16        34     9      180.000000       12.807836         2
        18        17        16        34     9        0.000000       -0.300729         3
        18        17        16        34     9      180.000000        0.113751         4
        18        17        19        35     9        0.000000        0.024029         1
        18        17        19        35     9      180.000000       12.824091         2
        18        17        19        35     9        0.000000       -0.314228         3
        18        17        19        35     9      180.000000        0.157371         4
        19        12        13        33     9        0.000000        0.123404         1
        19        12        13        33     9      180.000000       12.520774         2
        19        12        13        33     9        0.000000       -0.483970         3
        19        12        13        33     9      180.000000        0.186258         4
        19        17        16        34     9        0.000000       -0.016357         1
        19        17        16        34     9      180.000000       14.310019         2
        19        17        16        34     9        0.000000       -0.696961         3
        19        17        16        34     9      180.000000        0.020091         4
        19        17        18        24     9        0.000000        0.000000         1
        19        17        18        24     9      180.000000        0.000000         2
        19        17        18        24     9        0.000000        0.000000         3
        19        17        18        24     9      180.000000        0.000000         4
        20         7         8        31     9        0.000000        0.215658         1
        20         7         8        31     9      180.000000       12.507200         2
        20         7         8        31     9        0.000000       -0.163945         3
        20         7         8        31     9      180.000000       -0.038559         4
        21        20        26        36     9        0.000000        0.580343         1
        21        20        26        36     9      180.000000        0.902632         2
        21        20        26        36     9        0.000000        0.672685         3
        21        20        26        36     9      180.000000        0.014110         4
        21        20        26        37     9        0.000000        0.580343         1
        21        20        26        37     9      180.000000        0.902632         2
        21        20        26        37     9        0.000000        0.672685         3
        21        20        26        37     9      180.000000        0.014110         4
        22        20        26        36     9        0.000000        0.580343         1
        22        20        26        36     9      180.000000        0.902632         2
        22        20        26        36     9        0.000000        0.672685         3
        22        20        26        36     9      180.000000        0.014110         4
        22        20        26        37     9        0.000000        0.580343         1
        22        20        26        37     9      180.000000        0.902632         2
        22        20        26        37     9        0.000000        0.672685         3
        22        20        26        37     9      180.000000        0.014110         4
        23         3         2        28     9        0.000000        0.322401         1
        23         3         2        28     9      180.000000       -0.358135         2
        23         3         2        28     9        0.000000        0.581215         3
        23         3         2        28     9      180.000000       -0.046659         4
        23         3         4        25     9        0.000000       -0.311027         1
        23         3         4        25     9      180.000000       -1.730939         2
        23         3         4        25     9        0.000000        0.579954         3
        23         3         4        25     9      180.000000        0.017706         4
        23         3         4        30     9        0.000000        0.208158         1
        23         3         4        30     9      180.000000       -0.204928         2
        23         3         4        30     9        0.000000        0.601646         3
        23         3         4        30     9      180.000000       -0.029328         4
        25         4         3        29     9        0.000000        0.255440         1
        25         4         3        29     9      180.000000       -0.187188         2
        25         4         3        29     9        0.000000        0.510691         3
        25         4         3        29     9      180.000000       -0.048797         4
        27         1         2        28     9        0.000000        0.336578         1
        27         1         2        28     9      180.000000       -0.233553         2
        27         1         2        28     9        0.000000        0.790281         3
        27         1         2        28     9      180.000000        0.171225         4
        28         2         3        29     9        0.000000       -0.252027         1
        28         2         3        29     9      180.000000       -0.090190         2
        28         2         3        29     9        0.000000        0.623064         3
        28         2         3        29     9      180.000000       -0.054455         4
        29         3         4        30     9        0.000000       -0.127702         1
        29         3         4        30     9      180.000000       -0.057199         2
        29         3         4        30     9        0.000000        0.585417         3
        29         3         4        30     9      180.000000       -0.011503         4
        31         8         9        32     9        0.000000       -0.053624         1
        31         8         9        32     9      180.000000       12.837474         2
        31         8         9        32     9        0.000000       -0.821855         3
        31         8         9        32     9      180.000000        0.228493         4

[ dihedrals ] ; impropers
;       ai        aj        ak        al funct           phase               k        pn
        14        13        15        16     4      180.000000        1.740412         2
        14        15        16        13     4      180.000000        1.740412         2
        14        16        13        15     4      180.000000        1.740412         2

[ pairs ]
;       ai        aj funct
         1         4     1
         1         5     1
         1         7     1
         1        23     1
         1        29     1
         2         8     1
         2        10     1
         2        20     1
         2        25     1
         2        30     1
         3         7     1
         3        10     1
         3        27     1
         4         7     1
         4         9     1
         4        11     1
         4        28     1
         5         8     1
         5        12     1
         5        20     1
         5        23     1
         5        28     1
         5        29     1
         5        32     1
         6         9     1
         6        11     1
         6        21     1
         6        22     1
         6        23     1
         6        25     1
         6        26     1
         6        27     1
         6        29     1
         6        30     1
         6        31     1
         7        10     1
         7        28     1
         7        32     1
         7        36     1
         7        37     1
         8        11     1
         8        21     1
         8        22     1
         8        26     1
         9        12     1
         9        20     1
        10        13     1
        10        19     1
        10        25     1
        10        30     1
        10        31     1
        11        14     1
        11        17     1
        11        32     1
        11        33     1
        11        35     1
        12        15     1
        12        16     1
        12        18     1
        13        17     1
        13        34     1
        13        35     1
        14        18     1
        14        19     1
        15        17     1
        15        33     1
        15        34     1
        16        24     1
        16        33     1
        16        35     1
        18        34     1
        18        35     1
        19        24     1
        19        33     1
        19        34     1
        20        31     1
        21        36     1
        21        37     1
        22        36     1
        22        37     1
        23        25     1
        23        28     1
        23        30     1
        25        29     1
        27        28     1
        28        29     1
        29        30     1
        31        32     1
