; ITP file created by ByteFF-ML, 2026-02-21 07:41:03.737894

[ atomtypes ]
;name           bonded.type        at.num        mass        charge   ptype           sigma         epsilon
 c0bf                                   6      0.0000       0.00000       A     3.40003e-01     4.50706e-01
 c1bf                                   6      0.0000       0.00000       A     3.31441e-01     4.16922e-01
 c2bf                                   6      0.0000       0.00000       A     3.31563e-01     4.14652e-01
 c3bf                                   6      0.0000       0.00000       A     3.31632e-01     4.12969e-01
 c4bf                                   6      0.0000       0.00000       A     3.31437e-01     4.14458e-01
 c5bf                                   6      0.0000       0.00000       A     3.31455e-01     4.13518e-01
 c6bf                                   6      0.0000       0.00000       A     3.31603e-01     4.11989e-01
 o7bf                                   8      0.0000       0.00000       A     3.16010e-01     3.07409e-01
 c8bf                                   6      0.0000       0.00000       A     3.31499e-01     4.12678e-01
 c9bf                                   6      0.0000       0.00000       A     3.31476e-01     4.13674e-01
 c10bf                                  6      0.0000       0.00000       A     3.31507e-01     4.13830e-01
 c11bf                                  6      0.0000       0.00000       A     3.31531e-01     4.12809e-01
 c12bf                                  6      0.0000       0.00000       A     3.31451e-01     4.12357e-01
 cl13bf                                17      0.0000       0.00000       A     3.46680e-01     1.10314e+00
 c14bf                                  6      0.0000       0.00000       A     3.31433e-01     4.12921e-01
 s15bf                                 16      0.0000       0.00000       A     4.06657e-01     2.55944e-01
 o16bf                                  8      0.0000       0.00000       A     3.05258e-01     6.13033e-01
 o17bf                                  8      0.0000       0.00000       A     3.05258e-01     6.13033e-01
 c18bf                                  6      0.0000       0.00000       A     3.40010e-01     4.52708e-01
 f19bf                                  9      0.0000       0.00000       A     3.03109e-01     3.45246e-01
 f20bf                                  9      0.0000       0.00000       A     3.03109e-01     3.45246e-01
 cl21bf                                17      0.0000       0.00000       A     3.46875e-01     1.10046e+00
 o22bf                                  8      0.0000       0.00000       A     3.24033e-01     3.87026e-01
 f23bf                                  9      0.0000       0.00000       A     3.03490e-01     3.47565e-01
 h24bf                                  1      0.0000       0.00000       A     2.42181e-01     8.84222e-02
 h25bf                                  1      0.0000       0.00000       A     2.42181e-01     8.84222e-02
 h26bf                                  1      0.0000       0.00000       A     2.62760e-01     6.80213e-02
 h27bf                                  1      0.0000       0.00000       A     2.62359e-01     6.70541e-02
 h28bf                                  1      0.0000       0.00000       A     2.62432e-01     6.69886e-02
 h29bf                                  1      0.0000       0.00000       A     2.62494e-01     6.73860e-02
 h30bf                                  1      0.0000       0.00000       A     2.62455e-01     6.71195e-02
 h31bf                                  1      0.0000       0.00000       A     2.06356e-01     8.82610e-02
 h32bf                                  1      0.0000       0.00000       A     5.36245e-02     2.02605e-02

[ moleculetype ]
;name             nrexcl
 41_flip               3

[ atoms ]
;       nr            type      resi   res      atom      cgnr      charge          mass ; qtot
         1            c0bf         1   UNL        c0         1     0.20393       12.0110 ; qtot    0.204
         2            c1bf         1   UNL        c1         2     0.10179       12.0110 ; qtot    0.306
         3            c2bf         1   UNL        c2         3     0.02416       12.0110 ; qtot    0.330
         4            c3bf         1   UNL        c3         4    -0.22087       12.0110 ; qtot    0.109
         5            c4bf         1   UNL        c4         5    -0.00484       12.0110 ; qtot    0.104
         6            c5bf         1   UNL        c5         6    -0.13626       12.0110 ; qtot   -0.032
         7            c6bf         1   UNL        c6         7     0.13842       12.0110 ; qtot    0.106
         8            o7bf         1   UNL        o7         8    -0.23837       15.9990 ; qtot   -0.132
         9            c8bf         1   UNL        c8         9     0.16189       12.0110 ; qtot    0.030
        10            c9bf         1   UNL        c9        10    -0.18405       12.0110 ; qtot   -0.154
        11           c10bf         1   UNL       c10        11     0.19848       12.0110 ; qtot    0.044
        12           c11bf         1   UNL       c11        12    -0.15953       12.0110 ; qtot   -0.115
        13           c12bf         1   UNL       c12        13     0.16854       12.0110 ; qtot    0.053
        14          cl13bf         1   UNL      cl13        14    -0.19362       35.4530 ; qtot   -0.140
        15           c14bf         1   UNL       c14        15    -0.14722       12.0110 ; qtot   -0.288
        16           s15bf         1   UNL       s15        16     0.93760       32.0670 ; qtot    0.650
        17           o16bf         1   UNL       o16        17    -0.47215       15.9990 ; qtot    0.178
        18           o17bf         1   UNL       o17        18    -0.47215       15.9990 ; qtot   -0.294
        19           c18bf         1   UNL       c18        19     0.04879       12.0110 ; qtot   -0.245
        20           f19bf         1   UNL       f19        20    -0.09019       18.9980 ; qtot   -0.336
        21           f20bf         1   UNL       f20        21    -0.09019       18.9980 ; qtot   -0.426
        22          cl21bf         1   UNL      cl21        22    -0.17586       35.4530 ; qtot   -0.602
        23           o22bf         1   UNL       o22        23    -0.66203       15.9990 ; qtot   -1.264
        24           f23bf         1   UNL       f23        24    -0.16767       18.9980 ; qtot   -1.431
        25           h24bf         1   UNL       h24        25     0.06330        1.0080 ; qtot   -1.368
        26           h25bf         1   UNL       h25        26     0.06330        1.0080 ; qtot   -1.305
        27           h26bf         1   UNL       h26        27     0.15408        1.0080 ; qtot   -1.151
        28           h27bf         1   UNL       h27        28     0.14096        1.0080 ; qtot   -1.010
        29           h28bf         1   UNL       h28        29     0.15220        1.0080 ; qtot   -0.858
        30           h29bf         1   UNL       h29        30     0.15184        1.0080 ; qtot   -0.706
        31           h30bf         1   UNL       h30        31     0.14886        1.0080 ; qtot   -0.557
        32           h31bf         1   UNL       h31        32     0.10649        1.0080 ; qtot   -0.450
        33           h32bf         1   UNL       h32        33     0.45037        1.0080 ; qtot   -0.000

[ bonds ]
;       ai        aj funct               r               k
         1         3     1        0.151982   179842.462451
         1        23     1        0.142844   210692.426978
         1        25     1        0.109258   301002.716064
         1        26     1        0.109258   301002.716064
         2         3     1        0.140386   274337.147363
         2         7     1        0.140574   267637.895313
         2        22     1        0.175113   150974.701123
         3         4     1        0.141127   264121.052295
         4         5     1        0.139517   303787.844287
         4        16     1        0.180905   119652.951270
         5         6     1        0.139256   324824.242432
         5        27     1        0.108362   328329.721436
         6         7     1        0.139620   296532.725977
         6        28     1        0.108420   325745.417041
         7         8     1        0.137685   247782.409717
         8         9     1        0.137945   242566.991406
         9        10     1        0.139842   296761.078809
         9        15     1        0.139878   293831.410547
        10        11     1        0.139024   313529.434326
        10        29     1        0.108349   328619.618701
        11        12     1        0.139159   303726.478613
        11        24     1        0.135316   295881.989355
        12        13     1        0.139621   301625.770459
        12        30     1        0.108325   330266.123828
        13        14     1        0.175353   151234.707202
        13        15     1        0.139502   308685.759717
        15        31     1        0.108316   328834.462402
        16        17     1        0.146727   520794.717383
        16        18     1        0.146727   520794.768457
        16        19     1        0.188129   131094.878662
        19        20     1        0.135555   266652.980078
        19        21     1        0.135555   266652.980078
        19        32     1        0.109155   319785.949512
        23        33     1        0.097153   465648.351172

[ angles ]
;       ai        aj        ak funct           theta             cth
         1         3         2     1      120.139404      504.859778
         1         3         4     1      123.658348      444.249843
         1        23        33     1      107.625870      583.878298
         2         3         4     1      116.186119      590.057257
         2         7         6     1      119.647583      572.412072
         2         7         8     1      119.954483      364.403378
         3         1        23     1      111.192993      649.233635
         3         1        25     1      109.564110      462.541564
         3         1        26     1      109.564110      462.541564
         3         2         7     1      121.835342      640.906047
         3         2        22     1      120.866310      343.026104
         3         4         5     1      122.217819      673.295976
         3         4        16     1      122.330734      505.830380
         4         5         6     1      119.812912      632.850557
         4         5        27     1      119.911781      363.089271
         4        16        17     1      109.331017      613.196177
         4        16        18     1      109.331017      613.196177
         4        16        19     1      102.821938      550.731896
         5         4        16     1      115.143448      554.100943
         5         6         7     1      119.858536      720.481659
         5         6        28     1      121.042664      418.068624
         6         5        27     1      120.825356      398.398155
         6         7         8     1      120.285110      490.904897
         7         2        22     1      117.486679      342.458287
         7         6        28     1      118.985458      419.735910
         7         8         9     1      118.573013      430.164787
         8         9        10     1      119.314255      518.995973
         8         9        15     1      119.264786      520.103134
         9        10        11     1      117.691429      762.232343
         9        10        29     1      121.517960      420.694414
         9        15        13     1      118.402451      723.382866
         9        15        31     1      120.567307      422.328693
        10         9        15     1      121.368568      595.802021
        10        11        12     1      123.345749      597.630159
        10        11        24     1      118.339966      543.602446
        11        10        29     1      120.739975      420.515494
        11        12        13     1      117.020103      665.933627
        11        12        30     1      120.856552      424.003895
        12        11        24     1      118.342018      543.320580
        12        13        14     1      118.932083      369.413536
        12        13        15     1      122.162613      626.672045
        13        12        30     1      122.166687      405.876857
        13        15        31     1      121.146500      394.349182
        14        13        15     1      118.917458      376.731354
        16        19        20     1      108.959946      512.821770
        16        19        21     1      108.959946      512.821770
        16        19        32     1      108.671288      474.982414
        17        16        18     1      121.463051      720.854884
        17        16        19     1      105.655907      445.755032
        18        16        19     1      105.655907      445.755032
        20        19        21     1      108.754395      734.916063
        20        19        32     1      110.548447      439.039762
        21        19        32     1      110.548447      439.039762
        23         1        25     1      109.012573      444.097291
        23         1        26     1      109.012573      444.097227
        25         1        26     1      107.750168      332.714443

[ dihedrals ] ; propers for gromacs 4.5 or higher, use funct 9
;       ai        aj        ak        al funct           phase               k        pn
         1         3         2         7     9        0.000000        0.201736         1
         1         3         2         7     9      180.000000       14.456454         2
         1         3         2         7     9        0.000000       -0.112158         3
         1         3         2         7     9      180.000000       -0.371796         4
         1         3         2        22     9        0.000000        0.240468         1
         1         3         2        22     9      180.000000       16.631780         2
         1         3         2        22     9        0.000000        0.096916         3
         1         3         2        22     9      180.000000       -0.627761         4
         1         3         4         5     9        0.000000        0.134611         1
         1         3         4         5     9      180.000000       15.549408         2
         1         3         4         5     9        0.000000       -0.195412         3
         1         3         4         5     9      180.000000       -0.513594         4
         1         3         4        16     9        0.000000       -0.022945         1
         1         3         4        16     9      180.000000       11.482447         2
         1         3         4        16     9        0.000000        0.179115         3
         1         3         4        16     9      180.000000       -0.561609         4
         2         3         1        23     9        0.000000        0.714940         1
         2         3         1        23     9      180.000000       -0.289864         2
         2         3         1        23     9        0.000000        0.307706         3
         2         3         1        23     9      180.000000        0.165517         4
         2         3         1        25     9        0.000000       -0.023585         1
         2         3         1        25     9      180.000000        0.216674         2
         2         3         1        25     9        0.000000        0.023350         3
         2         3         1        25     9      180.000000       -0.066312         4
         2         3         1        26     9        0.000000       -0.023585         1
         2         3         1        26     9      180.000000        0.216674         2
         2         3         1        26     9        0.000000        0.023350         3
         2         3         1        26     9      180.000000       -0.066312         4
         2         3         4         5     9        0.000000        0.096560         1
         2         3         4         5     9      180.000000       18.391096         2
         2         3         4         5     9        0.000000       -1.464758         3
         2         3         4         5     9      180.000000       -0.549514         4
         2         3         4        16     9        0.000000       -0.179488         1
         2         3         4        16     9      180.000000       11.189429         2
         2         3         4        16     9        0.000000        0.192563         3
         2         3         4        16     9      180.000000       -0.568509         4
         2         7         6         5     9        0.000000       -0.006918         1
         2         7         6         5     9      180.000000       17.331755         2
         2         7         6         5     9        0.000000       -1.046661         3
         2         7         6         5     9      180.000000       -0.379861         4
         2         7         6        28     9        0.000000       -0.015332         1
         2         7         6        28     9      180.000000       12.954638         2
         2         7         6        28     9        0.000000       -0.537299         3
         2         7         6        28     9      180.000000        0.084975         4
         2         7         8         9     9        0.000000        2.226235         1
         2         7         8         9     9      180.000000        2.772807         2
         2         7         8         9     9        0.000000        0.739672         3
         2         7         8         9     9      180.000000       -0.083046         4
         3         1        23        33     9        0.000000        2.305619         1
         3         1        23        33     9      180.000000       -2.845592         2
         3         1        23        33     9        0.000000        0.781503         3
         3         1        23        33     9      180.000000        0.234148         4
         3         2         7         6     9        0.000000       -0.069695         1
         3         2         7         6     9      180.000000       14.964270         2
         3         2         7         6     9        0.000000       -0.815756         3
         3         2         7         6     9      180.000000       -0.246905         4
         3         2         7         8     9        0.000000        0.427686         1
         3         2         7         8     9      180.000000       16.095822         2
         3         2         7         8     9        0.000000        0.121559         3
         3         2         7         8     9      180.000000       -0.201690         4
         3         4         5         6     9        0.000000       -0.028669         1
         3         4         5         6     9      180.000000       18.891248         2
         3         4         5         6     9        0.000000       -1.746724         3
         3         4         5         6     9      180.000000       -0.411084         4
         3         4         5        27     9        0.000000        0.283500         1
         3         4         5        27     9      180.000000       14.788115         2
         3         4         5        27     9        0.000000       -0.576348         3
         3         4         5        27     9      180.000000       -0.014539         4
         3         4        16        17     9        0.000000        0.479037         1
         3         4        16        17     9      180.000000        0.932470         2
         3         4        16        17     9        0.000000        0.336425         3
         3         4        16        17     9      180.000000       -0.096828         4
         3         4        16        18     9        0.000000        0.479037         1
         3         4        16        18     9      180.000000        0.932471         2
         3         4        16        18     9        0.000000        0.336424         3
         3         4        16        18     9      180.000000       -0.096828         4
         3         4        16        19     9        0.000000        1.097615         1
         3         4        16        19     9      180.000000       -2.398793         2
         3         4        16        19     9        0.000000        0.444913         3
         3         4        16        19     9      180.000000        0.120860         4
         4         3         1        23     9        0.000000       -1.469887         1
         4         3         1        23     9      180.000000        1.124667         2
         4         3         1        23     9        0.000000       -0.315336         3
         4         3         1        23     9      180.000000        0.344008         4
         4         3         1        25     9        0.000000       -0.067629         1
         4         3         1        25     9      180.000000        0.211181         2
         4         3         1        25     9        0.000000       -0.497390         3
         4         3         1        25     9      180.000000       -0.065928         4
         4         3         1        26     9        0.000000       -0.067629         1
         4         3         1        26     9      180.000000        0.211181         2
         4         3         1        26     9        0.000000       -0.497389         3
         4         3         1        26     9      180.000000       -0.065927         4
         4         3         2         7     9        0.000000       -0.259536         1
         4         3         2         7     9      180.000000       17.531519         2
         4         3         2         7     9        0.000000       -1.447509         3
         4         3         2         7     9      180.000000       -0.609245         4
         4         3         2        22     9        0.000000        0.350466         1
         4         3         2        22     9      180.000000       18.824339         2
         4         3         2        22     9        0.000000        0.287066         3
         4         3         2        22     9      180.000000       -0.903747         4
         4         5         6         7     9        0.000000       -0.290350         1
         4         5         6         7     9      180.000000       18.241249         2
         4         5         6         7     9        0.000000       -1.793723         3
         4         5         6         7     9      180.000000       -0.451801         4
         4         5         6        28     9        0.000000        0.161800         1
         4         5         6        28     9      180.000000       14.657501         2
         4         5         6        28     9        0.000000       -0.713018         3
         4         5         6        28     9      180.000000        0.050664         4
         4        16        19        20     9        0.000000       -0.021504         1
         4        16        19        20     9      180.000000       -0.264820         2
         4        16        19        20     9        0.000000        0.249498         3
         4        16        19        20     9      180.000000       -0.026385         4
         4        16        19        21     9        0.000000       -0.021504         1
         4        16        19        21     9      180.000000       -0.264820         2
         4        16        19        21     9        0.000000        0.249498         3
         4        16        19        21     9      180.000000       -0.026385         4
         4        16        19        32     9        0.000000        0.025867         1
         4        16        19        32     9      180.000000       -0.095290         2
         4        16        19        32     9        0.000000        0.381548         3
         4        16        19        32     9      180.000000       -0.054822         4
         5         4        16        17     9        0.000000        0.061489         1
         5         4        16        17     9      180.000000        0.881419         2
         5         4        16        17     9        0.000000       -0.058980         3
         5         4        16        17     9      180.000000        0.033233         4
         5         4        16        18     9        0.000000        0.061490         1
         5         4        16        18     9      180.000000        0.881420         2
         5         4        16        18     9        0.000000       -0.058979         3
         5         4        16        18     9      180.000000        0.033233         4
         5         4        16        19     9        0.000000        0.239041         1
         5         4        16        19     9      180.000000       -1.549059         2
         5         4        16        19     9        0.000000       -0.256540         3
         5         4        16        19     9      180.000000        0.187112         4
         5         6         7         8     9        0.000000        0.451411         1
         5         6         7         8     9      180.000000       19.815418         2
         5         6         7         8     9        0.000000        0.461371         3
         5         6         7         8     9      180.000000       -0.398464         4
         6         5         4        16     9        0.000000       -0.379158         1
         6         5         4        16     9      180.000000       13.844184         2
         6         5         4        16     9        0.000000       -0.066634         3
         6         5         4        16     9      180.000000       -0.369958         4
         6         7         2        22     9        0.000000        0.291405         1
         6         7         2        22     9      180.000000       15.935332         2
         6         7         2        22     9        0.000000        0.183681         3
         6         7         2        22     9      180.000000       -0.293588         4
         6         7         8         9     9        0.000000       -1.716705         1
         6         7         8         9     9      180.000000        4.702835         2
         6         7         8         9     9        0.000000       -0.945708         3
         6         7         8         9     9      180.000000        0.359469         4
         7         6         5        27     9        0.000000        0.133846         1
         7         6         5        27     9      180.000000       14.967622         2
         7         6         5        27     9        0.000000       -0.520413         3
         7         6         5        27     9      180.000000        0.055528         4
         7         8         9        10     9        0.000000       -0.122473         1
         7         8         9        10     9      180.000000        5.320178         2
         7         8         9        10     9        0.000000       -0.002984         3
         7         8         9        10     9      180.000000        0.266826         4
         7         8         9        15     9        0.000000       -0.245560         1
         7         8         9        15     9      180.000000        5.213421         2
         7         8         9        15     9        0.000000        0.004433         3
         7         8         9        15     9      180.000000        0.272451         4
         8         7         2        22     9        0.000000       -0.142194         1
         8         7         2        22     9      180.000000       19.398942         2
         8         7         2        22     9        0.000000        0.044409         3
         8         7         2        22     9      180.000000       -0.668462         4
         8         7         6        28     9        0.000000        0.201866         1
         8         7         6        28     9      180.000000       14.677288         2
         8         7         6        28     9        0.000000        0.130452         3
         8         7         6        28     9      180.000000        0.270014         4
         8         9        10        11     9        0.000000        0.483880         1
         8         9        10        11     9      180.000000       18.286613         2
         8         9        10        11     9        0.000000        0.547974         3
         8         9        10        11     9      180.000000       -0.383461         4
         8         9        10        29     9        0.000000        0.278480         1
         8         9        10        29     9      180.000000       13.527639         2
         8         9        10        29     9        0.000000        0.010610         3
         8         9        10        29     9      180.000000        0.369763         4
         8         9        15        13     9        0.000000        0.512149         1
         8         9        15        13     9      180.000000       18.145555         2
         8         9        15        13     9        0.000000        0.439064         3
         8         9        15        13     9      180.000000       -0.360482         4
         8         9        15        31     9        0.000000        0.226369         1
         8         9        15        31     9      180.000000       13.606023         2
         8         9        15        31     9        0.000000        0.004373         3
         8         9        15        31     9      180.000000        0.374554         4
         9        10        11        12     9        0.000000        0.016333         1
         9        10        11        12     9      180.000000       17.165979         2
         9        10        11        12     9        0.000000       -1.260570         3
         9        10        11        12     9      180.000000       -0.410348         4
         9        10        11        24     9        0.000000        0.466380         1
         9        10        11        24     9      180.000000       22.838380         2
         9        10        11        24     9        0.000000        0.603317         3
         9        10        11        24     9      180.000000       -0.843687         4
         9        15        13        12     9        0.000000       -0.001348         1
         9        15        13        12     9      180.000000       17.626936         2
         9        15        13        12     9        0.000000       -1.391858         3
         9        15        13        12     9      180.000000       -0.412415         4
         9        15        13        14     9        0.000000        0.437157         1
         9        15        13        14     9      180.000000       19.099136         2
         9        15        13        14     9        0.000000        0.406663         3
         9        15        13        14     9      180.000000       -0.600293         4
        10         9        15        13     9        0.000000       -0.194230         1
        10         9        15        13     9      180.000000       16.732339         2
        10         9        15        13     9        0.000000       -1.162879         3
        10         9        15        13     9      180.000000       -0.286605         4
        10         9        15        31     9        0.000000        0.145013         1
        10         9        15        31     9      180.000000       12.816636         2
        10         9        15        31     9        0.000000       -0.556183         3
        10         9        15        31     9      180.000000        0.221010         4
        10        11        12        13     9        0.000000       -0.153902         1
        10        11        12        13     9      180.000000       17.278478         2
        10        11        12        13     9        0.000000       -1.225087         3
        10        11        12        13     9      180.000000       -0.427313         4
        10        11        12        30     9        0.000000        0.077115         1
        10        11        12        30     9      180.000000       12.786848         2
        10        11        12        30     9        0.000000       -0.562901         3
        10        11        12        30     9      180.000000        0.171887         4
        11        10         9        15     9        0.000000       -0.139072         1
        11        10         9        15     9      180.000000       16.540054         2
        11        10         9        15     9        0.000000       -1.098997         3
        11        10         9        15     9      180.000000       -0.215593         4
        11        12        13        14     9        0.000000        0.426515         1
        11        12        13        14     9      180.000000       19.269612         2
        11        12        13        14     9        0.000000        0.466542         3
        11        12        13        14     9      180.000000       -0.633614         4
        11        12        13        15     9        0.000000       -0.163258         1
        11        12        13        15     9      180.000000       17.887113         2
        11        12        13        15     9        0.000000       -1.359108         3
        11        12        13        15     9      180.000000       -0.413216         4
        12        11        10        29     9        0.000000        0.194749         1
        12        11        10        29     9      180.000000       12.601219         2
        12        11        10        29     9        0.000000       -0.549894         3
        12        11        10        29     9      180.000000        0.167689         4
        12        13        15        31     9        0.000000        0.121078         1
        12        13        15        31     9      180.000000       13.480084         2
        12        13        15        31     9        0.000000       -0.631175         3
        12        13        15        31     9      180.000000        0.125127         4
        13        12        11        24     9        0.000000        0.492414         1
        13        12        11        24     9      180.000000       22.854105         2
        13        12        11        24     9        0.000000        0.593021         3
        13        12        11        24     9      180.000000       -0.774881         4
        14        13        12        30     9        0.000000        0.266809         1
        14        13        12        30     9      180.000000       13.085368         2
        14        13        12        30     9        0.000000       -0.134809         3
        14        13        12        30     9      180.000000        0.240906         4
        14        13        15        31     9        0.000000        0.204424         1
        14        13        15        31     9      180.000000       13.505933         2
        14        13        15        31     9        0.000000       -0.134096         3
        14        13        15        31     9      180.000000        0.248105         4
        15         9        10        29     9        0.000000        0.180571         1
        15         9        10        29     9      180.000000       12.514331         2
        15         9        10        29     9        0.000000       -0.522267         3
        15         9        10        29     9      180.000000        0.212305         4
        15        13        12        30     9        0.000000        0.071950         1
        15        13        12        30     9      180.000000       13.333475         2
        15        13        12        30     9        0.000000       -0.588284         3
        15        13        12        30     9      180.000000        0.130929         4
        16         4         5        27     9        0.000000        0.234663         1
        16         4         5        27     9      180.000000       11.876670         2
        16         4         5        27     9        0.000000       -0.176141         3
        16         4         5        27     9      180.000000        0.029409         4
        17        16        19        20     9        0.000000        0.156131         1
        17        16        19        20     9      180.000000        0.101897         2
        17        16        19        20     9        0.000000        0.208368         3
        17        16        19        20     9      180.000000        0.119328         4
        17        16        19        21     9        0.000000        0.156131         1
        17        16        19        21     9      180.000000        0.101897         2
        17        16        19        21     9        0.000000        0.208368         3
        17        16        19        21     9      180.000000        0.119328         4
        17        16        19        32     9        0.000000       -0.275972         1
        17        16        19        32     9      180.000000        0.098373         2
        17        16        19        32     9        0.000000        0.269827         3
        17        16        19        32     9      180.000000       -0.014572         4
        18        16        19        20     9        0.000000        0.156130         1
        18        16        19        20     9      180.000000        0.101897         2
        18        16        19        20     9        0.000000        0.208368         3
        18        16        19        20     9      180.000000        0.119328         4
        18        16        19        21     9        0.000000        0.156130         1
        18        16        19        21     9      180.000000        0.101897         2
        18        16        19        21     9        0.000000        0.208368         3
        18        16        19        21     9      180.000000        0.119328         4
        18        16        19        32     9        0.000000       -0.275972         1
        18        16        19        32     9      180.000000        0.098373         2
        18        16        19        32     9        0.000000        0.269827         3
        18        16        19        32     9      180.000000       -0.014573         4
        24        11        10        29     9        0.000000        0.316498         1
        24        11        10        29     9      180.000000       15.738546         2
        24        11        10        29     9        0.000000        0.250726         3
        24        11        10        29     9      180.000000        0.149137         4
        24        11        12        30     9        0.000000        0.277357         1
        24        11        12        30     9      180.000000       15.295311         2
        24        11        12        30     9        0.000000        0.235276         3
        24        11        12        30     9      180.000000        0.207846         4
        25         1        23        33     9        0.000000       -0.022243         1
        25         1        23        33     9      180.000000       -0.081159         2
        25         1        23        33     9        0.000000        0.818737         3
        25         1        23        33     9      180.000000        0.093817         4
        26         1        23        33     9        0.000000       -0.022243         1
        26         1        23        33     9      180.000000       -0.081159         2
        26         1        23        33     9        0.000000        0.818737         3
        26         1        23        33     9      180.000000        0.093817         4
        27         5         6        28     9        0.000000       -0.061853         1
        27         5         6        28     9      180.000000       12.834532         2
        27         5         6        28     9        0.000000       -0.859009         3
        27         5         6        28     9      180.000000        0.275162         4

[ dihedrals ] ; impropers
;       ai        aj        ak        al funct           phase               k        pn
         6         5         7        28     4      180.000000        0.188968         2
         6         7        28         5     4      180.000000        0.188968         2
         6        28         5         7     4      180.000000        0.188968         2
        11        10        12        24     4      180.000000        2.018215         2
        11        12        24        10     4      180.000000        2.018215         2
        11        24        10        12     4      180.000000        2.018215         2

[ pairs ]
;       ai        aj funct
         1         5     1
         1         7     1
         1        16     1
         1        22     1
         2         5     1
         2         9     1
         2        16     1
         2        23     1
         2        25     1
         2        26     1
         2        28     1
         3         6     1
         3         8     1
         3        17     1
         3        18     1
         3        19     1
         3        27     1
         3        33     1
         4         7     1
         4        20     1
         4        21     1
         4        22     1
         4        23     1
         4        25     1
         4        26     1
         4        28     1
         4        32     1
         5         8     1
         5        17     1
         5        18     1
         5        19     1
         6         9     1
         6        16     1
         6        22     1
         7        10     1
         7        15     1
         7        27     1
         8        11     1
         8        13     1
         8        22     1
         8        28     1
         8        29     1
         8        31     1
         9        12     1
         9        14     1
         9        24     1
        10        13     1
        10        30     1
        10        31     1
        11        14     1
        11        15     1
        12        29     1
        12        31     1
        13        24     1
        14        30     1
        14        31     1
        15        29     1
        15        30     1
        16        27     1
        17        20     1
        17        21     1
        17        32     1
        18        20     1
        18        21     1
        18        32     1
        24        29     1
        24        30     1
        25        33     1
        26        33     1
        27        28     1
