; ITP file created by ByteFF-ML, 2026-02-21 07:41:34.645239

[ atomtypes ]
;name           bonded.type        at.num        mass        charge   ptype           sigma         epsilon
 c0bf                                   6      0.0000       0.00000       A     3.40003e-01     4.50706e-01
 c1bf                                   6      0.0000       0.00000       A     3.31441e-01     4.16922e-01
 c2bf                                   6      0.0000       0.00000       A     3.31563e-01     4.14652e-01
 c3bf                                   6      0.0000       0.00000       A     3.31632e-01     4.12969e-01
 c4bf                                   6      0.0000       0.00000       A     3.31437e-01     4.14458e-01
 c5bf                                   6      0.0000       0.00000       A     3.31455e-01     4.13518e-01
 c6bf                                   6      0.0000       0.00000       A     3.31603e-01     4.11989e-01
 o7bf                                   8      0.0000       0.00000       A     3.16037e-01     3.07555e-01
 c8bf                                   6      0.0000       0.00000       A     3.31507e-01     4.12849e-01
 c9bf                                   6      0.0000       0.00000       A     3.31498e-01     4.13688e-01
 c10bf                                  6      0.0000       0.00000       A     3.31573e-01     4.14252e-01
 c11bf                                  6      0.0000       0.00000       A     3.31552e-01     4.14123e-01
 c12bf                                  6      0.0000       0.00000       A     3.31534e-01     4.14279e-01
 c13bf                                  6      0.0000       0.00000       A     3.48195e-01     6.71490e-01
 c14bf                                  6      0.0000       0.00000       A     3.31499e-01     4.14253e-01
 s15bf                                 16      0.0000       0.00000       A     4.06657e-01     2.55944e-01
 o16bf                                  8      0.0000       0.00000       A     3.05258e-01     6.13033e-01
 o17bf                                  8      0.0000       0.00000       A     3.05258e-01     6.13033e-01
 c18bf                                  6      0.0000       0.00000       A     3.40010e-01     4.52708e-01
 f19bf                                  9      0.0000       0.00000       A     3.03109e-01     3.45246e-01
 f20bf                                  9      0.0000       0.00000       A     3.03109e-01     3.45246e-01
 cl21bf                                17      0.0000       0.00000       A     3.46875e-01     1.10046e+00
 o22bf                                  8      0.0000       0.00000       A     3.24033e-01     3.87026e-01
 f23bf                                  9      0.0000       0.00000       A     3.03468e-01     3.48235e-01
 n24bf                                  7      0.0000       0.00000       A     3.27424e-01     4.58548e-01
 h25bf                                  1      0.0000       0.00000       A     2.42181e-01     8.84222e-02
 h26bf                                  1      0.0000       0.00000       A     2.42181e-01     8.84222e-02
 h27bf                                  1      0.0000       0.00000       A     2.62760e-01     6.80213e-02
 h28bf                                  1      0.0000       0.00000       A     2.62359e-01     6.70541e-02
 h29bf                                  1      0.0000       0.00000       A     2.62432e-01     6.69886e-02
 h30bf                                  1      0.0000       0.00000       A     2.62464e-01     6.71849e-02
 h31bf                                  1      0.0000       0.00000       A     2.62428e-01     6.73733e-02
 h32bf                                  1      0.0000       0.00000       A     2.06356e-01     8.82610e-02
 h33bf                                  1      0.0000       0.00000       A     5.36245e-02     2.02605e-02

[ moleculetype ]
;name             nrexcl
 42                    3

[ atoms ]
;       nr            type      resi   res      atom      cgnr      charge          mass ; qtot
         1            c0bf         1   UNL        c0         1     0.20393       12.0110 ; qtot    0.204
         2            c1bf         1   UNL        c1         2     0.10179       12.0110 ; qtot    0.306
         3            c2bf         1   UNL        c2         3     0.02416       12.0110 ; qtot    0.330
         4            c3bf         1   UNL        c3         4    -0.22087       12.0110 ; qtot    0.109
         5            c4bf         1   UNL        c4         5    -0.00484       12.0110 ; qtot    0.104
         6            c5bf         1   UNL        c5         6    -0.13626       12.0110 ; qtot   -0.032
         7            c6bf         1   UNL        c6         7     0.13871       12.0110 ; qtot    0.107
         8            o7bf         1   UNL        o7         8    -0.23694       15.9990 ; qtot   -0.130
         9            c8bf         1   UNL        c8         9     0.15480       12.0110 ; qtot    0.024
        10            c9bf         1   UNL        c9        10    -0.16623       12.0110 ; qtot   -0.142
        11           c10bf         1   UNL       c10        11     0.19206       12.0110 ; qtot    0.050
        12           c11bf         1   UNL       c11        12    -0.13469       12.0110 ; qtot   -0.084
        13           c12bf         1   UNL       c12        13     0.04074       12.0110 ; qtot   -0.044
        14           c13bf         1   UNL       c13        14     0.31339       12.0110 ; qtot    0.270
        15           c14bf         1   UNL       c14        15    -0.11694       12.0110 ; qtot    0.153
        16           s15bf         1   UNL       s15        16     0.93760       32.0670 ; qtot    1.090
        17           o16bf         1   UNL       o16        17    -0.47215       15.9990 ; qtot    0.618
        18           o17bf         1   UNL       o17        18    -0.47215       15.9990 ; qtot    0.146
        19           c18bf         1   UNL       c18        19     0.04879       12.0110 ; qtot    0.195
        20           f19bf         1   UNL       f19        20    -0.09019       18.9980 ; qtot    0.105
        21           f20bf         1   UNL       f20        21    -0.09019       18.9980 ; qtot    0.015
        22          cl21bf         1   UNL      cl21        22    -0.17586       35.4530 ; qtot   -0.161
        23           o22bf         1   UNL       o22        23    -0.66203       15.9990 ; qtot   -0.823
        24           f23bf         1   UNL       f23        24    -0.16215       18.9980 ; qtot   -0.986
        25           n24bf         1   UNL       n24        25    -0.43909       14.0070 ; qtot   -1.425
        26           h25bf         1   UNL       h25        26     0.06330        1.0080 ; qtot   -1.361
        27           h26bf         1   UNL       h26        27     0.06330        1.0080 ; qtot   -1.298
        28           h27bf         1   UNL       h27        28     0.15408        1.0080 ; qtot   -1.144
        29           h28bf         1   UNL       h28        29     0.14096        1.0080 ; qtot   -1.003
        30           h29bf         1   UNL       h29        30     0.15291        1.0080 ; qtot   -0.850
        31           h30bf         1   UNL       h30        31     0.14757        1.0080 ; qtot   -0.702
        32           h31bf         1   UNL       h31        32     0.14562        1.0080 ; qtot   -0.557
        33           h32bf         1   UNL       h32        33     0.10649        1.0080 ; qtot   -0.450
        34           h33bf         1   UNL       h33        34     0.45038        1.0080 ; qtot   -0.000

[ bonds ]
;       ai        aj funct               r               k
         1         3     1        0.151982   179842.462451
         1        23     1        0.142844   210692.426978
         1        26     1        0.109258   301002.716064
         1        27     1        0.109258   301002.716064
         2         3     1        0.140386   274337.147363
         2         7     1        0.140574   267637.895313
         2        22     1        0.175113   150974.701123
         3         4     1        0.141127   264121.052295
         4         5     1        0.139517   303787.844287
         4        16     1        0.180905   119652.951270
         5         6     1        0.139256   324824.242432
         5        28     1        0.108362   328329.721436
         6         7     1        0.139620   296532.725977
         6        29     1        0.108420   325745.417041
         7         8     1        0.137708   247254.915186
         8         9     1        0.137650   246898.749121
         9        10     1        0.139918   294702.481348
         9        15     1        0.139662   296728.825439
        10        11     1        0.139107   310161.012988
        10        30     1        0.108372   328127.876123
        11        12     1        0.138892   307835.603809
        11        24     1        0.135083   300333.720410
        12        13     1        0.140515   294475.124463
        12        31     1        0.108386   329357.309180
        13        14     1        0.143765   270871.863770
        13        15     1        0.140382   298286.486963
        14        25     1        0.116512  1108338.024805
        15        32     1        0.108393   327502.804297
        16        17     1        0.146727   520794.717383
        16        18     1        0.146727   520794.717383
        16        19     1        0.188129   131094.878662
        19        20     1        0.135555   266652.980078
        19        21     1        0.135555   266652.980078
        19        33     1        0.109155   319785.949512
        23        34     1        0.097153   465648.351172

[ angles ]
;       ai        aj        ak funct           theta             cth
         1         3         2     1      120.139404      504.859778
         1         3         4     1      123.658348      444.249843
         1        23        34     1      107.625870      583.878298
         2         3         4     1      116.186119      590.057257
         2         7         6     1      119.647583      572.412072
         2         7         8     1      119.953354      364.982177
         3         1        23     1      111.192993      649.233635
         3         1        26     1      109.564110      462.541564
         3         1        27     1      109.564110      462.541564
         3         2         7     1      121.835342      640.906047
         3         2        22     1      120.866310      343.026104
         3         4         5     1      122.217819      673.295976
         3         4        16     1      122.330734      505.830380
         4         5         6     1      119.812912      632.850557
         4         5        28     1      119.911781      363.089271
         4        16        17     1      109.331017      613.196177
         4        16        18     1      109.331017      613.196177
         4        16        19     1      102.821938      550.731896
         5         4        16     1      115.143448      554.100943
         5         6         7     1      119.858536      720.481659
         5         6        29     1      121.042664      418.068624
         6         5        28     1      120.825356      398.398155
         6         7         8     1      120.275314      491.679086
         7         2        22     1      117.486679      342.458287
         7         6        29     1      118.985458      419.735910
         7         8         9     1      118.699974      427.799284
         8         9        10     1      119.294823      514.288685
         8         9        15     1      119.613052      495.161837
         9        10        11     1      118.145828      766.856794
         9        10        30     1      121.318497      417.560659
         9        15        13     1      118.934082      687.136068
         9        15        32     1      120.289841      422.324447
        10         9        15     1      120.857887      629.045273
        10        11        12     1      122.964890      627.156037
        10        11        24     1      118.334900      541.945151
        11        10        30     1      120.534988      417.664212
        11        12        13     1      117.516968      637.448450
        11        12        31     1      120.746925      422.893829
        12        11        24     1      118.731651      524.645196
        12        13        14     1      119.386719      476.745240
        12        13        15     1      121.196091      683.752145
        13        12        31     1      121.582848      413.830517
        13        14        25     1      179.655121      167.360000
        13        15        32     1      120.635300      407.790448
        14        13        15     1      119.287766      472.484597
        16        19        20     1      108.959946      512.821770
        16        19        21     1      108.959946      512.821770
        16        19        33     1      108.671288      474.982414
        17        16        18     1      121.463051      720.854948
        17        16        19     1      105.655907      445.755032
        18        16        19     1      105.655907      445.755032
        20        19        21     1      108.754395      734.916063
        20        19        33     1      110.548447      439.039762
        21        19        33     1      110.548447      439.039762
        23         1        26     1      109.012573      444.097291
        23         1        27     1      109.012573      444.097227
        26         1        27     1      107.750168      332.714411

[ dihedrals ] ; propers for gromacs 4.5 or higher, use funct 9
;       ai        aj        ak        al funct           phase               k        pn
         1         3         2         7     9        0.000000        0.201736         1
         1         3         2         7     9      180.000000       14.456454         2
         1         3         2         7     9        0.000000       -0.112158         3
         1         3         2         7     9      180.000000       -0.371796         4
         1         3         2        22     9        0.000000        0.240468         1
         1         3         2        22     9      180.000000       16.631780         2
         1         3         2        22     9        0.000000        0.096916         3
         1         3         2        22     9      180.000000       -0.627761         4
         1         3         4         5     9        0.000000        0.134611         1
         1         3         4         5     9      180.000000       15.549408         2
         1         3         4         5     9        0.000000       -0.195412         3
         1         3         4         5     9      180.000000       -0.513594         4
         1         3         4        16     9        0.000000       -0.022945         1
         1         3         4        16     9      180.000000       11.482447         2
         1         3         4        16     9        0.000000        0.179115         3
         1         3         4        16     9      180.000000       -0.561609         4
         2         3         1        23     9        0.000000        0.714940         1
         2         3         1        23     9      180.000000       -0.289864         2
         2         3         1        23     9        0.000000        0.307706         3
         2         3         1        23     9      180.000000        0.165517         4
         2         3         1        26     9        0.000000       -0.023585         1
         2         3         1        26     9      180.000000        0.216674         2
         2         3         1        26     9        0.000000        0.023350         3
         2         3         1        26     9      180.000000       -0.066312         4
         2         3         1        27     9        0.000000       -0.023585         1
         2         3         1        27     9      180.000000        0.216674         2
         2         3         1        27     9        0.000000        0.023350         3
         2         3         1        27     9      180.000000       -0.066312         4
         2         3         4         5     9        0.000000        0.096560         1
         2         3         4         5     9      180.000000       18.391096         2
         2         3         4         5     9        0.000000       -1.464758         3
         2         3         4         5     9      180.000000       -0.549514         4
         2         3         4        16     9        0.000000       -0.179488         1
         2         3         4        16     9      180.000000       11.189429         2
         2         3         4        16     9        0.000000        0.192563         3
         2         3         4        16     9      180.000000       -0.568509         4
         2         7         6         5     9        0.000000       -0.006918         1
         2         7         6         5     9      180.000000       17.331755         2
         2         7         6         5     9        0.000000       -1.046661         3
         2         7         6         5     9      180.000000       -0.379861         4
         2         7         6        29     9        0.000000       -0.015332         1
         2         7         6        29     9      180.000000       12.954638         2
         2         7         6        29     9        0.000000       -0.537299         3
         2         7         6        29     9      180.000000        0.084975         4
         2         7         8         9     9        0.000000        2.337040         1
         2         7         8         9     9      180.000000        2.667568         2
         2         7         8         9     9        0.000000        0.753332         3
         2         7         8         9     9      180.000000       -0.081838         4
         3         1        23        34     9        0.000000        2.305619         1
         3         1        23        34     9      180.000000       -2.845592         2
         3         1        23        34     9        0.000000        0.781503         3
         3         1        23        34     9      180.000000        0.234148         4
         3         2         7         6     9        0.000000       -0.069695         1
         3         2         7         6     9      180.000000       14.964270         2
         3         2         7         6     9        0.000000       -0.815756         3
         3         2         7         6     9      180.000000       -0.246905         4
         3         2         7         8     9        0.000000        0.427316         1
         3         2         7         8     9      180.000000       16.073756         2
         3         2         7         8     9        0.000000        0.111840         3
         3         2         7         8     9      180.000000       -0.197444         4
         3         4         5         6     9        0.000000       -0.028669         1
         3         4         5         6     9      180.000000       18.891248         2
         3         4         5         6     9        0.000000       -1.746724         3
         3         4         5         6     9      180.000000       -0.411084         4
         3         4         5        28     9        0.000000        0.283500         1
         3         4         5        28     9      180.000000       14.788115         2
         3         4         5        28     9        0.000000       -0.576348         3
         3         4         5        28     9      180.000000       -0.014539         4
         3         4        16        17     9        0.000000        0.479037         1
         3         4        16        17     9      180.000000        0.932470         2
         3         4        16        17     9        0.000000        0.336425         3
         3         4        16        17     9      180.000000       -0.096828         4
         3         4        16        18     9        0.000000        0.479037         1
         3         4        16        18     9      180.000000        0.932470         2
         3         4        16        18     9        0.000000        0.336425         3
         3         4        16        18     9      180.000000       -0.096828         4
         3         4        16        19     9        0.000000        1.097615         1
         3         4        16        19     9      180.000000       -2.398793         2
         3         4        16        19     9        0.000000        0.444913         3
         3         4        16        19     9      180.000000        0.120860         4
         4         3         1        23     9        0.000000       -1.469887         1
         4         3         1        23     9      180.000000        1.124667         2
         4         3         1        23     9        0.000000       -0.315336         3
         4         3         1        23     9      180.000000        0.344008         4
         4         3         1        26     9        0.000000       -0.067629         1
         4         3         1        26     9      180.000000        0.211181         2
         4         3         1        26     9        0.000000       -0.497390         3
         4         3         1        26     9      180.000000       -0.065928         4
         4         3         1        27     9        0.000000       -0.067629         1
         4         3         1        27     9      180.000000        0.211181         2
         4         3         1        27     9        0.000000       -0.497389         3
         4         3         1        27     9      180.000000       -0.065927         4
         4         3         2         7     9        0.000000       -0.259536         1
         4         3         2         7     9      180.000000       17.531519         2
         4         3         2         7     9        0.000000       -1.447509         3
         4         3         2         7     9      180.000000       -0.609245         4
         4         3         2        22     9        0.000000        0.350466         1
         4         3         2        22     9      180.000000       18.824339         2
         4         3         2        22     9        0.000000        0.287066         3
         4         3         2        22     9      180.000000       -0.903747         4
         4         5         6         7     9        0.000000       -0.290350         1
         4         5         6         7     9      180.000000       18.241249         2
         4         5         6         7     9        0.000000       -1.793723         3
         4         5         6         7     9      180.000000       -0.451801         4
         4         5         6        29     9        0.000000        0.161800         1
         4         5         6        29     9      180.000000       14.657501         2
         4         5         6        29     9        0.000000       -0.713018         3
         4         5         6        29     9      180.000000        0.050664         4
         4        16        19        20     9        0.000000       -0.021504         1
         4        16        19        20     9      180.000000       -0.264820         2
         4        16        19        20     9        0.000000        0.249498         3
         4        16        19        20     9      180.000000       -0.026385         4
         4        16        19        21     9        0.000000       -0.021504         1
         4        16        19        21     9      180.000000       -0.264820         2
         4        16        19        21     9        0.000000        0.249498         3
         4        16        19        21     9      180.000000       -0.026385         4
         4        16        19        33     9        0.000000        0.025867         1
         4        16        19        33     9      180.000000       -0.095290         2
         4        16        19        33     9        0.000000        0.381548         3
         4        16        19        33     9      180.000000       -0.054822         4
         5         4        16        17     9        0.000000        0.061489         1
         5         4        16        17     9      180.000000        0.881419         2
         5         4        16        17     9        0.000000       -0.058980         3
         5         4        16        17     9      180.000000        0.033233         4
         5         4        16        18     9        0.000000        0.061489         1
         5         4        16        18     9      180.000000        0.881419         2
         5         4        16        18     9        0.000000       -0.058980         3
         5         4        16        18     9      180.000000        0.033233         4
         5         4        16        19     9        0.000000        0.239041         1
         5         4        16        19     9      180.000000       -1.549059         2
         5         4        16        19     9        0.000000       -0.256540         3
         5         4        16        19     9      180.000000        0.187112         4
         5         6         7         8     9        0.000000        0.453981         1
         5         6         7         8     9      180.000000       19.803146         2
         5         6         7         8     9        0.000000        0.461548         3
         5         6         7         8     9      180.000000       -0.395820         4
         6         5         4        16     9        0.000000       -0.379158         1
         6         5         4        16     9      180.000000       13.844184         2
         6         5         4        16     9        0.000000       -0.066634         3
         6         5         4        16     9      180.000000       -0.369958         4
         6         7         2        22     9        0.000000        0.291405         1
         6         7         2        22     9      180.000000       15.935332         2
         6         7         2        22     9        0.000000        0.183681         3
         6         7         2        22     9      180.000000       -0.293588         4
         6         7         8         9     9        0.000000       -1.697751         1
         6         7         8         9     9      180.000000        4.579140         2
         6         7         8         9     9        0.000000       -0.934979         3
         6         7         8         9     9      180.000000        0.356663         4
         7         6         5        28     9        0.000000        0.133846         1
         7         6         5        28     9      180.000000       14.967622         2
         7         6         5        28     9        0.000000       -0.520413         3
         7         6         5        28     9      180.000000        0.055528         4
         7         8         9        10     9        0.000000       -0.074824         1
         7         8         9        10     9      180.000000        5.404294         2
         7         8         9        10     9        0.000000       -0.018859         3
         7         8         9        10     9      180.000000        0.259745         4
         7         8         9        15     9        0.000000       -0.207084         1
         7         8         9        15     9      180.000000        5.391473         2
         7         8         9        15     9        0.000000       -0.067898         3
         7         8         9        15     9      180.000000        0.277831         4
         8         7         2        22     9        0.000000       -0.145272         1
         8         7         2        22     9      180.000000       19.389415         2
         8         7         2        22     9        0.000000        0.044285         3
         8         7         2        22     9      180.000000       -0.663999         4
         8         7         6        29     9        0.000000        0.210503         1
         8         7         6        29     9      180.000000       14.651005         2
         8         7         6        29     9        0.000000        0.129142         3
         8         7         6        29     9      180.000000        0.274362         4
         8         9        10        11     9        0.000000        0.496407         1
         8         9        10        11     9      180.000000       18.245469         2
         8         9        10        11     9        0.000000        0.548773         3
         8         9        10        11     9      180.000000       -0.384222         4
         8         9        10        30     9        0.000000        0.290731         1
         8         9        10        30     9      180.000000       13.502262         2
         8         9        10        30     9        0.000000        0.000501         3
         8         9        10        30     9      180.000000        0.353123         4
         8         9        15        13     9        0.000000        0.467083         1
         8         9        15        13     9      180.000000       17.728129         2
         8         9        15        13     9        0.000000        0.426880         3
         8         9        15        13     9      180.000000       -0.190687         4
         8         9        15        32     9        0.000000        0.229566         1
         8         9        15        32     9      180.000000       13.642361         2
         8         9        15        32     9        0.000000        0.033238         3
         8         9        15        32     9      180.000000        0.315604         4
         9        10        11        12     9        0.000000       -0.028510         1
         9        10        11        12     9      180.000000       16.916920         2
         9        10        11        12     9        0.000000       -1.238906         3
         9        10        11        12     9      180.000000       -0.381950         4
         9        10        11        24     9        0.000000        0.487152         1
         9        10        11        24     9      180.000000       22.644022         2
         9        10        11        24     9        0.000000        0.645240         3
         9        10        11        24     9      180.000000       -0.876237         4
         9        15        13        12     9        0.000000       -0.129230         1
         9        15        13        12     9      180.000000       18.143685         2
         9        15        13        12     9        0.000000       -1.715819         3
         9        15        13        12     9      180.000000       -0.400378         4
         9        15        13        14     9        0.000000       -0.072378         1
         9        15        13        14     9      180.000000       16.227338         2
         9        15        13        14     9        0.000000       -0.126126         3
         9        15        13        14     9      180.000000       -0.290454         4
        10         9        15        13     9        0.000000       -0.150012         1
        10         9        15        13     9      180.000000       16.700992         2
        10         9        15        13     9        0.000000       -0.968804         3
        10         9        15        13     9      180.000000       -0.281133         4
        10         9        15        32     9        0.000000        0.129075         1
        10         9        15        32     9      180.000000       12.859585         2
        10         9        15        32     9        0.000000       -0.469886         3
        10         9        15        32     9      180.000000        0.175307         4
        10        11        12        13     9        0.000000       -0.215231         1
        10        11        12        13     9      180.000000       17.549257         2
        10        11        12        13     9        0.000000       -1.146379         3
        10        11        12        13     9      180.000000       -0.458426         4
        10        11        12        31     9        0.000000        0.010841         1
        10        11        12        31     9      180.000000       13.201518         2
        10        11        12        31     9        0.000000       -0.547868         3
        10        11        12        31     9      180.000000        0.095581         4
        11        10         9        15     9        0.000000       -0.104763         1
        11        10         9        15     9      180.000000       16.443372         2
        11        10         9        15     9        0.000000       -1.033204         3
        11        10         9        15     9      180.000000       -0.199864         4
        11        12        13        14     9        0.000000        0.094774         1
        11        12        13        14     9      180.000000       16.943643         2
        11        12        13        14     9        0.000000       -0.003520         3
        11        12        13        14     9      180.000000       -0.413924         4
        11        12        13        15     9        0.000000       -0.162096         1
        11        12        13        15     9      180.000000       18.378240         2
        11        12        13        15     9        0.000000       -1.727253         3
        11        12        13        15     9      180.000000       -0.401567         4
        12        11        10        30     9        0.000000        0.165859         1
        12        11        10        30     9      180.000000       12.728262         2
        12        11        10        30     9        0.000000       -0.505643         3
        12        11        10        30     9      180.000000        0.156615         4
        12        13        14        25     9        0.000000        0.000000         1
        12        13        14        25     9      180.000000        0.000000         2
        12        13        14        25     9        0.000000        0.000000         3
        12        13        14        25     9      180.000000        0.000000         4
        12        13        15        32     9        0.000000       -0.035873         1
        12        13        15        32     9      180.000000       14.177049         2
        12        13        15        32     9        0.000000       -0.688763         3
        12        13        15        32     9      180.000000        0.027156         4
        13        12        11        24     9        0.000000        0.384624         1
        13        12        11        24     9      180.000000       22.626144         2
        13        12        11        24     9        0.000000        0.654396         3
        13        12        11        24     9      180.000000       -0.714401         4
        14        13        12        31     9        0.000000        0.029970         1
        14        13        12        31     9      180.000000       12.807835         2
        14        13        12        31     9        0.000000       -0.300728         3
        14        13        12        31     9      180.000000        0.113751         4
        14        13        15        32     9        0.000000        0.023553         1
        14        13        15        32     9      180.000000       12.831571         2
        14        13        15        32     9        0.000000       -0.316821         3
        14        13        15        32     9      180.000000        0.159065         4
        15         9        10        30     9        0.000000        0.125949         1
        15         9        10        30     9      180.000000       12.565092         2
        15         9        10        30     9        0.000000       -0.477920         3
        15         9        10        30     9      180.000000        0.184198         4
        15        13        12        31     9        0.000000       -0.017233         1
        15        13        12        31     9      180.000000       14.308161         2
        15        13        12        31     9        0.000000       -0.696063         3
        15        13        12        31     9      180.000000        0.020065         4
        15        13        14        25     9        0.000000        0.000000         1
        15        13        14        25     9      180.000000        0.000000         2
        15        13        14        25     9        0.000000        0.000000         3
        15        13        14        25     9      180.000000        0.000000         4
        16         4         5        28     9        0.000000        0.234663         1
        16         4         5        28     9      180.000000       11.876670         2
        16         4         5        28     9        0.000000       -0.176141         3
        16         4         5        28     9      180.000000        0.029409         4
        17        16        19        20     9        0.000000        0.156131         1
        17        16        19        20     9      180.000000        0.101897         2
        17        16        19        20     9        0.000000        0.208368         3
        17        16        19        20     9      180.000000        0.119328         4
        17        16        19        21     9        0.000000        0.156131         1
        17        16        19        21     9      180.000000        0.101897         2
        17        16        19        21     9        0.000000        0.208368         3
        17        16        19        21     9      180.000000        0.119328         4
        17        16        19        33     9        0.000000       -0.275972         1
        17        16        19        33     9      180.000000        0.098373         2
        17        16        19        33     9        0.000000        0.269827         3
        17        16        19        33     9      180.000000       -0.014572         4
        18        16        19        20     9        0.000000        0.156131         1
        18        16        19        20     9      180.000000        0.101897         2
        18        16        19        20     9        0.000000        0.208368         3
        18        16        19        20     9      180.000000        0.119328         4
        18        16        19        21     9        0.000000        0.156131         1
        18        16        19        21     9      180.000000        0.101897         2
        18        16        19        21     9        0.000000        0.208368         3
        18        16        19        21     9      180.000000        0.119328         4
        18        16        19        33     9        0.000000       -0.275972         1
        18        16        19        33     9      180.000000        0.098373         2
        18        16        19        33     9        0.000000        0.269827         3
        18        16        19        33     9      180.000000       -0.014572         4
        24        11        10        30     9        0.000000        0.332728         1
        24        11        10        30     9      180.000000       15.886466         2
        24        11        10        30     9        0.000000        0.249567         3
        24        11        10        30     9      180.000000        0.118378         4
        24        11        12        31     9        0.000000        0.323706         1
        24        11        12        31     9      180.000000       15.967908         2
        24        11        12        31     9        0.000000        0.305032         3
        24        11        12        31     9      180.000000        0.124130         4
        26         1        23        34     9        0.000000       -0.022243         1
        26         1        23        34     9      180.000000       -0.081159         2
        26         1        23        34     9        0.000000        0.818737         3
        26         1        23        34     9      180.000000        0.093817         4
        27         1        23        34     9        0.000000       -0.022243         1
        27         1        23        34     9      180.000000       -0.081159         2
        27         1        23        34     9        0.000000        0.818737         3
        27         1        23        34     9      180.000000        0.093817         4
        28         5         6        29     9        0.000000       -0.061853         1
        28         5         6        29     9      180.000000       12.834532         2
        28         5         6        29     9        0.000000       -0.859009         3
        28         5         6        29     9      180.000000        0.275162         4

[ dihedrals ] ; impropers
;       ai        aj        ak        al funct           phase               k        pn
         6         5         7        29     4      180.000000        0.188968         2
         6         7        29         5     4      180.000000        0.188968         2
         6        29         5         7     4      180.000000        0.188968         2
        11        10        12        24     4      180.000000        1.727066         2
        11        12        24        10     4      180.000000        1.727066         2
        11        24        10        12     4      180.000000        1.727066         2

[ pairs ]
;       ai        aj funct
         1         5     1
         1         7     1
         1        16     1
         1        22     1
         2         5     1
         2         9     1
         2        16     1
         2        23     1
         2        26     1
         2        27     1
         2        29     1
         3         6     1
         3         8     1
         3        17     1
         3        18     1
         3        19     1
         3        28     1
         3        34     1
         4         7     1
         4        20     1
         4        21     1
         4        22     1
         4        23     1
         4        26     1
         4        27     1
         4        29     1
         4        33     1
         5         8     1
         5        17     1
         5        18     1
         5        19     1
         6         9     1
         6        16     1
         6        22     1
         7        10     1
         7        15     1
         7        28     1
         8        11     1
         8        13     1
         8        22     1
         8        29     1
         8        30     1
         8        32     1
         9        12     1
         9        14     1
         9        24     1
        10        13     1
        10        31     1
        10        32     1
        11        14     1
        11        15     1
        12        25     1
        12        30     1
        12        32     1
        13        24     1
        14        31     1
        14        32     1
        15        25     1
        15        30     1
        15        31     1
        16        28     1
        17        20     1
        17        21     1
        17        33     1
        18        20     1
        18        21     1
        18        33     1
        24        30     1
        24        31     1
        26        34     1
        27        34     1
        28        29     1
