; ITP file created by ByteFF-ML, 2026-02-21 07:40:24.246895

[ atomtypes ]
;name           bonded.type        at.num        mass        charge   ptype           sigma         epsilon
 c0bf                                   6      0.0000       0.00000       A     3.40003e-01     4.50706e-01
 c1bf                                   6      0.0000       0.00000       A     3.31441e-01     4.16922e-01
 c2bf                                   6      0.0000       0.00000       A     3.31563e-01     4.14652e-01
 c3bf                                   6      0.0000       0.00000       A     3.31632e-01     4.12969e-01
 c4bf                                   6      0.0000       0.00000       A     3.31437e-01     4.14458e-01
 c5bf                                   6      0.0000       0.00000       A     3.31455e-01     4.13518e-01
 c6bf                                   6      0.0000       0.00000       A     3.31603e-01     4.11989e-01
 o7bf                                   8      0.0000       0.00000       A     3.15957e-01     3.06578e-01
 c8bf                                   6      0.0000       0.00000       A     3.31508e-01     4.12957e-01
 c9bf                                   6      0.0000       0.00000       A     3.31574e-01     4.12983e-01
 c10bf                                  6      0.0000       0.00000       A     3.31518e-01     4.12854e-01
 c11bf                                  6      0.0000       0.00000       A     3.31500e-01     4.13221e-01
 c12bf                                  6      0.0000       0.00000       A     3.31527e-01     4.14348e-01
 c13bf                                  6      0.0000       0.00000       A     3.48169e-01     6.71363e-01
 c14bf                                  6      0.0000       0.00000       A     3.31500e-01     4.14244e-01
 s15bf                                 16      0.0000       0.00000       A     4.06657e-01     2.55944e-01
 o16bf                                  8      0.0000       0.00000       A     3.05258e-01     6.13033e-01
 o17bf                                  8      0.0000       0.00000       A     3.05258e-01     6.13033e-01
 c18bf                                  6      0.0000       0.00000       A     3.40010e-01     4.52708e-01
 f19bf                                  9      0.0000       0.00000       A     3.03109e-01     3.45246e-01
 f20bf                                  9      0.0000       0.00000       A     3.03109e-01     3.45246e-01
 cl21bf                                17      0.0000       0.00000       A     3.46875e-01     1.10046e+00
 o22bf                                  8      0.0000       0.00000       A     3.24033e-01     3.87026e-01
 n23bf                                  7      0.0000       0.00000       A     3.27424e-01     4.58548e-01
 h24bf                                  1      0.0000       0.00000       A     2.42181e-01     8.84222e-02
 h25bf                                  1      0.0000       0.00000       A     2.42181e-01     8.84222e-02
 h26bf                                  1      0.0000       0.00000       A     2.62760e-01     6.80213e-02
 h27bf                                  1      0.0000       0.00000       A     2.62359e-01     6.70541e-02
 h28bf                                  1      0.0000       0.00000       A     2.62525e-01     6.72408e-02
 h29bf                                  1      0.0000       0.00000       A     2.62559e-01     6.73477e-02
 h30bf                                  1      0.0000       0.00000       A     2.62439e-01     6.70764e-02
 h31bf                                  1      0.0000       0.00000       A     2.62428e-01     6.73733e-02
 h32bf                                  1      0.0000       0.00000       A     2.06356e-01     8.82610e-02
 h33bf                                  1      0.0000       0.00000       A     5.36245e-02     2.02605e-02

[ moleculetype ]
;name             nrexcl
 43                    3

[ atoms ]
;       nr            type      resi   res      atom      cgnr      charge          mass ; qtot
         1            c0bf         1   UNL        c0         1     0.20393       12.0110 ; qtot    0.204
         2            c1bf         1   UNL        c1         2     0.10179       12.0110 ; qtot    0.306
         3            c2bf         1   UNL        c2         3     0.02416       12.0110 ; qtot    0.330
         4            c3bf         1   UNL        c3         4    -0.22087       12.0110 ; qtot    0.109
         5            c4bf         1   UNL        c4         5    -0.00484       12.0110 ; qtot    0.104
         6            c5bf         1   UNL        c5         6    -0.13626       12.0110 ; qtot   -0.032
         7            c6bf         1   UNL        c6         7     0.13954       12.0110 ; qtot    0.107
         8            o7bf         1   UNL        o7         8    -0.24139       15.9990 ; qtot   -0.134
         9            c8bf         1   UNL        c8         9     0.12331       12.0110 ; qtot   -0.011
        10            c9bf         1   UNL        c9        10    -0.11943       12.0110 ; qtot   -0.130
        11           c10bf         1   UNL       c10        11    -0.09281       12.0110 ; qtot   -0.223
        12           c11bf         1   UNL       c11        12    -0.09376       12.0110 ; qtot   -0.317
        13           c12bf         1   UNL       c12        13     0.01136       12.0110 ; qtot   -0.305
        14           c13bf         1   UNL       c13        14     0.31628       12.0110 ; qtot    0.011
        15           c14bf         1   UNL       c14        15    -0.10301       12.0110 ; qtot   -0.092
        16           s15bf         1   UNL       s15        16     0.93760       32.0670 ; qtot    0.846
        17           o16bf         1   UNL       o16        17    -0.47215       15.9990 ; qtot    0.373
        18           o17bf         1   UNL       o17        18    -0.47215       15.9990 ; qtot   -0.099
        19           c18bf         1   UNL       c18        19     0.04879       12.0110 ; qtot   -0.050
        20           f19bf         1   UNL       f19        20    -0.09019       18.9980 ; qtot   -0.140
        21           f20bf         1   UNL       f20        21    -0.09019       18.9980 ; qtot   -0.230
        22          cl21bf         1   UNL      cl21        22    -0.17586       35.4530 ; qtot   -0.406
        23           o22bf         1   UNL       o22        23    -0.66203       15.9990 ; qtot   -1.068
        24           n23bf         1   UNL       n23        24    -0.44663       14.0070 ; qtot   -1.515
        25           h24bf         1   UNL       h24        25     0.06330        1.0080 ; qtot   -1.452
        26           h25bf         1   UNL       h25        26     0.06330        1.0080 ; qtot   -1.388
        27           h26bf         1   UNL       h26        27     0.15408        1.0080 ; qtot   -1.234
        28           h27bf         1   UNL       h27        28     0.14096        1.0080 ; qtot   -1.093
        29           h28bf         1   UNL       h28        29     0.13369        1.0080 ; qtot   -0.959
        30           h29bf         1   UNL       h29        30     0.12924        1.0080 ; qtot   -0.830
        31           h30bf         1   UNL       h30        31     0.13031        1.0080 ; qtot   -0.700
        32           h31bf         1   UNL       h31        32     0.14307        1.0080 ; qtot   -0.557
        33           h32bf         1   UNL       h32        33     0.10649        1.0080 ; qtot   -0.450
        34           h33bf         1   UNL       h33        34     0.45037        1.0080 ; qtot   -0.000

[ bonds ]
;       ai        aj funct               r               k
         1         3     1        0.151982   179842.462451
         1        23     1        0.142844   210692.426978
         1        25     1        0.109258   301002.716064
         1        26     1        0.109258   301002.716064
         2         3     1        0.140386   274337.147363
         2         7     1        0.140574   267637.895313
         2        22     1        0.175113   150974.701123
         3         4     1        0.141127   264121.052295
         4         5     1        0.139517   303787.844287
         4        16     1        0.180905   119652.951270
         5         6     1        0.139256   324824.242432
         5        27     1        0.108362   328329.721436
         6         7     1        0.139620   296532.725977
         6        28     1        0.108420   325745.417041
         7         8     1        0.137592   248958.878809
         8         9     1        0.138150   240097.220947
         9        10     1        0.139899   293250.058252
         9        15     1        0.139555   299062.891699
        10        11     1        0.139750   315385.624658
        10        29     1        0.108467   324338.986279
        11        12     1        0.139537   312931.048779
        11        30     1        0.108541   323301.643359
        12        13     1        0.140545   292076.781299
        12        31     1        0.108458   326037.229590
        13        14     1        0.143738   269489.591113
        13        15     1        0.140444   297548.030371
        14        24     1        0.116541  1105043.226953
        15        32     1        0.108412   326717.333887
        16        17     1        0.146727   520794.717383
        16        18     1        0.146727   520794.717383
        16        19     1        0.188129   131094.878662
        19        20     1        0.135555   266652.980078
        19        21     1        0.135555   266652.980078
        19        33     1        0.109155   319785.949512
        23        34     1        0.097153   465648.351172

[ angles ]
;       ai        aj        ak funct           theta             cth
         1         3         2     1      120.139404      504.859778
         1         3         4     1      123.658348      444.249843
         1        23        34     1      107.625870      583.878298
         2         3         4     1      116.186119      590.057257
         2         7         6     1      119.647583      572.412072
         2         7         8     1      119.956482      364.612144
         3         1        23     1      111.192993      649.233635
         3         1        25     1      109.564110      462.541564
         3         1        26     1      109.564110      462.541564
         3         2         7     1      121.835342      640.906047
         3         2        22     1      120.866310      343.026104
         3         4         5     1      122.217819      673.295976
         3         4        16     1      122.330734      505.830380
         4         5         6     1      119.812912      632.850557
         4         5        27     1      119.911781      363.089271
         4        16        17     1      109.331017      613.196177
         4        16        18     1      109.331017      613.196177
         4        16        19     1      102.821938      550.731896
         5         4        16     1      115.143448      554.100943
         5         6         7     1      119.858536      720.481659
         5         6        28     1      121.042664      418.068624
         6         5        27     1      120.825356      398.398155
         6         7         8     1      120.349449      491.076826
         7         2        22     1      117.486679      342.458287
         7         6        28     1      118.985458      419.735910
         7         8         9     1      118.628258      428.523995
         8         9        10     1      119.862228      512.715695
         8         9        15     1      119.499588      493.096300
         9        10        11     1      119.509300      727.056443
         9        10        29     1      119.607742      426.457533
         9        15        13     1      119.023354      684.435199
         9        15        32     1      120.259476      417.108844
        10         9        15     1      120.668991      635.022744
        10        11        12     1      120.710892      717.450596
        10        11        30     1      119.565659      427.213431
        11        10        29     1      120.962036      417.805336
        11        12        13     1      119.072487      646.869217
        11        12        31     1      121.099228      421.280873
        12        11        30     1      119.802902      429.905904
        12        13        14     1      119.789818      482.386037
        12        13        15     1      120.721359      690.798089
        13        12        31     1      119.892273      422.193601
        13        14        24     1      179.657593      167.360000
        13        15        32     1      120.601486      405.788562
        14        13        15     1      119.325401      474.456509
        16        19        20     1      108.959946      512.821770
        16        19        21     1      108.959946      512.821770
        16        19        33     1      108.671288      474.982414
        17        16        18     1      121.463051      720.854948
        17        16        19     1      105.655907      445.755032
        18        16        19     1      105.655907      445.755032
        20        19        21     1      108.754395      734.916063
        20        19        33     1      110.548447      439.039762
        21        19        33     1      110.548447      439.039762
        23         1        25     1      109.012573      444.097291
        23         1        26     1      109.012573      444.097291
        25         1        26     1      107.750168      332.714411

[ dihedrals ] ; propers for gromacs 4.5 or higher, use funct 9
;       ai        aj        ak        al funct           phase               k        pn
         1         3         2         7     9        0.000000        0.201736         1
         1         3         2         7     9      180.000000       14.456454         2
         1         3         2         7     9        0.000000       -0.112158         3
         1         3         2         7     9      180.000000       -0.371796         4
         1         3         2        22     9        0.000000        0.240468         1
         1         3         2        22     9      180.000000       16.631780         2
         1         3         2        22     9        0.000000        0.096916         3
         1         3         2        22     9      180.000000       -0.627761         4
         1         3         4         5     9        0.000000        0.134611         1
         1         3         4         5     9      180.000000       15.549408         2
         1         3         4         5     9        0.000000       -0.195412         3
         1         3         4         5     9      180.000000       -0.513594         4
         1         3         4        16     9        0.000000       -0.022945         1
         1         3         4        16     9      180.000000       11.482447         2
         1         3         4        16     9        0.000000        0.179115         3
         1         3         4        16     9      180.000000       -0.561609         4
         2         3         1        23     9        0.000000        0.714940         1
         2         3         1        23     9      180.000000       -0.289864         2
         2         3         1        23     9        0.000000        0.307706         3
         2         3         1        23     9      180.000000        0.165517         4
         2         3         1        25     9        0.000000       -0.023585         1
         2         3         1        25     9      180.000000        0.216674         2
         2         3         1        25     9        0.000000        0.023350         3
         2         3         1        25     9      180.000000       -0.066312         4
         2         3         1        26     9        0.000000       -0.023585         1
         2         3         1        26     9      180.000000        0.216674         2
         2         3         1        26     9        0.000000        0.023350         3
         2         3         1        26     9      180.000000       -0.066312         4
         2         3         4         5     9        0.000000        0.096560         1
         2         3         4         5     9      180.000000       18.391096         2
         2         3         4         5     9        0.000000       -1.464758         3
         2         3         4         5     9      180.000000       -0.549514         4
         2         3         4        16     9        0.000000       -0.179488         1
         2         3         4        16     9      180.000000       11.189429         2
         2         3         4        16     9        0.000000        0.192563         3
         2         3         4        16     9      180.000000       -0.568509         4
         2         7         6         5     9        0.000000       -0.006918         1
         2         7         6         5     9      180.000000       17.331755         2
         2         7         6         5     9        0.000000       -1.046661         3
         2         7         6         5     9      180.000000       -0.379861         4
         2         7         6        28     9        0.000000       -0.015332         1
         2         7         6        28     9      180.000000       12.954638         2
         2         7         6        28     9        0.000000       -0.537299         3
         2         7         6        28     9      180.000000        0.084975         4
         2         7         8         9     9        0.000000        2.052785         1
         2         7         8         9     9      180.000000        2.840708         2
         2         7         8         9     9        0.000000        0.782382         3
         2         7         8         9     9      180.000000       -0.092280         4
         3         1        23        34     9        0.000000        2.305619         1
         3         1        23        34     9      180.000000       -2.845592         2
         3         1        23        34     9        0.000000        0.781503         3
         3         1        23        34     9      180.000000        0.234148         4
         3         2         7         6     9        0.000000       -0.069695         1
         3         2         7         6     9      180.000000       14.964270         2
         3         2         7         6     9        0.000000       -0.815756         3
         3         2         7         6     9      180.000000       -0.246905         4
         3         2         7         8     9        0.000000        0.419245         1
         3         2         7         8     9      180.000000       16.065193         2
         3         2         7         8     9        0.000000        0.103003         3
         3         2         7         8     9      180.000000       -0.196081         4
         3         4         5         6     9        0.000000       -0.028669         1
         3         4         5         6     9      180.000000       18.891248         2
         3         4         5         6     9        0.000000       -1.746724         3
         3         4         5         6     9      180.000000       -0.411084         4
         3         4         5        27     9        0.000000        0.283500         1
         3         4         5        27     9      180.000000       14.788115         2
         3         4         5        27     9        0.000000       -0.576348         3
         3         4         5        27     9      180.000000       -0.014539         4
         3         4        16        17     9        0.000000        0.479037         1
         3         4        16        17     9      180.000000        0.932470         2
         3         4        16        17     9        0.000000        0.336425         3
         3         4        16        17     9      180.000000       -0.096828         4
         3         4        16        18     9        0.000000        0.479037         1
         3         4        16        18     9      180.000000        0.932470         2
         3         4        16        18     9        0.000000        0.336425         3
         3         4        16        18     9      180.000000       -0.096828         4
         3         4        16        19     9        0.000000        1.097615         1
         3         4        16        19     9      180.000000       -2.398793         2
         3         4        16        19     9        0.000000        0.444913         3
         3         4        16        19     9      180.000000        0.120860         4
         4         3         1        23     9        0.000000       -1.469887         1
         4         3         1        23     9      180.000000        1.124667         2
         4         3         1        23     9        0.000000       -0.315336         3
         4         3         1        23     9      180.000000        0.344008         4
         4         3         1        25     9        0.000000       -0.067629         1
         4         3         1        25     9      180.000000        0.211181         2
         4         3         1        25     9        0.000000       -0.497390         3
         4         3         1        25     9      180.000000       -0.065928         4
         4         3         1        26     9        0.000000       -0.067629         1
         4         3         1        26     9      180.000000        0.211181         2
         4         3         1        26     9        0.000000       -0.497390         3
         4         3         1        26     9      180.000000       -0.065928         4
         4         3         2         7     9        0.000000       -0.259536         1
         4         3         2         7     9      180.000000       17.531519         2
         4         3         2         7     9        0.000000       -1.447509         3
         4         3         2         7     9      180.000000       -0.609245         4
         4         3         2        22     9        0.000000        0.350466         1
         4         3         2        22     9      180.000000       18.824339         2
         4         3         2        22     9        0.000000        0.287066         3
         4         3         2        22     9      180.000000       -0.903747         4
         4         5         6         7     9        0.000000       -0.290350         1
         4         5         6         7     9      180.000000       18.241249         2
         4         5         6         7     9        0.000000       -1.793723         3
         4         5         6         7     9      180.000000       -0.451801         4
         4         5         6        28     9        0.000000        0.161800         1
         4         5         6        28     9      180.000000       14.657501         2
         4         5         6        28     9        0.000000       -0.713018         3
         4         5         6        28     9      180.000000        0.050664         4
         4        16        19        20     9        0.000000       -0.021504         1
         4        16        19        20     9      180.000000       -0.264820         2
         4        16        19        20     9        0.000000        0.249498         3
         4        16        19        20     9      180.000000       -0.026385         4
         4        16        19        21     9        0.000000       -0.021504         1
         4        16        19        21     9      180.000000       -0.264820         2
         4        16        19        21     9        0.000000        0.249498         3
         4        16        19        21     9      180.000000       -0.026385         4
         4        16        19        33     9        0.000000        0.025867         1
         4        16        19        33     9      180.000000       -0.095290         2
         4        16        19        33     9        0.000000        0.381548         3
         4        16        19        33     9      180.000000       -0.054822         4
         5         4        16        17     9        0.000000        0.061489         1
         5         4        16        17     9      180.000000        0.881419         2
         5         4        16        17     9        0.000000       -0.058980         3
         5         4        16        17     9      180.000000        0.033233         4
         5         4        16        18     9        0.000000        0.061489         1
         5         4        16        18     9      180.000000        0.881419         2
         5         4        16        18     9        0.000000       -0.058980         3
         5         4        16        18     9      180.000000        0.033233         4
         5         4        16        19     9        0.000000        0.239041         1
         5         4        16        19     9      180.000000       -1.549059         2
         5         4        16        19     9        0.000000       -0.256540         3
         5         4        16        19     9      180.000000        0.187112         4
         5         6         7         8     9        0.000000        0.454769         1
         5         6         7         8     9      180.000000       19.753385         2
         5         6         7         8     9        0.000000        0.457337         3
         5         6         7         8     9      180.000000       -0.383091         4
         6         5         4        16     9        0.000000       -0.379158         1
         6         5         4        16     9      180.000000       13.844184         2
         6         5         4        16     9        0.000000       -0.066634         3
         6         5         4        16     9      180.000000       -0.369958         4
         6         7         2        22     9        0.000000        0.291405         1
         6         7         2        22     9      180.000000       15.935332         2
         6         7         2        22     9        0.000000        0.183681         3
         6         7         2        22     9      180.000000       -0.293588         4
         6         7         8         9     9        0.000000       -1.564971         1
         6         7         8         9     9      180.000000        4.698171         2
         6         7         8         9     9        0.000000       -0.943368         3
         6         7         8         9     9      180.000000        0.353728         4
         7         6         5        27     9        0.000000        0.133846         1
         7         6         5        27     9      180.000000       14.967622         2
         7         6         5        27     9        0.000000       -0.520413         3
         7         6         5        27     9      180.000000        0.055528         4
         7         8         9        10     9        0.000000       -0.131351         1
         7         8         9        10     9      180.000000        5.118303         2
         7         8         9        10     9        0.000000        0.056263         3
         7         8         9        10     9      180.000000        0.265502         4
         7         8         9        15     9        0.000000       -0.173441         1
         7         8         9        15     9      180.000000        5.099816         2
         7         8         9        15     9        0.000000       -0.079105         3
         7         8         9        15     9      180.000000        0.272575         4
         8         7         2        22     9        0.000000       -0.151435         1
         8         7         2        22     9      180.000000       19.329234         2
         8         7         2        22     9        0.000000        0.028641         3
         8         7         2        22     9      180.000000       -0.647486         4
         8         7         6        28     9        0.000000        0.212574         1
         8         7         6        28     9      180.000000       14.643210         2
         8         7         6        28     9        0.000000        0.133279         3
         8         7         6        28     9      180.000000        0.277182         4
         8         9        10        11     9        0.000000        0.673373         1
         8         9        10        11     9      180.000000       18.013871         2
         8         9        10        11     9        0.000000        0.427886         3
         8         9        10        11     9      180.000000       -0.210109         4
         8         9        10        29     9        0.000000        0.209440         1
         8         9        10        29     9      180.000000       13.728241         2
         8         9        10        29     9        0.000000        0.023057         3
         8         9        10        29     9      180.000000        0.315540         4
         8         9        15        13     9        0.000000        0.466738         1
         8         9        15        13     9      180.000000       17.788452         2
         8         9        15        13     9        0.000000        0.445226         3
         8         9        15        13     9      180.000000       -0.191386         4
         8         9        15        32     9        0.000000        0.249800         1
         8         9        15        32     9      180.000000       13.666958         2
         8         9        15        32     9        0.000000        0.056024         3
         8         9        15        32     9      180.000000        0.337046         4
         9        10        11        12     9        0.000000       -0.064379         1
         9        10        11        12     9      180.000000       18.630790         2
         9        10        11        12     9        0.000000       -1.487915         3
         9        10        11        12     9      180.000000       -0.466837         4
         9        10        11        30     9        0.000000        0.006312         1
         9        10        11        30     9      180.000000       14.617491         2
         9        10        11        30     9        0.000000       -0.525955         3
         9        10        11        30     9      180.000000        0.053005         4
         9        15        13        12     9        0.000000       -0.112409         1
         9        15        13        12     9      180.000000       18.217986         2
         9        15        13        12     9        0.000000       -1.660806         3
         9        15        13        12     9      180.000000       -0.422625         4
         9        15        13        14     9        0.000000       -0.087370         1
         9        15        13        14     9      180.000000       16.233632         2
         9        15        13        14     9        0.000000       -0.110471         3
         9        15        13        14     9      180.000000       -0.297943         4
        10         9        15        13     9        0.000000       -0.101136         1
        10         9        15        13     9      180.000000       16.734590         2
        10         9        15        13     9        0.000000       -0.912060         3
        10         9        15        13     9      180.000000       -0.219209         4
        10         9        15        32     9        0.000000        0.051722         1
        10         9        15        32     9      180.000000       12.728595         2
        10         9        15        32     9        0.000000       -0.485291         3
        10         9        15        32     9      180.000000        0.183981         4
        10        11        12        13     9        0.000000       -0.146510         1
        10        11        12        13     9      180.000000       18.927990         2
        10        11        12        13     9        0.000000       -1.518533         3
        10        11        12        13     9      180.000000       -0.444172         4
        10        11        12        31     9        0.000000        0.019043         1
        10        11        12        31     9      180.000000       14.885020         2
        10        11        12        31     9        0.000000       -0.719626         3
        10        11        12        31     9      180.000000        0.058608         4
        11        10         9        15     9        0.000000        0.039295         1
        11        10         9        15     9      180.000000       16.573070         2
        11        10         9        15     9        0.000000       -0.886343         3
        11        10         9        15     9      180.000000       -0.205623         4
        11        12        13        14     9        0.000000        0.059856         1
        11        12        13        14     9      180.000000       16.969509         2
        11        12        13        14     9        0.000000       -0.049690         3
        11        12        13        14     9      180.000000       -0.298569         4
        11        12        13        15     9        0.000000       -0.079221         1
        11        12        13        15     9      180.000000       18.499359         2
        11        12        13        15     9        0.000000       -1.596728         3
        11        12        13        15     9      180.000000       -0.419471         4
        12        11        10        29     9        0.000000        0.075981         1
        12        11        10        29     9      180.000000       14.187473         2
        12        11        10        29     9        0.000000       -0.587459         3
        12        11        10        29     9      180.000000        0.121953         4
        12        13        14        24     9        0.000000        0.000000         1
        12        13        14        24     9      180.000000        0.000000         2
        12        13        14        24     9        0.000000        0.000000         3
        12        13        14        24     9      180.000000        0.000000         4
        12        13        15        32     9        0.000000       -0.050028         1
        12        13        15        32     9      180.000000       13.978883         2
        12        13        15        32     9        0.000000       -0.654211         3
        12        13        15        32     9      180.000000        0.031482         4
        13        12        11        30     9        0.000000       -0.024931         1
        13        12        11        30     9      180.000000       14.495108         2
        13        12        11        30     9        0.000000       -0.568559         3
        13        12        11        30     9      180.000000        0.123923         4
        14        13        12        31     9        0.000000        0.047503         1
        14        13        12        31     9      180.000000       12.848971         2
        14        13        12        31     9        0.000000       -0.299787         3
        14        13        12        31     9      180.000000        0.127365         4
        14        13        15        32     9        0.000000        0.047747         1
        14        13        15        32     9      180.000000       12.745745         2
        14        13        15        32     9        0.000000       -0.297321         3
        14        13        15        32     9      180.000000        0.169951         4
        15         9        10        29     9        0.000000        0.136674         1
        15         9        10        29     9      180.000000       12.821937         2
        15         9        10        29     9        0.000000       -0.487540         3
        15         9        10        29     9      180.000000        0.148670         4
        15        13        12        31     9        0.000000       -0.033282         1
        15        13        12        31     9      180.000000       14.401695         2
        15        13        12        31     9        0.000000       -0.708023         3
        15        13        12        31     9      180.000000        0.008932         4
        15        13        14        24     9        0.000000        0.000000         1
        15        13        14        24     9      180.000000        0.000000         2
        15        13        14        24     9        0.000000        0.000000         3
        15        13        14        24     9      180.000000        0.000000         4
        16         4         5        27     9        0.000000        0.234663         1
        16         4         5        27     9      180.000000       11.876670         2
        16         4         5        27     9        0.000000       -0.176141         3
        16         4         5        27     9      180.000000        0.029409         4
        17        16        19        20     9        0.000000        0.156131         1
        17        16        19        20     9      180.000000        0.101897         2
        17        16        19        20     9        0.000000        0.208368         3
        17        16        19        20     9      180.000000        0.119328         4
        17        16        19        21     9        0.000000        0.156131         1
        17        16        19        21     9      180.000000        0.101897         2
        17        16        19        21     9        0.000000        0.208368         3
        17        16        19        21     9      180.000000        0.119328         4
        17        16        19        33     9        0.000000       -0.275972         1
        17        16        19        33     9      180.000000        0.098373         2
        17        16        19        33     9        0.000000        0.269827         3
        17        16        19        33     9      180.000000       -0.014572         4
        18        16        19        20     9        0.000000        0.156131         1
        18        16        19        20     9      180.000000        0.101897         2
        18        16        19        20     9        0.000000        0.208368         3
        18        16        19        20     9      180.000000        0.119328         4
        18        16        19        21     9        0.000000        0.156131         1
        18        16        19        21     9      180.000000        0.101897         2
        18        16        19        21     9        0.000000        0.208368         3
        18        16        19        21     9      180.000000        0.119328         4
        18        16        19        33     9        0.000000       -0.275972         1
        18        16        19        33     9      180.000000        0.098373         2
        18        16        19        33     9        0.000000        0.269827         3
        18        16        19        33     9      180.000000       -0.014572         4
        25         1        23        34     9        0.000000       -0.022243         1
        25         1        23        34     9      180.000000       -0.081159         2
        25         1        23        34     9        0.000000        0.818737         3
        25         1        23        34     9      180.000000        0.093817         4
        26         1        23        34     9        0.000000       -0.022243         1
        26         1        23        34     9      180.000000       -0.081159         2
        26         1        23        34     9        0.000000        0.818737         3
        26         1        23        34     9      180.000000        0.093817         4
        27         5         6        28     9        0.000000       -0.061853         1
        27         5         6        28     9      180.000000       12.834532         2
        27         5         6        28     9        0.000000       -0.859009         3
        27         5         6        28     9      180.000000        0.275162         4
        29        10        11        30     9        0.000000       -0.118813         1
        29        10        11        30     9      180.000000       11.947974         2
        29        10        11        30     9        0.000000       -0.588118         3
        29        10        11        30     9      180.000000        0.208989         4
        30        11        12        31     9        0.000000       -0.174245         1
        30        11        12        31     9      180.000000       11.809367         2
        30        11        12        31     9        0.000000       -0.635349         3
        30        11        12        31     9      180.000000        0.287123         4

[ dihedrals ] ; impropers
;       ai        aj        ak        al funct           phase               k        pn
         6         5         7        28     4      180.000000        0.188968         2
         6         7        28         5     4      180.000000        0.188968         2
         6        28         5         7     4      180.000000        0.188968         2

[ pairs ]
;       ai        aj funct
         1         5     1
         1         7     1
         1        16     1
         1        22     1
         2         5     1
         2         9     1
         2        16     1
         2        23     1
         2        25     1
         2        26     1
         2        28     1
         3         6     1
         3         8     1
         3        17     1
         3        18     1
         3        19     1
         3        27     1
         3        34     1
         4         7     1
         4        20     1
         4        21     1
         4        22     1
         4        23     1
         4        25     1
         4        26     1
         4        28     1
         4        33     1
         5         8     1
         5        17     1
         5        18     1
         5        19     1
         6         9     1
         6        16     1
         6        22     1
         7        10     1
         7        15     1
         7        27     1
         8        11     1
         8        13     1
         8        22     1
         8        28     1
         8        29     1
         8        32     1
         9        12     1
         9        14     1
         9        30     1
        10        13     1
        10        31     1
        10        32     1
        11        14     1
        11        15     1
        12        24     1
        12        29     1
        12        32     1
        13        30     1
        14        31     1
        14        32     1
        15        24     1
        15        29     1
        15        31     1
        16        27     1
        17        20     1
        17        21     1
        17        33     1
        18        20     1
        18        21     1
        18        33     1
        25        34     1
        26        34     1
        27        28     1
        29        30     1
        30        31     1
