; ITP file created by ByteFF-ML, 2026-02-21 07:41:01.446124

[ atomtypes ]
;name           bonded.type        at.num        mass        charge   ptype           sigma         epsilon
 c0bf                                   6      0.0000       0.00000       A     3.39890e-01     4.51984e-01
 c1bf                                   6      0.0000       0.00000       A     3.31452e-01     4.15945e-01
 c2bf                                   6      0.0000       0.00000       A     3.31319e-01     4.12204e-01
 c3bf                                   6      0.0000       0.00000       A     3.31620e-01     4.08929e-01
 c4bf                                   6      0.0000       0.00000       A     3.31206e-01     4.13566e-01
 c5bf                                   6      0.0000       0.00000       A     3.31501e-01     4.13656e-01
 c6bf                                   6      0.0000       0.00000       A     3.31592e-01     4.14499e-01
 o7bf                                   8      0.0000       0.00000       A     3.16111e-01     3.04323e-01
 c8bf                                   6      0.0000       0.00000       A     3.31496e-01     4.12748e-01
 c9bf                                   6      0.0000       0.00000       A     3.31476e-01     4.13674e-01
 c10bf                                  6      0.0000       0.00000       A     3.31507e-01     4.13830e-01
 c11bf                                  6      0.0000       0.00000       A     3.31531e-01     4.12809e-01
 c12bf                                  6      0.0000       0.00000       A     3.31451e-01     4.12357e-01
 cl13bf                                17      0.0000       0.00000       A     3.46680e-01     1.10314e+00
 c14bf                                  6      0.0000       0.00000       A     3.31433e-01     4.12921e-01
 s15bf                                 16      0.0000       0.00000       A     4.06143e-01     2.57503e-01
 o16bf                                  8      0.0000       0.00000       A     3.05054e-01     6.11920e-01
 c17bf                                  6      0.0000       0.00000       A     3.39719e-01     4.49503e-01
 c18bf                                  6      0.0000       0.00000       A     3.47839e-01     6.70122e-01
 n19bf                                  7      0.0000       0.00000       A     3.27279e-01     4.59673e-01
 f20bf                                  9      0.0000       0.00000       A     3.03490e-01     3.47565e-01
 o21bf                                  8      0.0000       0.00000       A     3.05054e-01     6.11920e-01
 h22bf                                  1      0.0000       0.00000       A     2.60053e-01     8.68246e-02
 h23bf                                  1      0.0000       0.00000       A     2.60053e-01     8.68246e-02
 h24bf                                  1      0.0000       0.00000       A     2.60053e-01     8.68246e-02
 h25bf                                  1      0.0000       0.00000       A     2.62760e-01     6.80213e-02
 h26bf                                  1      0.0000       0.00000       A     2.62411e-01     6.71450e-02
 h27bf                                  1      0.0000       0.00000       A     2.62432e-01     6.69886e-02
 h28bf                                  1      0.0000       0.00000       A     2.62494e-01     6.73860e-02
 h29bf                                  1      0.0000       0.00000       A     2.62455e-01     6.71195e-02
 h30bf                                  1      0.0000       0.00000       A     2.42021e-01     8.71597e-02
 h31bf                                  1      0.0000       0.00000       A     2.42021e-01     8.71597e-02
 h32bf                                  1      0.0000       0.00000       A     2.42021e-01     8.71597e-02

[ moleculetype ]
;name             nrexcl
 50_flip               3

[ atoms ]
;       nr            type      resi   res      atom      cgnr      charge          mass ; qtot
         1            c0bf         1   UNL        c0         1    -0.07837       12.0110 ; qtot   -0.078
         2            c1bf         1   UNL        c1         2    -0.06201       12.0110 ; qtot   -0.140
         3            c2bf         1   UNL        c2         3     0.09910       12.0110 ; qtot   -0.041
         4            c3bf         1   UNL        c3         4    -0.26718       12.0110 ; qtot   -0.308
         5            c4bf         1   UNL        c4         5     0.01385       12.0110 ; qtot   -0.295
         6            c5bf         1   UNL        c5         6    -0.16107       12.0110 ; qtot   -0.456
         7            c6bf         1   UNL        c6         7     0.18496       12.0110 ; qtot   -0.271
         8            o7bf         1   UNL        o7         8    -0.23830       15.9990 ; qtot   -0.509
         9            c8bf         1   UNL        c8         9     0.15686       12.0110 ; qtot   -0.352
        10            c9bf         1   UNL        c9        10    -0.18162       12.0110 ; qtot   -0.534
        11           c10bf         1   UNL       c10        11     0.19848       12.0110 ; qtot   -0.335
        12           c11bf         1   UNL       c11        12    -0.15953       12.0110 ; qtot   -0.495
        13           c12bf         1   UNL       c12        13     0.16854       12.0110 ; qtot   -0.326
        14          cl13bf         1   UNL      cl13        14    -0.19362       35.4530 ; qtot   -0.520
        15           c14bf         1   UNL       c14        15    -0.14470       12.0110 ; qtot   -0.665
        16           s15bf         1   UNL       s15        16     0.99044       32.0670 ; qtot    0.326
        17           o16bf         1   UNL       o16        17    -0.50909       15.9990 ; qtot   -0.183
        18           c17bf         1   UNL       c17        18    -0.29986       12.0110 ; qtot   -0.483
        19           c18bf         1   UNL       c18        19     0.32202       12.0110 ; qtot   -0.161
        20           n19bf         1   UNL       n19        20    -0.44225       14.0070 ; qtot   -0.603
        21           f20bf         1   UNL       f20        21    -0.16767       18.9980 ; qtot   -0.771
        22           o21bf         1   UNL       o21        22    -0.50909       15.9990 ; qtot   -1.280
        23           h22bf         1   UNL       h22        23     0.07470        1.0080 ; qtot   -1.205
        24           h23bf         1   UNL       h23        24     0.07470        1.0080 ; qtot   -1.131
        25           h24bf         1   UNL       h24        25     0.07470        1.0080 ; qtot   -1.056
        26           h25bf         1   UNL       h25        26     0.14728        1.0080 ; qtot   -0.909
        27           h26bf         1   UNL       h26        27     0.14551        1.0080 ; qtot   -0.763
        28           h27bf         1   UNL       h27        28     0.15220        1.0080 ; qtot   -0.611
        29           h28bf         1   UNL       h28        29     0.15184        1.0080 ; qtot   -0.459
        30           h29bf         1   UNL       h29        30     0.14886        1.0080 ; qtot   -0.310
        31           h30bf         1   UNL       h30        31     0.10344        1.0080 ; qtot   -0.207
        32           h31bf         1   UNL       h31        32     0.10344        1.0080 ; qtot   -0.103
        33           h32bf         1   UNL       h32        33     0.10344        1.0080 ; qtot   -0.000

[ bonds ]
;       ai        aj funct               r               k
         1         3     1        0.150928   197765.159155
         1        23     1        0.109147   309592.454785
         1        24     1        0.109147   309592.454785
         1        25     1        0.109147   309592.454785
         2         3     1        0.141292   269266.779834
         2         7     1        0.140966   270788.408496
         2        19     1        0.143410   267345.291113
         3         4     1        0.140796   268795.594629
         4         5     1        0.139788   297098.194189
         4        16     1        0.181563   121360.758228
         5         6     1        0.139303   325274.589355
         5        26     1        0.108424   325986.078760
         6         7     1        0.139567   299368.596436
         6        27     1        0.108392   326853.038086
         7         8     1        0.137100   252728.871191
         8         9     1        0.138490   235370.889355
         9        10     1        0.139790   297731.463428
         9        15     1        0.139822   294862.982080
        10        11     1        0.139024   313529.434326
        10        28     1        0.108349   328619.618701
        11        12     1        0.139159   303726.478613
        11        21     1        0.135316   295881.989355
        12        13     1        0.139621   301625.770459
        12        29     1        0.108325   330266.123828
        13        14     1        0.175353   151234.707202
        13        15     1        0.139502   308685.759717
        15        30     1        0.108316   328834.462402
        16        17     1        0.147238   502656.015039
        16        18     1        0.180957   139246.668726
        16        22     1        0.147238   502656.015039
        18        31     1        0.109033   319041.466162
        18        32     1        0.109033   319041.466162
        18        33     1        0.109033   319041.440625
        19        20     1        0.116549  1103378.820312

[ angles ]
;       ai        aj        ak funct           theta             cth
         1         3         2     1      119.621964      479.218573
         1         3         4     1      123.501610      438.271638
         2         3         4     1      116.634750      620.842179
         2         7         6     1      120.129433      586.480466
         2         7         8     1      118.681030      469.848689
         2        19        20     1      177.705185      167.360000
         3         1        23     1      110.858665      488.379660
         3         1        24     1      110.858665      488.379660
         3         1        25     1      110.858665      488.379660
         3         2         7     1      121.142776      704.161658
         3         2        19     1      120.061424      465.730893
         3         4         5     1      121.912003      684.790612
         3         4        16     1      122.044151      586.860330
         4         5         6     1      120.533958      653.596267
         4         5        26     1      119.397324      363.910544
         4        16        17     1      108.007584      641.718319
         4        16        18     1      103.468094      648.549495
         4        16        22     1      108.007584      641.718319
         5         4        16     1      116.344276      543.698338
         5         6         7     1      119.330872      726.536699
         5         6        27     1      121.065369      420.071563
         6         5        26     1      120.393150      400.791205
         6         7         8     1      120.919090      509.684345
         7         2        19     1      118.825455      545.057104
         7         6        27     1      119.631004      427.758489
         7         8         9     1      118.963600      425.274271
         8         9        10     1      119.162560      521.271968
         8         9        15     1      119.112526      523.291825
         9        10        11     1      117.652672      760.099164
         9        10        28     1      121.545273      419.503299
         9        15        13     1      118.371681      720.828581
         9        15        30     1      120.596718      421.063233
        10         9        15     1      121.459671      596.201549
        10        11        12     1      123.345749      597.630159
        10        11        21     1      118.339966      543.602446
        11        10        28     1      120.739975      420.515494
        11        12        13     1      117.020103      665.933627
        11        12        29     1      120.856552      424.003895
        12        11        21     1      118.342018      543.320580
        12        13        14     1      118.932083      369.413536
        12        13        15     1      122.162613      626.672045
        13        12        29     1      122.166687      405.876857
        13        15        30     1      121.146500      394.349182
        14        13        15     1      118.917458      376.731354
        16        18        31     1      107.920090      565.000245
        16        18        32     1      107.920090      565.000245
        16        18        33     1      107.920090      565.000245
        17        16        18     1      107.327209      730.750131
        17        16        22     1      120.392860      738.737947
        18        16        22     1      107.327209      730.750131
        23         1        24     1      108.149315      351.805795
        23         1        25     1      108.149315      351.805795
        24         1        25     1      108.149315      351.805795
        31        18        32     1      111.062851      345.498799
        31        18        33     1      111.062851      345.498799
        32        18        33     1      111.062851      345.498799

[ dihedrals ] ; propers for gromacs 4.5 or higher, use funct 9
;       ai        aj        ak        al funct           phase               k        pn
         1         3         2         7     9        0.000000        0.168228         1
         1         3         2         7     9      180.000000       15.812392         2
         1         3         2         7     9        0.000000       -0.084951         3
         1         3         2         7     9      180.000000       -0.460391         4
         1         3         2        19     9        0.000000       -0.127167         1
         1         3         2        19     9      180.000000       17.370621         2
         1         3         2        19     9        0.000000        0.048059         3
         1         3         2        19     9      180.000000       -0.663817         4
         1         3         4         5     9        0.000000        0.077924         1
         1         3         4         5     9      180.000000       16.546558         2
         1         3         4         5     9        0.000000       -0.033018         3
         1         3         4         5     9      180.000000       -0.463367         4
         1         3         4        16     9        0.000000       -0.002267         1
         1         3         4        16     9      180.000000       13.517816         2
         1         3         4        16     9        0.000000        0.262324         3
         1         3         4        16     9      180.000000       -0.532688         4
         2         3         1        23     9        0.000000       -0.024692         1
         2         3         1        23     9      180.000000       -0.011447         2
         2         3         1        23     9        0.000000       -0.060254         3
         2         3         1        23     9      180.000000        0.073622         4
         2         3         1        24     9        0.000000       -0.024692         1
         2         3         1        24     9      180.000000       -0.011447         2
         2         3         1        24     9        0.000000       -0.060254         3
         2         3         1        24     9      180.000000        0.073622         4
         2         3         1        25     9        0.000000       -0.024692         1
         2         3         1        25     9      180.000000       -0.011447         2
         2         3         1        25     9        0.000000       -0.060254         3
         2         3         1        25     9      180.000000        0.073622         4
         2         3         4         5     9        0.000000       -0.337802         1
         2         3         4         5     9      180.000000       18.493598         2
         2         3         4         5     9        0.000000       -1.410588         3
         2         3         4         5     9      180.000000       -0.595569         4
         2         3         4        16     9        0.000000       -0.568787         1
         2         3         4        16     9      180.000000       13.211542         2
         2         3         4        16     9        0.000000        0.078421         3
         2         3         4        16     9      180.000000       -0.598407         4
         2         7         6         5     9        0.000000       -0.284191         1
         2         7         6         5     9      180.000000       16.851970         2
         2         7         6         5     9        0.000000       -1.122186         3
         2         7         6         5     9      180.000000       -0.426394         4
         2         7         6        27     9        0.000000       -0.021033         1
         2         7         6        27     9      180.000000       13.021940         2
         2         7         6        27     9        0.000000       -0.456348         3
         2         7         6        27     9      180.000000        0.067100         4
         2         7         8         9     9        0.000000       -1.155152         1
         2         7         8         9     9      180.000000        6.188535         2
         2         7         8         9     9        0.000000       -0.458946         3
         2         7         8         9     9      180.000000        0.248641         4
         3         2         7         6     9        0.000000       -0.146848         1
         3         2         7         6     9      180.000000       14.639210         2
         3         2         7         6     9        0.000000       -1.110299         3
         3         2         7         6     9      180.000000       -0.214552         4
         3         2         7         8     9        0.000000        0.430603         1
         3         2         7         8     9      180.000000       16.711981         2
         3         2         7         8     9        0.000000        0.376493         3
         3         2         7         8     9      180.000000       -0.293562         4
         3         2        19        20     9        0.000000        0.000000         1
         3         2        19        20     9      180.000000        0.000000         2
         3         2        19        20     9        0.000000        0.000000         3
         3         2        19        20     9      180.000000        0.000000         4
         3         4         5         6     9        0.000000       -0.106997         1
         3         4         5         6     9      180.000000       18.545655         2
         3         4         5         6     9        0.000000       -1.658991         3
         3         4         5         6     9      180.000000       -0.544564         4
         3         4         5        26     9        0.000000        0.025547         1
         3         4         5        26     9      180.000000       14.644247         2
         3         4         5        26     9        0.000000       -0.553474         3
         3         4         5        26     9      180.000000       -0.108479         4
         3         4        16        17     9        0.000000        0.199487         1
         3         4        16        17     9      180.000000        0.897551         2
         3         4        16        17     9        0.000000        0.611659         3
         3         4        16        17     9      180.000000       -0.142797         4
         3         4        16        18     9        0.000000        1.244399         1
         3         4        16        18     9      180.000000       -1.033268         2
         3         4        16        18     9        0.000000        0.647795         3
         3         4        16        18     9      180.000000        0.255074         4
         3         4        16        22     9        0.000000        0.199487         1
         3         4        16        22     9      180.000000        0.897551         2
         3         4        16        22     9        0.000000        0.611659         3
         3         4        16        22     9      180.000000       -0.142797         4
         4         3         1        23     9        0.000000       -0.052818         1
         4         3         1        23     9      180.000000        0.015077         2
         4         3         1        23     9        0.000000       -0.047106         3
         4         3         1        23     9      180.000000        0.076663         4
         4         3         1        24     9        0.000000       -0.052818         1
         4         3         1        24     9      180.000000        0.015077         2
         4         3         1        24     9        0.000000       -0.047106         3
         4         3         1        24     9      180.000000        0.076663         4
         4         3         1        25     9        0.000000       -0.052818         1
         4         3         1        25     9      180.000000        0.015077         2
         4         3         1        25     9        0.000000       -0.047106         3
         4         3         1        25     9      180.000000        0.076663         4
         4         3         2         7     9        0.000000       -0.280210         1
         4         3         2         7     9      180.000000       18.378655         2
         4         3         2         7     9        0.000000       -1.768134         3
         4         3         2         7     9      180.000000       -0.601987         4
         4         3         2        19     9        0.000000       -0.095722         1
         4         3         2        19     9      180.000000       18.214263         2
         4         3         2        19     9        0.000000       -0.110060         3
         4         3         2        19     9      180.000000       -0.686972         4
         4         5         6         7     9        0.000000       -0.285117         1
         4         5         6         7     9      180.000000       18.571348         2
         4         5         6         7     9        0.000000       -1.737461         3
         4         5         6         7     9      180.000000       -0.490300         4
         4         5         6        27     9        0.000000       -0.053862         1
         4         5         6        27     9      180.000000       14.332099         2
         4         5         6        27     9        0.000000       -0.743677         3
         4         5         6        27     9      180.000000        0.107510         4
         4        16        18        31     9        0.000000       -0.013859         1
         4        16        18        31     9      180.000000       -0.149470         2
         4        16        18        31     9        0.000000        0.324574         3
         4        16        18        31     9      180.000000       -0.022631         4
         4        16        18        32     9        0.000000       -0.013859         1
         4        16        18        32     9      180.000000       -0.149470         2
         4        16        18        32     9        0.000000        0.324574         3
         4        16        18        32     9      180.000000       -0.022631         4
         4        16        18        33     9        0.000000       -0.013859         1
         4        16        18        33     9      180.000000       -0.149470         2
         4        16        18        33     9        0.000000        0.324574         3
         4        16        18        33     9      180.000000       -0.022631         4
         5         4        16        17     9        0.000000        0.183536         1
         5         4        16        17     9      180.000000        0.915061         2
         5         4        16        17     9        0.000000       -0.191557         3
         5         4        16        17     9      180.000000        0.013285         4
         5         4        16        18     9        0.000000       -0.325773         1
         5         4        16        18     9      180.000000       -0.764190         2
         5         4        16        18     9        0.000000       -0.231886         3
         5         4        16        18     9      180.000000        0.359186         4
         5         4        16        22     9        0.000000        0.183536         1
         5         4        16        22     9      180.000000        0.915062         2
         5         4        16        22     9        0.000000       -0.191557         3
         5         4        16        22     9      180.000000        0.013285         4
         5         6         7         8     9        0.000000        0.601061         1
         5         6         7         8     9      180.000000       19.147439         2
         5         6         7         8     9        0.000000        0.529675         3
         5         6         7         8     9      180.000000       -0.403127         4
         6         5         4        16     9        0.000000       -0.129227         1
         6         5         4        16     9      180.000000       13.979456         2
         6         5         4        16     9        0.000000        0.092089         3
         6         5         4        16     9      180.000000       -0.421716         4
         6         7         2        19     9        0.000000       -0.195969         1
         6         7         2        19     9      180.000000       14.615584         2
         6         7         2        19     9        0.000000       -0.157749         3
         6         7         2        19     9      180.000000       -0.182393         4
         6         7         8         9     9        0.000000       -0.181378         1
         6         7         8         9     9      180.000000        5.491240         2
         6         7         8         9     9        0.000000       -0.202776         3
         6         7         8         9     9      180.000000        0.324960         4
         7         2        19        20     9        0.000000        0.000000         1
         7         2        19        20     9      180.000000        0.000000         2
         7         2        19        20     9        0.000000        0.000000         3
         7         2        19        20     9      180.000000        0.000000         4
         7         6         5        26     9        0.000000        0.137026         1
         7         6         5        26     9      180.000000       14.614339         2
         7         6         5        26     9        0.000000       -0.461481         3
         7         6         5        26     9      180.000000        0.088491         4
         7         8         9        10     9        0.000000       -0.056888         1
         7         8         9        10     9      180.000000        4.392563         2
         7         8         9        10     9        0.000000       -0.131600         3
         7         8         9        10     9      180.000000        0.285379         4
         7         8         9        15     9        0.000000       -0.166260         1
         7         8         9        15     9      180.000000        4.310211         2
         7         8         9        15     9        0.000000       -0.126869         3
         7         8         9        15     9      180.000000        0.289440         4
         8         7         2        19     9        0.000000       -0.317037         1
         8         7         2        19     9      180.000000       17.539378         2
         8         7         2        19     9        0.000000        0.153211         3
         8         7         2        19     9      180.000000       -0.559398         4
         8         7         6        27     9        0.000000        0.328974         1
         8         7         6        27     9      180.000000       14.486138         2
         8         7         6        27     9        0.000000        0.150455         3
         8         7         6        27     9      180.000000        0.297258         4
         8         9        10        11     9        0.000000        0.531837         1
         8         9        10        11     9      180.000000       18.791159         2
         8         9        10        11     9        0.000000        0.635957         3
         8         9        10        11     9      180.000000       -0.485369         4
         8         9        10        28     9        0.000000        0.296505         1
         8         9        10        28     9      180.000000       13.702696         2
         8         9        10        28     9        0.000000        0.013077         3
         8         9        10        28     9      180.000000        0.362288         4
         8         9        15        13     9        0.000000        0.588443         1
         8         9        15        13     9      180.000000       18.659477         2
         8         9        15        13     9        0.000000        0.546784         3
         8         9        15        13     9      180.000000       -0.462119         4
         8         9        15        30     9        0.000000        0.242982         1
         8         9        15        30     9      180.000000       13.776433         2
         8         9        15        30     9        0.000000        0.004885         3
         8         9        15        30     9      180.000000        0.371275         4
         9        10        11        12     9        0.000000        0.015864         1
         9        10        11        12     9      180.000000       17.241286         2
         9        10        11        12     9        0.000000       -1.255308         3
         9        10        11        12     9      180.000000       -0.420092         4
         9        10        11        21     9        0.000000        0.472591         1
         9        10        11        21     9      180.000000       22.974133         2
         9        10        11        21     9        0.000000        0.615899         3
         9        10        11        21     9      180.000000       -0.855982         4
         9        15        13        12     9        0.000000       -0.004955         1
         9        15        13        12     9      180.000000       17.677338         2
         9        15        13        12     9        0.000000       -1.386409         3
         9        15        13        12     9      180.000000       -0.418796         4
         9        15        13        14     9        0.000000        0.452576         1
         9        15        13        14     9      180.000000       19.182790         2
         9        15        13        14     9        0.000000        0.415438         3
         9        15        13        14     9      180.000000       -0.616508         4
        10         9        15        13     9        0.000000       -0.202834         1
        10         9        15        13     9      180.000000       16.823810         2
        10         9        15        13     9        0.000000       -1.183082         3
        10         9        15        13     9      180.000000       -0.295841         4
        10         9        15        30     9        0.000000        0.127451         1
        10         9        15        30     9      180.000000       12.831310         2
        10         9        15        30     9        0.000000       -0.577200         3
        10         9        15        30     9      180.000000        0.217576         4
        10        11        12        13     9        0.000000       -0.153902         1
        10        11        12        13     9      180.000000       17.278478         2
        10        11        12        13     9        0.000000       -1.225087         3
        10        11        12        13     9      180.000000       -0.427313         4
        10        11        12        29     9        0.000000        0.077115         1
        10        11        12        29     9      180.000000       12.786848         2
        10        11        12        29     9        0.000000       -0.562901         3
        10        11        12        29     9      180.000000        0.171887         4
        11        10         9        15     9        0.000000       -0.147143         1
        11        10         9        15     9      180.000000       16.633200         2
        11        10         9        15     9        0.000000       -1.118543         3
        11        10         9        15     9      180.000000       -0.226873         4
        11        12        13        14     9        0.000000        0.426515         1
        11        12        13        14     9      180.000000       19.269612         2
        11        12        13        14     9        0.000000        0.466542         3
        11        12        13        14     9      180.000000       -0.633614         4
        11        12        13        15     9        0.000000       -0.163258         1
        11        12        13        15     9      180.000000       17.887113         2
        11        12        13        15     9        0.000000       -1.359108         3
        11        12        13        15     9      180.000000       -0.413216         4
        12        11        10        28     9        0.000000        0.194749         1
        12        11        10        28     9      180.000000       12.601219         2
        12        11        10        28     9        0.000000       -0.549894         3
        12        11        10        28     9      180.000000        0.167689         4
        12        13        15        30     9        0.000000        0.121078         1
        12        13        15        30     9      180.000000       13.480084         2
        12        13        15        30     9        0.000000       -0.631175         3
        12        13        15        30     9      180.000000        0.125127         4
        13        12        11        21     9        0.000000        0.492414         1
        13        12        11        21     9      180.000000       22.854105         2
        13        12        11        21     9        0.000000        0.593021         3
        13        12        11        21     9      180.000000       -0.774881         4
        14        13        12        29     9        0.000000        0.266809         1
        14        13        12        29     9      180.000000       13.085368         2
        14        13        12        29     9        0.000000       -0.134809         3
        14        13        12        29     9      180.000000        0.240906         4
        14        13        15        30     9        0.000000        0.204424         1
        14        13        15        30     9      180.000000       13.505933         2
        14        13        15        30     9        0.000000       -0.134096         3
        14        13        15        30     9      180.000000        0.248105         4
        15         9        10        28     9        0.000000        0.164779         1
        15         9        10        28     9      180.000000       12.518768         2
        15         9        10        28     9        0.000000       -0.540241         3
        15         9        10        28     9      180.000000        0.209827         4
        15        13        12        29     9        0.000000        0.071950         1
        15        13        12        29     9      180.000000       13.333475         2
        15        13        12        29     9        0.000000       -0.588284         3
        15        13        12        29     9      180.000000        0.130929         4
        16         4         5        26     9        0.000000        0.255445         1
        16         4         5        26     9      180.000000       12.050446         2
        16         4         5        26     9        0.000000       -0.162643         3
        16         4         5        26     9      180.000000       -0.007614         4
        17        16        18        31     9        0.000000        0.061506         1
        17        16        18        31     9      180.000000       -0.045816         2
        17        16        18        31     9        0.000000        0.347337         3
        17        16        18        31     9      180.000000        0.000161         4
        17        16        18        32     9        0.000000        0.061506         1
        17        16        18        32     9      180.000000       -0.045816         2
        17        16        18        32     9        0.000000        0.347337         3
        17        16        18        32     9      180.000000        0.000161         4
        17        16        18        33     9        0.000000        0.061506         1
        17        16        18        33     9      180.000000       -0.045816         2
        17        16        18        33     9        0.000000        0.347337         3
        17        16        18        33     9      180.000000        0.000161         4
        21        11        10        28     9        0.000000        0.316498         1
        21        11        10        28     9      180.000000       15.738546         2
        21        11        10        28     9        0.000000        0.250726         3
        21        11        10        28     9      180.000000        0.149137         4
        21        11        12        29     9        0.000000        0.277357         1
        21        11        12        29     9      180.000000       15.295311         2
        21        11        12        29     9        0.000000        0.235276         3
        21        11        12        29     9      180.000000        0.207846         4
        22        16        18        31     9        0.000000        0.061505         1
        22        16        18        31     9      180.000000       -0.045816         2
        22        16        18        31     9        0.000000        0.347337         3
        22        16        18        31     9      180.000000        0.000161         4
        22        16        18        32     9        0.000000        0.061505         1
        22        16        18        32     9      180.000000       -0.045816         2
        22        16        18        32     9        0.000000        0.347337         3
        22        16        18        32     9      180.000000        0.000161         4
        22        16        18        33     9        0.000000        0.061505         1
        22        16        18        33     9      180.000000       -0.045816         2
        22        16        18        33     9        0.000000        0.347337         3
        22        16        18        33     9      180.000000        0.000161         4
        26         5         6        27     9        0.000000       -0.139190         1
        26         5         6        27     9      180.000000       12.914206         2
        26         5         6        27     9        0.000000       -0.814932         3
        26         5         6        27     9      180.000000        0.291455         4

[ dihedrals ] ; impropers
;       ai        aj        ak        al funct           phase               k        pn
        11        10        12        21     4      180.000000        2.018215         2
        11        12        21        10     4      180.000000        2.018215         2
        11        21        10        12     4      180.000000        2.018215         2

[ pairs ]
;       ai        aj funct
         1         5     1
         1         7     1
         1        16     1
         1        19     1
         2         5     1
         2         9     1
         2        16     1
         2        23     1
         2        24     1
         2        25     1
         2        27     1
         3         6     1
         3         8     1
         3        17     1
         3        18     1
         3        20     1
         3        22     1
         3        26     1
         4         7     1
         4        19     1
         4        23     1
         4        24     1
         4        25     1
         4        27     1
         4        31     1
         4        32     1
         4        33     1
         5         8     1
         5        17     1
         5        18     1
         5        22     1
         6         9     1
         6        16     1
         6        19     1
         7        10     1
         7        15     1
         7        20     1
         7        26     1
         8        11     1
         8        13     1
         8        19     1
         8        27     1
         8        28     1
         8        30     1
         9        12     1
         9        14     1
         9        21     1
        10        13     1
        10        29     1
        10        30     1
        11        14     1
        11        15     1
        12        28     1
        12        30     1
        13        21     1
        14        29     1
        14        30     1
        15        28     1
        15        29     1
        16        26     1
        17        31     1
        17        32     1
        17        33     1
        21        28     1
        21        29     1
        22        31     1
        22        32     1
        22        33     1
        26        27     1
