; ITP file created by ByteFF-ML, 2026-02-21 07:41:41.846834

[ atomtypes ]
;name           bonded.type        at.num        mass        charge   ptype           sigma         epsilon
 o0bf                                   8      0.0000       0.00000       A     3.24299e-01     3.89007e-01
 c1bf                                   6      0.0000       0.00000       A     3.39952e-01     4.50728e-01
 c2bf                                   6      0.0000       0.00000       A     3.39828e-01     4.49951e-01
 c3bf                                   6      0.0000       0.00000       A     3.39831e-01     4.49491e-01
 c4bf                                   6      0.0000       0.00000       A     3.31689e-01     4.11977e-01
 c5bf                                   6      0.0000       0.00000       A     3.31620e-01     4.13460e-01
 c6bf                                   6      0.0000       0.00000       A     3.31275e-01     4.12327e-01
 c7bf                                   6      0.0000       0.00000       A     3.31352e-01     4.13489e-01
 c8bf                                   6      0.0000       0.00000       A     3.31334e-01     4.13082e-01
 c9bf                                   6      0.0000       0.00000       A     3.31549e-01     4.12550e-01
 o10bf                                  8      0.0000       0.00000       A     3.15837e-01     3.06367e-01
 c11bf                                  6      0.0000       0.00000       A     3.31462e-01     4.12624e-01
 c12bf                                  6      0.0000       0.00000       A     3.31475e-01     4.13720e-01
 c13bf                                  6      0.0000       0.00000       A     3.31507e-01     4.13830e-01
 f14bf                                  9      0.0000       0.00000       A     3.03490e-01     3.47565e-01
 c15bf                                  6      0.0000       0.00000       A     3.31531e-01     4.12809e-01
 c16bf                                  6      0.0000       0.00000       A     3.31451e-01     4.12357e-01
 cl17bf                                17      0.0000       0.00000       A     3.46680e-01     1.10314e+00
 c18bf                                  6      0.0000       0.00000       A     3.31437e-01     4.12946e-01
 s19bf                                 16      0.0000       0.00000       A     4.06459e-01     2.57543e-01
 o20bf                                  8      0.0000       0.00000       A     3.05059e-01     6.11030e-01
 o21bf                                  8      0.0000       0.00000       A     3.05059e-01     6.11030e-01
 c22bf                                  6      0.0000       0.00000       A     3.40127e-01     4.54176e-01
 f23bf                                  9      0.0000       0.00000       A     3.03578e-01     3.42285e-01
 h24bf                                  1      0.0000       0.00000       A     5.38150e-02     1.94657e-02
 h25bf                                  1      0.0000       0.00000       A     2.41767e-01     8.71613e-02
 h26bf                                  1      0.0000       0.00000       A     2.60050e-01     8.74103e-02
 h27bf                                  1      0.0000       0.00000       A     2.60050e-01     8.74103e-02
 h28bf                                  1      0.0000       0.00000       A     2.60136e-01     8.66219e-02
 h29bf                                  1      0.0000       0.00000       A     2.60136e-01     8.66219e-02
 h30bf                                  1      0.0000       0.00000       A     2.62720e-01     6.76047e-02
 h31bf                                  1      0.0000       0.00000       A     2.62431e-01     6.72328e-02
 h32bf                                  1      0.0000       0.00000       A     2.62432e-01     6.69886e-02
 h33bf                                  1      0.0000       0.00000       A     2.62494e-01     6.73860e-02
 h34bf                                  1      0.0000       0.00000       A     2.62455e-01     6.71195e-02
 h35bf                                  1      0.0000       0.00000       A     2.23806e-01     8.68437e-02
 h36bf                                  1      0.0000       0.00000       A     2.23806e-01     8.68437e-02

[ moleculetype ]
;name             nrexcl
 61_flip               3

[ atoms ]
;       nr            type      resi   res      atom      cgnr      charge          mass ; qtot
         1            o0bf         1   UNL        o0         1    -0.65108       15.9990 ; qtot   -0.651
         2            c1bf         1   UNL        c1         2     0.20531       12.0110 ; qtot   -0.446
         3            c2bf         1   UNL        c2         3    -0.09396       12.0110 ; qtot   -0.540
         4            c3bf         1   UNL        c3         4    -0.02677       12.0110 ; qtot   -0.567
         5            c4bf         1   UNL        c4         5    -0.09612       12.0110 ; qtot   -0.663
         6            c5bf         1   UNL        c5         6     0.00348       12.0110 ; qtot   -0.659
         7            c6bf         1   UNL        c6         7    -0.23012       12.0110 ; qtot   -0.889
         8            c7bf         1   UNL        c7         8     0.01028       12.0110 ; qtot   -0.879
         9            c8bf         1   UNL        c8         9    -0.15332       12.0110 ; qtot   -1.032
        10            c9bf         1   UNL        c9        10     0.13871       12.0110 ; qtot   -0.894
        11           o10bf         1   UNL       o10        11    -0.24485       15.9990 ; qtot   -1.138
        12           c11bf         1   UNL       c11        12     0.15768       12.0110 ; qtot   -0.981
        13           c12bf         1   UNL       c12        13    -0.18425       12.0110 ; qtot   -1.165
        14           c13bf         1   UNL       c13        14     0.19838       12.0110 ; qtot   -0.967
        15           f14bf         1   UNL       f14        15    -0.16767       18.9980 ; qtot   -1.134
        16           c15bf         1   UNL       c15        16    -0.15953       12.0110 ; qtot   -1.294
        17           c16bf         1   UNL       c16        17     0.16822       12.0110 ; qtot   -1.126
        18          cl17bf         1   UNL      cl17        18    -0.19362       35.4530 ; qtot   -1.319
        19           c18bf         1   UNL       c18        19    -0.14736       12.0110 ; qtot   -1.467
        20           s19bf         1   UNL       s19        20     0.96348       32.0670 ; qtot   -0.503
        21           o20bf         1   UNL       o20        21    -0.49236       15.9990 ; qtot   -0.995
        22           o21bf         1   UNL       o21        22    -0.49236       15.9990 ; qtot   -1.488
        23           c22bf         1   UNL       c22        23     0.02516       12.0110 ; qtot   -1.463
        24           f23bf         1   UNL       f23        24    -0.23294       18.9980 ; qtot   -1.696
        25           h24bf         1   UNL       h24        25     0.44651        1.0080 ; qtot   -1.249
        26           h25bf         1   UNL       h25        26     0.07075        1.0080 ; qtot   -1.178
        27           h26bf         1   UNL       h26        27     0.05515        1.0080 ; qtot   -1.123
        28           h27bf         1   UNL       h27        28     0.05515        1.0080 ; qtot   -1.068
        29           h28bf         1   UNL       h28        29     0.06112        1.0080 ; qtot   -1.007
        30           h29bf         1   UNL       h29        30     0.06112        1.0080 ; qtot   -0.946
        31           h30bf         1   UNL       h30        31     0.14870        1.0080 ; qtot   -0.797
        32           h31bf         1   UNL       h31        32     0.13696        1.0080 ; qtot   -0.660
        33           h32bf         1   UNL       h32        33     0.15257        1.0080 ; qtot   -0.508
        34           h33bf         1   UNL       h33        34     0.15184        1.0080 ; qtot   -0.356
        35           h34bf         1   UNL       h34        35     0.14918        1.0080 ; qtot   -0.207
        36           h35bf         1   UNL       h35        36     0.10328        1.0080 ; qtot   -0.103
        37           h36bf         1   UNL       h36        37     0.10328        1.0080 ; qtot    0.000

[ bonds ]
;       ai        aj funct               r               k
         1         2     1        0.143414   196691.579077
         1        25     1        0.097098   465738.241797
         2         3     1        0.154626   158108.186182
         2         6     1        0.152218   168909.757788
         2        26     1        0.109568   293420.799365
         3         4     1        0.154937   163390.230811
         3        27     1        0.109328   304924.475488
         3        28     1        0.109328   304924.475488
         4         5     1        0.151185   188833.950977
         4        29     1        0.109495   299311.725293
         4        30     1        0.109495   299311.725293
         5         6     1        0.139862   280375.294727
         5        10     1        0.139626   293226.947168
         6         7     1        0.139899   291552.325684
         7         8     1        0.139869   298744.188574
         7        20     1        0.179972   125556.798975
         8         9     1        0.139479   319671.390039
         8        31     1        0.108389   327252.540625
         9        10     1        0.139918   294322.667920
         9        32     1        0.108424   325013.881006
        10        11     1        0.138553   236282.181104
        11        12     1        0.137720   246350.416309
        12        13     1        0.139881   296075.560645
        12        19     1        0.139917   293075.971777
        13        14     1        0.139030   313365.256250
        13        33     1        0.108351   328642.908545
        14        15     1        0.135316   295881.989355
        14        16     1        0.139159   303726.504150
        16        17     1        0.139621   301625.795996
        16        34     1        0.108325   330266.072754
        17        18     1        0.175353   151234.745508
        17        19     1        0.139511   308477.198145
        19        35     1        0.108318   328859.744141
        20        21     1        0.147010   511043.474316
        20        22     1        0.147010   511043.474316
        20        23     1        0.184561   131746.662305
        23        24     1        0.137835   257482.272119
        23        36     1        0.109065   319244.460645
        23        37     1        0.109065   319244.460645

[ angles ]
;       ai        aj        ak funct           theta             cth
         1         2         3     1      112.156998      607.312682
         1         2         6     1      111.565933      639.161543
         1         2        26     1      107.443604      426.077828
         2         1        25     1      107.781982      582.188699
         2         3         4     1      105.773277      555.942743
         2         3        27     1      109.849350      488.075034
         2         3        28     1      109.849350      488.075034
         2         6         5     1      110.055359      401.434996
         2         6         7     1      129.906326      427.326560
         3         2         6     1      102.982384      505.988710
         3         2        26     1      111.370956      424.197339
         3         4         5     1      103.047203      527.255344
         3         4        29     1      112.041214      461.267103
         3         4        30     1      112.041214      461.267103
         4         3        27     1      111.460251      464.169746
         4         3        28     1      111.460251      464.169746
         4         5         6     1      111.535477      360.222794
         4         5        10     1      128.203049      426.831779
         5         4        29     1      111.159485      463.409826
         5         4        30     1      111.159485      463.409826
         5         6         7     1      119.448692      629.106498
         5        10         9     1      120.209274      675.627833
         5        10        11     1      118.796799      412.765141
         6         2        26     1      110.673889      434.245617
         6         5        10     1      120.045639      667.870681
         6         7         8     1      120.352341      693.648541
         6         7        20     1      122.521988      538.210796
         7         8         9     1      120.314407      609.194575
         7         8        31     1      119.679710      369.250194
         7        20        21     1      108.655624      629.414029
         7        20        22     1      108.655624      629.414029
         7        20        23     1      102.847778      599.618862
         8         7        20     1      117.313820      538.790233
         8         9        10     1      119.779152      704.052807
         8         9        32     1      120.686142      421.275734
         9         8        31     1      120.577675      398.450602
         9        10        11     1      120.994461      527.334509
        10         9        32     1      119.703087      428.792742
        10        11        12     1      118.676926      433.061557
        11        12        13     1      119.334877      523.467010
        11        12        19     1      119.276085      525.254671
        12        13        14     1      117.718948      762.485160
        12        13        33     1      121.507996      420.445969
        12        19        17     1      118.433060      724.115973
        12        19        35     1      120.552017      422.149071
        13        12        19     1      121.311378      598.002043
        13        14        15     1      118.348534      543.554500
        13        14        16     1      123.334877      598.640280
        14        13        33     1      120.760887      419.876173
        14        16        17     1      117.020096      665.933627
        14        16        34     1      120.856552      424.003895
        15        14        16     1      118.342018      543.320580
        16        17        18     1      118.932083      369.413536
        16        17        19     1      122.150597      627.589785
        17        16        34     1      122.166687      405.876857
        17        19        35     1      121.164383      394.002835
        18        17        19     1      118.923203      376.771575
        20        23        24     1      109.887695      581.806472
        20        23        36     1      107.540237      527.468994
        20        23        37     1      107.540237      527.468994
        21        20        22     1      121.042259      720.210008
        21        20        23     1      106.312721      606.728584
        22        20        23     1      106.312721      606.728584
        24        23        36     1      109.806213      474.306925
        24        23        37     1      109.806213      474.306957
        27         3        28     1      107.906326      358.976168
        29         4        30     1      106.852402      359.015399
        36        23        37     1      112.221573      316.544665

[ dihedrals ] ; propers for gromacs 4.5 or higher, use funct 9
;       ai        aj        ak        al funct           phase               k        pn
         1         2         3         4     9        0.000000       -0.902817         1
         1         2         3         4     9      180.000000        0.141057         2
         1         2         3         4     9        0.000000        0.409037         3
         1         2         3         4     9      180.000000       -0.049955         4
         1         2         3        27     9        0.000000        0.082298         1
         1         2         3        27     9      180.000000        0.001184         2
         1         2         3        27     9        0.000000        0.517638         3
         1         2         3        27     9      180.000000       -0.006188         4
         1         2         3        28     9        0.000000        0.082298         1
         1         2         3        28     9      180.000000        0.001184         2
         1         2         3        28     9        0.000000        0.517638         3
         1         2         3        28     9      180.000000       -0.006188         4
         1         2         6         5     9        0.000000       -1.938148         1
         1         2         6         5     9      180.000000        2.715808         2
         1         2         6         5     9        0.000000        0.255929         3
         1         2         6         5     9      180.000000        1.306142         4
         1         2         6         7     9        0.000000       -1.050097         1
         1         2         6         7     9      180.000000        2.191587         2
         1         2         6         7     9        0.000000       -0.000759         3
         1         2         6         7     9      180.000000        0.575982         4
         2         3         4         5     9        0.000000        0.022335         1
         2         3         4         5     9      180.000000        4.696159         2
         2         3         4         5     9        0.000000       -0.144484         3
         2         3         4         5     9      180.000000       -1.953651         4
         2         3         4        29     9        0.000000        0.001739         1
         2         3         4        29     9      180.000000        0.010823         2
         2         3         4        29     9        0.000000        0.083595         3
         2         3         4        29     9      180.000000        0.109304         4
         2         3         4        30     9        0.000000        0.001739         1
         2         3         4        30     9      180.000000        0.010823         2
         2         3         4        30     9        0.000000        0.083595         3
         2         3         4        30     9      180.000000        0.109304         4
         2         6         5         4     9        0.000000       -0.133059         1
         2         6         5         4     9      180.000000       19.260916         2
         2         6         5         4     9        0.000000       -3.099016         3
         2         6         5         4     9      180.000000       -0.415788         4
         2         6         5        10     9        0.000000       -0.003993         1
         2         6         5        10     9      180.000000       15.093635         2
         2         6         5        10     9        0.000000       -1.562277         3
         2         6         5        10     9      180.000000       -0.347170         4
         2         6         7         8     9        0.000000       -0.023159         1
         2         6         7         8     9      180.000000       14.064847         2
         2         6         7         8     9        0.000000       -0.016990         3
         2         6         7         8     9      180.000000       -0.432200         4
         2         6         7        20     9        0.000000       -0.171180         1
         2         6         7        20     9      180.000000       10.217028         2
         2         6         7        20     9        0.000000        0.455623         3
         2         6         7        20     9      180.000000       -0.462990         4
         3         2         1        25     9        0.000000        2.593792         1
         3         2         1        25     9      180.000000       -1.584537         2
         3         2         1        25     9        0.000000        0.778961         3
         3         2         1        25     9      180.000000        0.127682         4
         3         2         6         5     9        0.000000       -0.166813         1
         3         2         6         5     9      180.000000       13.141850         2
         3         2         6         5     9        0.000000       -1.509859         3
         3         2         6         5     9      180.000000       -0.586629         4
         3         2         6         7     9        0.000000       -1.447074         1
         3         2         6         7     9      180.000000        1.096470         2
         3         2         6         7     9        0.000000       -0.137418         3
         3         2         6         7     9      180.000000        0.666689         4
         3         4         5         6     9        0.000000       -1.021703         1
         3         4         5         6     9      180.000000       12.882942         2
         3         4         5         6     9        0.000000       -1.705064         3
         3         4         5         6     9      180.000000       -0.885848         4
         3         4         5        10     9        0.000000        0.060186         1
         3         4         5        10     9      180.000000        1.190371         2
         3         4         5        10     9        0.000000        0.104089         3
         3         4         5        10     9      180.000000        0.404802         4
         4         3         2         6     9        0.000000       -0.288238         1
         4         3         2         6     9      180.000000        5.293433         2
         4         3         2         6     9        0.000000       -0.079634         3
         4         3         2         6     9      180.000000       -2.298167         4
         4         3         2        26     9        0.000000       -0.086671         1
         4         3         2        26     9      180.000000        0.261047         2
         4         3         2        26     9        0.000000        0.294892         3
         4         3         2        26     9      180.000000       -0.060491         4
         4         5         6         7     9        0.000000       -0.306786         1
         4         5         6         7     9      180.000000       13.886421         2
         4         5         6         7     9        0.000000       -1.654688         3
         4         5         6         7     9      180.000000       -0.036740         4
         4         5        10         9     9        0.000000        0.037949         1
         4         5        10         9     9      180.000000       12.528272         2
         4         5        10         9     9        0.000000       -0.154416         3
         4         5        10         9     9      180.000000       -0.072390         4
         4         5        10        11     9        0.000000       -0.276618         1
         4         5        10        11     9      180.000000       15.830456         2
         4         5        10        11     9        0.000000       -0.016093         3
         4         5        10        11     9      180.000000       -0.301121         4
         5         4         3        27     9        0.000000        0.027465         1
         5         4         3        27     9      180.000000       -0.038271         2
         5         4         3        27     9        0.000000        0.158270         3
         5         4         3        27     9      180.000000        0.120993         4
         5         4         3        28     9        0.000000        0.027465         1
         5         4         3        28     9      180.000000       -0.038271         2
         5         4         3        28     9        0.000000        0.158270         3
         5         4         3        28     9      180.000000        0.120993         4
         5         6         2        26     9        0.000000        1.048142         1
         5         6         2        26     9      180.000000        0.475115         2
         5         6         2        26     9        0.000000       -0.275862         3
         5         6         2        26     9      180.000000        0.597035         4
         5         6         7         8     9        0.000000       -0.019640         1
         5         6         7         8     9      180.000000       18.925308         2
         5         6         7         8     9        0.000000       -1.876202         3
         5         6         7         8     9      180.000000       -0.424563         4
         5         6         7        20     9        0.000000       -0.212715         1
         5         6         7        20     9      180.000000       11.330211         2
         5         6         7        20     9        0.000000       -0.030087         3
         5         6         7        20     9      180.000000       -0.439602         4
         5        10         9         8     9        0.000000       -0.084172         1
         5        10         9         8     9      180.000000       17.682637         2
         5        10         9         8     9        0.000000       -1.221970         3
         5        10         9         8     9      180.000000       -0.419431         4
         5        10         9        32     9        0.000000        0.021986         1
         5        10         9        32     9      180.000000       13.345004         2
         5        10         9        32     9        0.000000       -0.364560         3
         5        10         9        32     9      180.000000        0.033824         4
         5        10        11        12     9        0.000000        0.094442         1
         5        10        11        12     9      180.000000        3.487877         2
         5        10        11        12     9        0.000000        0.533458         3
         5        10        11        12     9      180.000000        0.100262         4
         6         2         1        25     9        0.000000        5.592255         1
         6         2         1        25     9      180.000000       -2.816485         2
         6         2         1        25     9        0.000000        0.820949         3
         6         2         1        25     9      180.000000        0.230315         4
         6         2         3        27     9        0.000000        0.036440         1
         6         2         3        27     9      180.000000       -0.051077         2
         6         2         3        27     9        0.000000        0.113045         3
         6         2         3        27     9      180.000000        0.163283         4
         6         2         3        28     9        0.000000        0.036440         1
         6         2         3        28     9      180.000000       -0.051077         2
         6         2         3        28     9        0.000000        0.113045         3
         6         2         3        28     9      180.000000        0.163283         4
         6         5         4        29     9        0.000000        0.001560         1
         6         5         4        29     9      180.000000       -0.120418         2
         6         5         4        29     9        0.000000       -0.457208         3
         6         5         4        29     9      180.000000        0.360332         4
         6         5         4        30     9        0.000000        0.001560         1
         6         5         4        30     9      180.000000       -0.120418         2
         6         5         4        30     9        0.000000       -0.457208         3
         6         5         4        30     9      180.000000        0.360332         4
         6         5        10         9     9        0.000000        0.001869         1
         6         5        10         9     9      180.000000       17.089597         2
         6         5        10         9     9        0.000000       -1.134751         3
         6         5        10         9     9      180.000000       -0.480307         4
         6         5        10        11     9        0.000000        0.359786         1
         6         5        10        11     9      180.000000       17.509210         2
         6         5        10        11     9        0.000000        0.333864         3
         6         5        10        11     9      180.000000       -0.567805         4
         6         7         8         9     9        0.000000       -0.019462         1
         6         7         8         9     9      180.000000       19.726396         2
         6         7         8         9     9        0.000000       -1.800153         3
         6         7         8         9     9      180.000000       -0.538303         4
         6         7         8        31     9        0.000000        0.114514         1
         6         7         8        31     9      180.000000       14.840633         2
         6         7         8        31     9        0.000000       -0.501182         3
         6         7         8        31     9      180.000000       -0.041868         4
         6         7        20        21     9        0.000000       -0.075675         1
         6         7        20        21     9      180.000000        0.579540         2
         6         7        20        21     9        0.000000        0.675255         3
         6         7        20        21     9      180.000000       -0.203433         4
         6         7        20        22     9        0.000000       -0.075675         1
         6         7        20        22     9      180.000000        0.579540         2
         6         7        20        22     9        0.000000        0.675255         3
         6         7        20        22     9      180.000000       -0.203433         4
         6         7        20        23     9        0.000000        1.199496         1
         6         7        20        23     9      180.000000       -1.794155         2
         6         7        20        23     9        0.000000        0.631760         3
         6         7        20        23     9      180.000000        0.234249         4
         7         6         2        26     9        0.000000        0.948689         1
         7         6         2        26     9      180.000000        0.299736         2
         7         6         2        26     9        0.000000       -0.122888         3
         7         6         2        26     9      180.000000        0.216505         4
         7         6         5        10     9        0.000000       -0.228089         1
         7         6         5        10     9      180.000000       14.828160         2
         7         6         5        10     9        0.000000       -1.835348         3
         7         6         5        10     9      180.000000       -0.232455         4
         7         8         9        10     9        0.000000       -0.216804         1
         7         8         9        10     9      180.000000       18.487874         2
         7         8         9        10     9        0.000000       -1.834159         3
         7         8         9        10     9      180.000000       -0.452415         4
         7         8         9        32     9        0.000000        0.039719         1
         7         8         9        32     9      180.000000       14.370759         2
         7         8         9        32     9        0.000000       -0.723150         3
         7         8         9        32     9      180.000000        0.034929         4
         7        20        23        24     9        0.000000        0.073344         1
         7        20        23        24     9      180.000000       -0.547434         2
         7        20        23        24     9        0.000000        0.292916         3
         7        20        23        24     9      180.000000        0.087240         4
         7        20        23        36     9        0.000000        0.109844         1
         7        20        23        36     9      180.000000       -0.037556         2
         7        20        23        36     9        0.000000        0.432187         3
         7        20        23        36     9      180.000000       -0.012702         4
         7        20        23        37     9        0.000000        0.109844         1
         7        20        23        37     9      180.000000       -0.037556         2
         7        20        23        37     9        0.000000        0.432187         3
         7        20        23        37     9      180.000000       -0.012702         4
         8         7        20        21     9        0.000000       -0.032486         1
         8         7        20        21     9      180.000000        0.936640         2
         8         7        20        21     9        0.000000       -0.033172         3
         8         7        20        21     9      180.000000       -0.002840         4
         8         7        20        22     9        0.000000       -0.032486         1
         8         7        20        22     9      180.000000        0.936640         2
         8         7        20        22     9        0.000000       -0.033172         3
         8         7        20        22     9      180.000000       -0.002840         4
         8         7        20        23     9        0.000000       -0.177266         1
         8         7        20        23     9      180.000000       -1.253239         2
         8         7        20        23     9        0.000000        0.013741         3
         8         7        20        23     9      180.000000        0.197308         4
         8         9        10        11     9        0.000000        0.635421         1
         8         9        10        11     9      180.000000       19.189412         2
         8         9        10        11     9        0.000000        0.436376         3
         8         9        10        11     9      180.000000       -0.269173         4
         9         8         7        20     9        0.000000       -0.164298         1
         9         8         7        20     9      180.000000       13.533732         2
         9         8         7        20     9        0.000000        0.089268         3
         9         8         7        20     9      180.000000       -0.329332         4
         9        10        11        12     9        0.000000       -0.022060         1
         9        10        11        12     9      180.000000        4.534636         2
         9        10        11        12     9        0.000000       -0.407807         3
         9        10        11        12     9      180.000000        0.325075         4
        10         5         4        29     9        0.000000       -0.019425         1
        10         5         4        29     9      180.000000       -0.092426         2
        10         5         4        29     9        0.000000        0.129077         3
        10         5         4        29     9      180.000000        0.067235         4
        10         5         4        30     9        0.000000       -0.019425         1
        10         5         4        30     9      180.000000       -0.092426         2
        10         5         4        30     9        0.000000        0.129077         3
        10         5         4        30     9      180.000000        0.067235         4
        10         9         8        31     9        0.000000        0.194036         1
        10         9         8        31     9      180.000000       14.588231         2
        10         9         8        31     9        0.000000       -0.469643         3
        10         9         8        31     9      180.000000        0.090722         4
        10        11        12        13     9        0.000000        0.060581         1
        10        11        12        13     9      180.000000        4.946888         2
        10        11        12        13     9        0.000000       -0.068086         3
        10        11        12        13     9      180.000000        0.261939         4
        10        11        12        19     9        0.000000        0.036536         1
        10        11        12        19     9      180.000000        4.837021         2
        10        11        12        19     9        0.000000       -0.058514         3
        10        11        12        19     9      180.000000        0.271163         4
        11        10         9        32     9        0.000000        0.200793         1
        11        10         9        32     9      180.000000       14.090440         2
        11        10         9        32     9        0.000000        0.075029         3
        11        10         9        32     9      180.000000        0.378539         4
        11        12        13        14     9        0.000000        0.430487         1
        11        12        13        14     9      180.000000       17.758634         2
        11        12        13        14     9        0.000000        0.525580         3
        11        12        13        14     9      180.000000       -0.303677         4
        11        12        13        33     9        0.000000        0.246182         1
        11        12        13        33     9      180.000000       13.313790         2
        11        12        13        33     9        0.000000       -0.045706         3
        11        12        13        33     9      180.000000        0.376858         4
        11        12        19        17     9        0.000000        0.442168         1
        11        12        19        17     9      180.000000       17.612348         2
        11        12        19        17     9        0.000000        0.441143         3
        11        12        19        17     9      180.000000       -0.280971         4
        11        12        19        35     9        0.000000        0.204496         1
        11        12        19        35     9      180.000000       13.376541         2
        11        12        19        35     9        0.000000       -0.055165         3
        11        12        19        35     9      180.000000        0.381838         4
        12        13        14        15     9        0.000000        0.443606         1
        12        13        14        15     9      180.000000       22.965319         2
        12        13        14        15     9        0.000000        0.580671         3
        12        13        14        15     9      180.000000       -0.863985         4
        12        13        14        16     9        0.000000       -0.003009         1
        12        13        14        16     9      180.000000       17.179121         2
        12        13        14        16     9        0.000000       -1.254287         3
        12        13        14        16     9      180.000000       -0.412042         4
        12        19        17        16     9        0.000000       -0.018565         1
        12        19        17        16     9      180.000000       17.648072         2
        12        19        17        16     9        0.000000       -1.397810         3
        12        19        17        16     9      180.000000       -0.415647         4
        12        19        17        18     9        0.000000        0.436525         1
        12        19        17        18     9      180.000000       19.136397         2
        12        19        17        18     9        0.000000        0.394316         3
        12        19        17        18     9      180.000000       -0.603181         4
        13        12        19        17     9        0.000000       -0.194818         1
        13        12        19        17     9      180.000000       16.716255         2
        13        12        19        17     9        0.000000       -1.149442         3
        13        12        19        17     9      180.000000       -0.287011         4
        13        12        19        35     9        0.000000        0.138072         1
        13        12        19        35     9      180.000000       12.796665         2
        13        12        19        35     9        0.000000       -0.563736         3
        13        12        19        35     9      180.000000        0.220324         4
        13        14        16        17     9        0.000000       -0.152622         1
        13        14        16        17     9      180.000000       17.281231         2
        13        14        16        17     9        0.000000       -1.226413         3
        13        14        16        17     9      180.000000       -0.426919         4
        13        14        16        34     9        0.000000        0.077945         1
        13        14        16        34     9      180.000000       12.784065         2
        13        14        16        34     9        0.000000       -0.561854         3
        13        14        16        34     9      180.000000        0.171852         4
        14        13        12        19     9        0.000000       -0.136857         1
        14        13        12        19     9      180.000000       16.529689         2
        14        13        12        19     9        0.000000       -1.080295         3
        14        13        12        19     9      180.000000       -0.217159         4
        14        16        17        18     9        0.000000        0.426515         1
        14        16        17        18     9      180.000000       19.269614         2
        14        16        17        18     9        0.000000        0.466542         3
        14        16        17        18     9      180.000000       -0.633614         4
        14        16        17        19     9        0.000000       -0.162256         1
        14        16        17        19     9      180.000000       17.890529         2
        14        16        17        19     9        0.000000       -1.359384         3
        14        16        17        19     9      180.000000       -0.412626         4
        15        14        13        33     9        0.000000        0.312767         1
        15        14        13        33     9      180.000000       15.725541         2
        15        14        13        33     9        0.000000        0.248669         3
        15        14        13        33     9      180.000000        0.150057         4
        15        14        16        17     9        0.000000        0.492414         1
        15        14        16        17     9      180.000000       22.854103         2
        15        14        16        17     9        0.000000        0.593022         3
        15        14        16        17     9      180.000000       -0.774882         4
        15        14        16        34     9        0.000000        0.277356         1
        15        14        16        34     9      180.000000       15.295311         2
        15        14        16        34     9        0.000000        0.235276         3
        15        14        16        34     9      180.000000        0.207846         4
        16        14        13        33     9        0.000000        0.195204         1
        16        14        13        33     9      180.000000       12.591640         2
        16        14        13        33     9        0.000000       -0.548530         3
        16        14        13        33     9      180.000000        0.166980         4
        16        17        19        35     9        0.000000        0.121906         1
        16        17        19        35     9      180.000000       13.469893         2
        16        17        19        35     9        0.000000       -0.629380         3
        16        17        19        35     9      180.000000        0.125023         4
        18        17        16        34     9        0.000000        0.266809         1
        18        17        16        34     9      180.000000       13.085369         2
        18        17        16        34     9        0.000000       -0.134809         3
        18        17        16        34     9      180.000000        0.240905         4
        18        17        19        35     9        0.000000        0.203432         1
        18        17        19        35     9      180.000000       13.503986         2
        18        17        19        35     9        0.000000       -0.134693         3
        18        17        19        35     9      180.000000        0.246770         4
        19        12        13        33     9        0.000000        0.177610         1
        19        12        13        33     9      180.000000       12.501612         2
        19        12        13        33     9        0.000000       -0.528291         3
        19        12        13        33     9      180.000000        0.209179         4
        19        17        16        34     9        0.000000        0.072302         1
        19        17        16        34     9      180.000000       13.335654         2
        19        17        16        34     9        0.000000       -0.587084         3
        19        17        16        34     9      180.000000        0.131164         4
        20         7         8        31     9        0.000000        0.358577         1
        20         7         8        31     9      180.000000       12.066566         2
        20         7         8        31     9        0.000000       -0.146731         3
        20         7         8        31     9      180.000000       -0.059789         4
        21        20        23        24     9        0.000000       -0.607741         1
        21        20        23        24     9      180.000000        0.806040         2
        21        20        23        24     9        0.000000        0.331614         3
        21        20        23        24     9      180.000000        0.039683         4
        21        20        23        36     9        0.000000        0.032119         1
        21        20        23        36     9      180.000000        0.073962         2
        21        20        23        36     9        0.000000        0.425962         3
        21        20        23        36     9      180.000000       -0.013287         4
        21        20        23        37     9        0.000000        0.032119         1
        21        20        23        37     9      180.000000        0.073962         2
        21        20        23        37     9        0.000000        0.425962         3
        21        20        23        37     9      180.000000       -0.013287         4
        22        20        23        24     9        0.000000       -0.607741         1
        22        20        23        24     9      180.000000        0.806040         2
        22        20        23        24     9        0.000000        0.331614         3
        22        20        23        24     9      180.000000        0.039683         4
        22        20        23        36     9        0.000000        0.032119         1
        22        20        23        36     9      180.000000        0.073962         2
        22        20        23        36     9        0.000000        0.425962         3
        22        20        23        36     9      180.000000       -0.013287         4
        22        20        23        37     9        0.000000        0.032119         1
        22        20        23        37     9      180.000000        0.073962         2
        22        20        23        37     9        0.000000        0.425962         3
        22        20        23        37     9      180.000000       -0.013287         4
        25         1         2        26     9        0.000000        0.376805         1
        25         1         2        26     9      180.000000       -0.718637         2
        25         1         2        26     9        0.000000        0.858398         3
        25         1         2        26     9      180.000000        0.168857         4
        26         2         3        27     9        0.000000       -0.072729         1
        26         2         3        27     9      180.000000        0.009537         2
        26         2         3        27     9        0.000000        0.467678         3
        26         2         3        27     9      180.000000       -0.015391         4
        26         2         3        28     9        0.000000       -0.072729         1
        26         2         3        28     9      180.000000        0.009537         2
        26         2         3        28     9        0.000000        0.467678         3
        26         2         3        28     9      180.000000       -0.015391         4
        27         3         4        29     9        0.000000       -0.028728         1
        27         3         4        29     9      180.000000        0.026798         2
        27         3         4        29     9        0.000000        0.339073         3
        27         3         4        29     9      180.000000        0.001106         4
        27         3         4        30     9        0.000000       -0.028728         1
        27         3         4        30     9      180.000000        0.026798         2
        27         3         4        30     9        0.000000        0.339073         3
        27         3         4        30     9      180.000000        0.001106         4
        28         3         4        29     9        0.000000       -0.028728         1
        28         3         4        29     9      180.000000        0.026798         2
        28         3         4        29     9        0.000000        0.339073         3
        28         3         4        29     9      180.000000        0.001106         4
        28         3         4        30     9        0.000000       -0.028728         1
        28         3         4        30     9      180.000000        0.026798         2
        28         3         4        30     9        0.000000        0.339073         3
        28         3         4        30     9      180.000000        0.001106         4
        31         8         9        32     9        0.000000       -0.060805         1
        31         8         9        32     9      180.000000       12.634968         2
        31         8         9        32     9        0.000000       -0.850372         3
        31         8         9        32     9      180.000000        0.241763         4

[ dihedrals ] ; impropers
;       ai        aj        ak        al funct           phase               k        pn
        14        13        15        16     4      180.000000        2.020522         2
        14        15        16        13     4      180.000000        2.020522         2
        14        16        13        15     4      180.000000        2.020522         2

[ pairs ]
;       ai        aj funct
         1         4     1
         1         5     1
         1         7     1
         1        27     1
         1        28     1
         2         8     1
         2        10     1
         2        20     1
         2        29     1
         2        30     1
         3         7     1
         3        10     1
         3        25     1
         4         7     1
         4         9     1
         4        11     1
         4        26     1
         5         8     1
         5        12     1
         5        20     1
         5        26     1
         5        27     1
         5        28     1
         5        32     1
         6         9     1
         6        11     1
         6        21     1
         6        22     1
         6        23     1
         6        25     1
         6        27     1
         6        28     1
         6        29     1
         6        30     1
         6        31     1
         7        10     1
         7        24     1
         7        26     1
         7        32     1
         7        36     1
         7        37     1
         8        11     1
         8        21     1
         8        22     1
         8        23     1
         9        12     1
         9        20     1
        10        13     1
        10        19     1
        10        29     1
        10        30     1
        10        31     1
        11        14     1
        11        17     1
        11        32     1
        11        33     1
        11        35     1
        12        15     1
        12        16     1
        12        18     1
        13        17     1
        13        34     1
        13        35     1
        14        18     1
        14        19     1
        15        17     1
        15        33     1
        15        34     1
        16        33     1
        16        35     1
        18        34     1
        18        35     1
        19        33     1
        19        34     1
        20        31     1
        21        24     1
        21        36     1
        21        37     1
        22        24     1
        22        36     1
        22        37     1
        25        26     1
        26        27     1
        26        28     1
        27        29     1
        27        30     1
        28        29     1
        28        30     1
        31        32     1
