; ITP file created by ByteFF-ML, 2026-02-21 07:41:13.239988

[ atomtypes ]
;name           bonded.type        at.num        mass        charge   ptype           sigma         epsilon
 c0bf                                   6      0.0000       0.00000       A     3.40019e-01     4.52877e-01
 o1bf                                   8      0.0000       0.00000       A     3.15613e-01     3.04809e-01
 c2bf                                   6      0.0000       0.00000       A     3.31488e-01     4.14976e-01
 c3bf                                   6      0.0000       0.00000       A     3.31478e-01     4.14761e-01
 c4bf                                   6      0.0000       0.00000       A     3.31567e-01     4.14727e-01
 c5bf                                   6      0.0000       0.00000       A     3.31443e-01     4.07639e-01
 c6bf                                   6      0.0000       0.00000       A     3.31326e-01     4.14451e-01
 c7bf                                   6      0.0000       0.00000       A     3.31445e-01     4.12316e-01
 c8bf                                   6      0.0000       0.00000       A     3.31487e-01     4.14146e-01
 o9bf                                   8      0.0000       0.00000       A     3.16213e-01     3.08879e-01
 c10bf                                  6      0.0000       0.00000       A     3.31469e-01     4.12933e-01
 c11bf                                  6      0.0000       0.00000       A     3.31475e-01     4.13720e-01
 c12bf                                  6      0.0000       0.00000       A     3.31507e-01     4.13830e-01
 f13bf                                  9      0.0000       0.00000       A     3.03490e-01     3.47565e-01
 c14bf                                  6      0.0000       0.00000       A     3.31531e-01     4.12809e-01
 c15bf                                  6      0.0000       0.00000       A     3.31451e-01     4.12357e-01
 cl16bf                                17      0.0000       0.00000       A     3.46680e-01     1.10314e+00
 c17bf                                  6      0.0000       0.00000       A     3.31437e-01     4.12946e-01
 s18bf                                 16      0.0000       0.00000       A     4.06301e-01     2.58819e-01
 o19bf                                  8      0.0000       0.00000       A     3.05144e-01     6.13663e-01
 o20bf                                  8      0.0000       0.00000       A     3.05144e-01     6.13663e-01
 c21bf                                  6      0.0000       0.00000       A     3.40010e-01     4.52743e-01
 f22bf                                  9      0.0000       0.00000       A     3.03156e-01     3.45383e-01
 f23bf                                  9      0.0000       0.00000       A     3.03156e-01     3.45383e-01
 o24bf                                  8      0.0000       0.00000       A     3.04739e-01     6.10056e-01
 h25bf                                  1      0.0000       0.00000       A     2.42170e-01     8.73098e-02
 h26bf                                  1      0.0000       0.00000       A     2.42170e-01     8.73098e-02
 h27bf                                  1      0.0000       0.00000       A     2.62720e-01     6.76047e-02
 h28bf                                  1      0.0000       0.00000       A     2.62357e-01     6.72440e-02
 h29bf                                  1      0.0000       0.00000       A     2.62432e-01     6.69886e-02
 h30bf                                  1      0.0000       0.00000       A     2.62494e-01     6.73860e-02
 h31bf                                  1      0.0000       0.00000       A     2.62455e-01     6.71195e-02
 h32bf                                  1      0.0000       0.00000       A     2.06402e-01     8.82802e-02

[ moleculetype ]
;name             nrexcl
 84                    3

[ atoms ]
;       nr            type      resi   res      atom      cgnr      charge          mass ; qtot
         1            c0bf         1   UNL        c0         1     0.20163       12.0110 ; qtot    0.202
         2            o1bf         1   UNL        o1         2    -0.42907       15.9990 ; qtot   -0.227
         3            c2bf         1   UNL        c2         3     0.68475       12.0110 ; qtot    0.457
         4            c3bf         1   UNL        c3         4    -0.24509       12.0110 ; qtot    0.212
         5            c4bf         1   UNL        c4         5     0.06440       12.0110 ; qtot    0.277
         6            c5bf         1   UNL        c5         6    -0.25948       12.0110 ; qtot    0.017
         7            c6bf         1   UNL        c6         7     0.04405       12.0110 ; qtot    0.061
         8            c7bf         1   UNL        c7         8    -0.17539       12.0110 ; qtot   -0.114
         9            c8bf         1   UNL        c8         9     0.23147       12.0110 ; qtot    0.117
        10            o9bf         1   UNL        o9        10    -0.22635       15.9990 ; qtot   -0.109
        11           c10bf         1   UNL       c10        11     0.15867       12.0110 ; qtot    0.050
        12           c11bf         1   UNL       c11        12    -0.18144       12.0110 ; qtot   -0.132
        13           c12bf         1   UNL       c12        13     0.19838       12.0110 ; qtot    0.067
        14           f13bf         1   UNL       f13        14    -0.16767       18.9980 ; qtot   -0.101
        15           c14bf         1   UNL       c14        15    -0.15953       12.0110 ; qtot   -0.261
        16           c15bf         1   UNL       c15        16     0.16822       12.0110 ; qtot   -0.092
        17          cl16bf         1   UNL      cl16        17    -0.19362       35.4530 ; qtot   -0.286
        18           c17bf         1   UNL       c17        18    -0.14439       12.0110 ; qtot   -0.430
        19           s18bf         1   UNL       s18        19     0.95104       32.0670 ; qtot    0.521
        20           o19bf         1   UNL       o19        20    -0.47334       15.9990 ; qtot    0.047
        21           o20bf         1   UNL       o20        21    -0.47334       15.9990 ; qtot   -0.426
        22           c21bf         1   UNL       c21        22     0.04372       12.0110 ; qtot   -0.382
        23           f22bf         1   UNL       f22        23    -0.09035       18.9980 ; qtot   -0.473
        24           f23bf         1   UNL       f23        24    -0.09035       18.9980 ; qtot   -0.563
        25           o24bf         1   UNL       o24        25    -0.46767       15.9990 ; qtot   -1.031
        26           h25bf         1   UNL       h25        26     0.08891        1.0080 ; qtot   -0.942
        27           h26bf         1   UNL       h26        27     0.08891        1.0080 ; qtot   -0.853
        28           h27bf         1   UNL       h27        28     0.14972        1.0080 ; qtot   -0.703
        29           h28bf         1   UNL       h28        29     0.14328        1.0080 ; qtot   -0.560
        30           h29bf         1   UNL       h29        30     0.15257        1.0080 ; qtot   -0.407
        31           h30bf         1   UNL       h30        31     0.15184        1.0080 ; qtot   -0.256
        32           h31bf         1   UNL       h31        32     0.14918        1.0080 ; qtot   -0.106
        33           h32bf         1   UNL       h32        33     0.10634        1.0080 ; qtot    0.000

[ bonds ]
;       ai        aj funct               r               k
         1         2     1        0.144158   169307.843018
         1         5     1        0.150624   189468.356616
         1        26     1        0.109403   301201.650146
         1        27     1        0.109403   301201.650146
         2         3     1        0.138103   179420.832007
         3         4     1        0.148095   176934.615649
         3        25     1        0.120921   690705.006348
         4         5     1        0.139210   298727.053174
         4         9     1        0.140150   291497.446436
         5         6     1        0.139263   304155.170068
         6         7     1        0.140115   294692.445264
         6        19     1        0.178893   132204.823584
         7         8     1        0.139420   320865.760645
         7        28     1        0.108406   327149.243018
         8         9     1        0.140261   285816.358936
         8        29     1        0.108342   327203.534912
         9        10     1        0.136603   262630.042627
        10        11     1        0.138402   235967.078711
        11        12     1        0.139793   297756.438721
        11        18     1        0.139828   294787.060254
        12        13     1        0.139030   313365.256250
        12        30     1        0.108351   328642.908545
        13        14     1        0.135316   295881.989355
        13        15     1        0.139159   303726.504150
        15        16     1        0.139621   301625.795996
        15        31     1        0.108325   330266.072754
        16        17     1        0.175353   151234.719971
        16        18     1        0.139511   308477.198145
        18        32     1        0.108318   328859.769678
        19        20     1        0.146689   521267.868945
        19        21     1        0.146689   521267.868945
        19        22     1        0.188030   131689.995459
        22        23     1        0.135563   266389.820166
        22        24     1        0.135563   266389.820166
        22        33     1        0.109165   319633.952637

[ angles ]
;       ai        aj        ak funct           theta             cth
         1         2         3     1      111.081711      561.910255
         1         5         4     1      107.964821      243.031866
         1         5         6     1      132.298798      372.241164
         2         1         5     1      104.870590      529.883975
         2         1        26     1      108.495445      473.183739
         2         1        27     1      108.495445      473.183739
         2         3         4     1      107.431313      274.610529
         2         3        25     1      122.013916      669.372710
         3         4         5     1      108.707031      591.165185
         3         4         9     1      130.406586      611.501725
         4         3        25     1      130.410889      407.766922
         4         5         6     1      119.814552      588.697214
         4         9         8     1      118.081078      631.859462
         4         9        10     1      119.910423      458.458723
         5         1        26     1      112.654221      432.395964
         5         1        27     1      112.654221      432.395964
         5         4         9     1      121.148888      720.346248
         5         6         7     1      119.606956      720.971205
         5         6        19     1      121.152122      589.922677
         6         7         8     1      120.516739      614.575244
         6         7        28     1      119.659912      364.058117
         6        19        20     1      108.844093      637.832656
         6        19        21     1      108.844093      637.832656
         6        19        22     1      102.475975      523.480960
         7         6        19     1      118.814125      520.176777
         7         8         9     1      120.486511      710.391436
         7         8        29     1      120.443443      416.792120
         8         7        28     1      120.300156      397.599482
         8         9        10     1      120.939941      510.048600
         9         8        29     1      119.205299      438.546577
         9        10        11     1      119.250427      422.271522
        10        11        12     1      119.115158      519.059528
        10        11        18     1      119.068260      520.738529
        11        12        13     1      117.663307      759.135138
        11        12        30     1      121.525246      419.126627
        11        18        16     1      118.379501      720.162317
        11        18        32     1      120.572426      420.691126
        12        11        18     1      121.444016      599.517990
        12        13        14     1      118.348549      543.554500
        12        13        15     1      123.334877      598.640280
        13        12        30     1      120.760887      419.876205
        13        15        16     1      117.020103      665.933627
        13        15        31     1      120.856552      424.003895
        14        13        15     1      118.342018      543.320644
        15        16        17     1      118.932083      369.413536
        15        16        18     1      122.150612      627.589785
        16        15        31     1      122.166687      405.876857
        16        18        32     1      121.164391      394.002835
        17        16        18     1      118.923203      376.771575
        19        22        23     1      109.039589      508.695069
        19        22        24     1      109.039589      508.695069
        19        22        33     1      108.615211      471.617804
        20        19        21     1      121.866013      708.897707
        20        19        22     1      105.413589      449.802568
        21        19        22     1      105.413589      449.802568
        23        22        24     1      108.734192      735.006145
        23        22        33     1      110.516922      439.201508
        24        22        33     1      110.516922      439.201508
        26         1        27     1      108.950172      341.116344

[ dihedrals ] ; propers for gromacs 4.5 or higher, use funct 9
;       ai        aj        ak        al funct           phase               k        pn
         1         2         3         4     9        0.000000       -0.845226         1
         1         2         3         4     9      180.000000       15.373745         2
         1         2         3         4     9        0.000000       -0.448099         3
         1         2         3         4     9      180.000000       -1.076065         4
         1         2         3        25     9        0.000000        1.882338         1
         1         2         3        25     9      180.000000       16.602439         2
         1         2         3        25     9        0.000000        0.659853         3
         1         2         3        25     9      180.000000       -0.434221         4
         1         5         4         3     9        0.000000       -0.069310         1
         1         5         4         3     9      180.000000       16.386884         2
         1         5         4         3     9        0.000000       -4.793800         3
         1         5         4         3     9      180.000000       -0.068627         4
         1         5         4         9     9        0.000000       -0.014993         1
         1         5         4         9     9      180.000000       13.453184         2
         1         5         4         9     9        0.000000       -2.586393         3
         1         5         4         9     9      180.000000       -0.111073         4
         1         5         6         7     9        0.000000        0.078307         1
         1         5         6         7     9      180.000000       13.559792         2
         1         5         6         7     9        0.000000       -0.183575         3
         1         5         6         7     9      180.000000       -0.250367         4
         1         5         6        19     9        0.000000       -0.218555         1
         1         5         6        19     9      180.000000       10.404136         2
         1         5         6        19     9        0.000000        0.317579         3
         1         5         6        19     9      180.000000       -0.579142         4
         2         1         5         4     9        0.000000       -0.469805         1
         2         1         5         4     9      180.000000       16.197379         2
         2         1         5         4     9        0.000000       -1.939619         3
         2         1         5         4     9      180.000000       -1.574081         4
         2         1         5         6     9        0.000000       -0.201053         1
         2         1         5         6     9      180.000000        2.390046         2
         2         1         5         6     9        0.000000       -0.396100         3
         2         1         5         6     9      180.000000        0.547616         4
         2         3         4         5     9        0.000000       -0.845792         1
         2         3         4         5     9      180.000000       10.846292         2
         2         3         4         5     9        0.000000       -3.102144         3
         2         3         4         5     9      180.000000       -0.419858         4
         2         3         4         9     9        0.000000       -1.140515         1
         2         3         4         9     9      180.000000        3.754366         2
         2         3         4         9     9        0.000000       -0.108321         3
         2         3         4         9     9      180.000000        0.052276         4
         3         2         1         5     9        0.000000       -1.257933         1
         3         2         1         5     9      180.000000        6.187714         2
         3         2         1         5     9        0.000000       -0.597589         3
         3         2         1         5     9      180.000000       -1.713937         4
         3         2         1        26     9        0.000000        0.380927         1
         3         2         1        26     9      180.000000       -0.577293         2
         3         2         1        26     9        0.000000       -0.451744         3
         3         2         1        26     9      180.000000        0.226598         4
         3         2         1        27     9        0.000000        0.380927         1
         3         2         1        27     9      180.000000       -0.577293         2
         3         2         1        27     9        0.000000       -0.451744         3
         3         2         1        27     9      180.000000        0.226598         4
         3         4         5         6     9        0.000000       -0.365846         1
         3         4         5         6     9      180.000000       12.503734         2
         3         4         5         6     9        0.000000       -2.446997         3
         3         4         5         6     9      180.000000        0.012196         4
         3         4         9         8     9        0.000000       -0.467017         1
         3         4         9         8     9      180.000000        9.937127         2
         3         4         9         8     9        0.000000       -0.507196         3
         3         4         9         8     9      180.000000       -0.234583         4
         3         4         9        10     9        0.000000       -0.038911         1
         3         4         9        10     9      180.000000       12.157897         2
         3         4         9        10     9        0.000000        0.589660         3
         3         4         9        10     9      180.000000       -0.561765         4
         4         5         1        26     9        0.000000        0.294679         1
         4         5         1        26     9      180.000000       -0.142538         2
         4         5         1        26     9        0.000000       -0.662542         3
         4         5         1        26     9      180.000000        0.424370         4
         4         5         1        27     9        0.000000        0.294679         1
         4         5         1        27     9      180.000000       -0.142538         2
         4         5         1        27     9        0.000000       -0.662542         3
         4         5         1        27     9      180.000000        0.424370         4
         4         5         6         7     9        0.000000       -0.072260         1
         4         5         6         7     9      180.000000       20.024998         2
         4         5         6         7     9        0.000000       -2.325229         3
         4         5         6         7     9      180.000000       -0.542149         4
         4         5         6        19     9        0.000000       -0.642415         1
         4         5         6        19     9      180.000000       12.109623         2
         4         5         6        19     9        0.000000        0.047852         3
         4         5         6        19     9      180.000000       -0.602135         4
         4         9         8         7     9        0.000000       -0.198639         1
         4         9         8         7     9      180.000000       17.917279         2
         4         9         8         7     9        0.000000       -1.074439         3
         4         9         8         7     9      180.000000       -0.619597         4
         4         9         8        29     9        0.000000       -0.092253         1
         4         9         8        29     9      180.000000       13.762606         2
         4         9         8        29     9        0.000000       -0.410706         3
         4         9         8        29     9      180.000000        0.004776         4
         4         9        10        11     9        0.000000        0.023605         1
         4         9        10        11     9      180.000000        4.790523         2
         4         9        10        11     9        0.000000        0.640412         3
         4         9        10        11     9      180.000000       -0.072919         4
         5         4         3        25     9        0.000000        1.765491         1
         5         4         3        25     9      180.000000        6.020784         2
         5         4         3        25     9        0.000000       -0.041623         3
         5         4         3        25     9      180.000000       -0.528396         4
         5         4         9         8     9        0.000000       -0.424746         1
         5         4         9         8     9      180.000000       15.455205         2
         5         4         9         8     9        0.000000       -1.356122         3
         5         4         9         8     9      180.000000       -0.374831         4
         5         4         9        10     9        0.000000        0.697627         1
         5         4         9        10     9      180.000000       17.580037         2
         5         4         9        10     9        0.000000        0.369726         3
         5         4         9        10     9      180.000000       -0.714118         4
         5         6         7         8     9        0.000000       -0.214797         1
         5         6         7         8     9      180.000000       19.331316         2
         5         6         7         8     9        0.000000       -1.643287         3
         5         6         7         8     9      180.000000       -0.557312         4
         5         6         7        28     9        0.000000       -0.000406         1
         5         6         7        28     9      180.000000       14.740286         2
         5         6         7        28     9        0.000000       -0.579435         3
         5         6         7        28     9      180.000000       -0.087955         4
         5         6        19        20     9        0.000000       -0.023766         1
         5         6        19        20     9      180.000000        1.313226         2
         5         6        19        20     9        0.000000        0.256470         3
         5         6        19        20     9      180.000000       -0.129203         4
         5         6        19        21     9        0.000000       -0.023766         1
         5         6        19        21     9      180.000000        1.313226         2
         5         6        19        21     9        0.000000        0.256470         3
         5         6        19        21     9      180.000000       -0.129203         4
         5         6        19        22     9        0.000000        0.448484         1
         5         6        19        22     9      180.000000       -1.923645         2
         5         6        19        22     9        0.000000        0.408453         3
         5         6        19        22     9      180.000000        0.107187         4
         6         5         1        26     9        0.000000        0.198955         1
         6         5         1        26     9      180.000000        0.037650         2
         6         5         1        26     9        0.000000       -0.145583         3
         6         5         1        26     9      180.000000        0.111468         4
         6         5         1        27     9        0.000000        0.198955         1
         6         5         1        27     9      180.000000        0.037650         2
         6         5         1        27     9        0.000000       -0.145583         3
         6         5         1        27     9      180.000000        0.111468         4
         6         5         4         9     9        0.000000       -0.378923         1
         6         5         4         9     9      180.000000       12.912291         2
         6         5         4         9     9        0.000000       -1.907120         3
         6         5         4         9     9      180.000000       -0.095212         4
         6         7         8         9     9        0.000000       -0.118964         1
         6         7         8         9     9      180.000000       18.346733         2
         6         7         8         9     9        0.000000       -1.832200         3
         6         7         8         9     9      180.000000       -0.468576         4
         6         7         8        29     9        0.000000       -0.009004         1
         6         7         8        29     9      180.000000       14.748587         2
         6         7         8        29     9        0.000000       -0.742759         3
         6         7         8        29     9      180.000000       -0.011462         4
         6        19        22        23     9        0.000000       -0.254825         1
         6        19        22        23     9      180.000000       -0.283287         2
         6        19        22        23     9        0.000000        0.254593         3
         6        19        22        23     9      180.000000        0.046680         4
         6        19        22        24     9        0.000000       -0.254825         1
         6        19        22        24     9      180.000000       -0.283287         2
         6        19        22        24     9        0.000000        0.254593         3
         6        19        22        24     9      180.000000        0.046680         4
         6        19        22        33     9        0.000000        0.017907         1
         6        19        22        33     9      180.000000       -0.097423         2
         6        19        22        33     9        0.000000        0.395105         3
         6        19        22        33     9      180.000000       -0.027891         4
         7         6        19        20     9        0.000000       -0.022649         1
         7         6        19        20     9      180.000000        1.153588         2
         7         6        19        20     9        0.000000        0.136953         3
         7         6        19        20     9      180.000000       -0.045425         4
         7         6        19        21     9        0.000000       -0.022649         1
         7         6        19        21     9      180.000000        1.153588         2
         7         6        19        21     9        0.000000        0.136953         3
         7         6        19        21     9      180.000000       -0.045425         4
         7         6        19        22     9        0.000000        0.072321         1
         7         6        19        22     9      180.000000       -1.872799         2
         7         6        19        22     9        0.000000        0.209172         3
         7         6        19        22     9      180.000000        0.068626         4
         7         8         9        10     9        0.000000        0.708570         1
         7         8         9        10     9      180.000000       19.788419         2
         7         8         9        10     9        0.000000        0.745798         3
         7         8         9        10     9      180.000000       -0.575866         4
         8         7         6        19     9        0.000000       -0.345723         1
         8         7         6        19     9      180.000000       13.443070         2
         8         7         6        19     9        0.000000        0.015216         3
         8         7         6        19     9      180.000000       -0.339838         4
         8         9        10        11     9        0.000000        0.509435         1
         8         9        10        11     9      180.000000        5.219032         2
         8         9        10        11     9        0.000000       -0.438398         3
         8         9        10        11     9      180.000000        0.164206         4
         9         4         3        25     9        0.000000       -1.119210         1
         9         4         3        25     9      180.000000        4.494624         2
         9         4         3        25     9        0.000000        0.241325         3
         9         4         3        25     9      180.000000       -0.330463         4
         9         8         7        28     9        0.000000        0.188841         1
         9         8         7        28     9      180.000000       14.586119         2
         9         8         7        28     9        0.000000       -0.548219         3
         9         8         7        28     9      180.000000        0.052398         4
         9        10        11        12     9        0.000000        0.114908         1
         9        10        11        12     9      180.000000        4.199689         2
         9        10        11        12     9        0.000000       -0.004692         3
         9        10        11        12     9      180.000000        0.226201         4
         9        10        11        18     9        0.000000        0.056488         1
         9        10        11        18     9      180.000000        4.148226         2
         9        10        11        18     9        0.000000        0.001080         3
         9        10        11        18     9      180.000000        0.236904         4
        10         9         8        29     9        0.000000        0.146654         1
        10         9         8        29     9      180.000000       14.998173         2
        10         9         8        29     9        0.000000        0.124075         3
        10         9         8        29     9      180.000000        0.161811         4
        10        11        12        13     9        0.000000        0.501343         1
        10        11        12        13     9      180.000000       18.538952         2
        10        11        12        13     9        0.000000        0.618040         3
        10        11        12        13     9      180.000000       -0.421442         4
        10        11        12        30     9        0.000000        0.247283         1
        10        11        12        30     9      180.000000       13.930262         2
        10        11        12        30     9        0.000000       -0.025313         3
        10        11        12        30     9      180.000000        0.381618         4
        10        11        18        16     9        0.000000        0.547540         1
        10        11        18        16     9      180.000000       18.534816         2
        10        11        18        16     9        0.000000        0.558094         3
        10        11        18        16     9      180.000000       -0.418476         4
        10        11        18        32     9        0.000000        0.210579         1
        10        11        18        32     9      180.000000       14.004955         2
        10        11        18        32     9        0.000000       -0.026832         3
        10        11        18        32     9      180.000000        0.372786         4
        11        12        13        14     9        0.000000        0.430309         1
        11        12        13        14     9      180.000000       22.945629         2
        11        12        13        14     9        0.000000        0.599111         3
        11        12        13        14     9      180.000000       -0.857240         4
        11        12        13        15     9        0.000000       -0.006248         1
        11        12        13        15     9      180.000000       17.216094         2
        11        12        13        15     9        0.000000       -1.226757         3
        11        12        13        15     9      180.000000       -0.415623         4
        11        18        16        15     9        0.000000       -0.027064         1
        11        18        16        15     9      180.000000       17.684795         2
        11        18        16        15     9        0.000000       -1.371854         3
        11        18        16        15     9      180.000000       -0.418568         4
        11        18        16        17     9        0.000000        0.434260         1
        11        18        16        17     9      180.000000       19.158021         2
        11        18        16        17     9        0.000000        0.400622         3
        11        18        16        17     9      180.000000       -0.609133         4
        12        11        18        16     9        0.000000       -0.215490         1
        12        11        18        16     9      180.000000       16.868095         2
        12        11        18        16     9        0.000000       -1.189563         3
        12        11        18        16     9      180.000000       -0.299934         4
        12        11        18        32     9        0.000000        0.133721         1
        12        11        18        32     9      180.000000       12.828883         2
        12        11        18        32     9        0.000000       -0.573399         3
        12        11        18        32     9      180.000000        0.222873         4
        12        13        15        16     9        0.000000       -0.152622         1
        12        13        15        16     9      180.000000       17.281231         2
        12        13        15        16     9        0.000000       -1.226413         3
        12        13        15        16     9      180.000000       -0.426919         4
        12        13        15        31     9        0.000000        0.077945         1
        12        13        15        31     9      180.000000       12.784065         2
        12        13        15        31     9        0.000000       -0.561854         3
        12        13        15        31     9      180.000000        0.171852         4
        13        12        11        18     9        0.000000       -0.155541         1
        13        12        11        18     9      180.000000       16.697198         2
        13        12        11        18     9        0.000000       -1.120760         3
        13        12        11        18     9      180.000000       -0.232174         4
        13        15        16        17     9        0.000000        0.426515         1
        13        15        16        17     9      180.000000       19.269614         2
        13        15        16        17     9        0.000000        0.466542         3
        13        15        16        17     9      180.000000       -0.633614         4
        13        15        16        18     9        0.000000       -0.162255         1
        13        15        16        18     9      180.000000       17.890527         2
        13        15        16        18     9        0.000000       -1.359384         3
        13        15        16        18     9      180.000000       -0.412626         4
        14        13        12        30     9        0.000000        0.312767         1
        14        13        12        30     9      180.000000       15.725541         2
        14        13        12        30     9        0.000000        0.248669         3
        14        13        12        30     9      180.000000        0.150057         4
        14        13        15        16     9        0.000000        0.492414         1
        14        13        15        16     9      180.000000       22.854103         2
        14        13        15        16     9        0.000000        0.593022         3
        14        13        15        16     9      180.000000       -0.774882         4
        14        13        15        31     9        0.000000        0.277356         1
        14        13        15        31     9      180.000000       15.295311         2
        14        13        15        31     9        0.000000        0.235276         3
        14        13        15        31     9      180.000000        0.207846         4
        15        13        12        30     9        0.000000        0.195204         1
        15        13        12        30     9      180.000000       12.591640         2
        15        13        12        30     9        0.000000       -0.548530         3
        15        13        12        30     9      180.000000        0.166980         4
        15        16        18        32     9        0.000000        0.121907         1
        15        16        18        32     9      180.000000       13.469893         2
        15        16        18        32     9        0.000000       -0.629380         3
        15        16        18        32     9      180.000000        0.125023         4
        17        16        15        31     9        0.000000        0.266809         1
        17        16        15        31     9      180.000000       13.085369         2
        17        16        15        31     9        0.000000       -0.134809         3
        17        16        15        31     9      180.000000        0.240905         4
        17        16        18        32     9        0.000000        0.203433         1
        17        16        18        32     9      180.000000       13.503986         2
        17        16        18        32     9        0.000000       -0.134694         3
        17        16        18        32     9      180.000000        0.246771         4
        18        11        12        30     9        0.000000        0.173528         1
        18        11        12        30     9      180.000000       12.518209         2
        18        11        12        30     9        0.000000       -0.536331         3
        18        11        12        30     9      180.000000        0.214043         4
        18        16        15        31     9        0.000000        0.072301         1
        18        16        15        31     9      180.000000       13.335656         2
        18        16        15        31     9        0.000000       -0.587084         3
        18        16        15        31     9      180.000000        0.131164         4
        19         6         7        28     9        0.000000        0.235290         1
        19         6         7        28     9      180.000000       11.546083         2
        19         6         7        28     9        0.000000       -0.156780         3
        19         6         7        28     9      180.000000       -0.052720         4
        20        19        22        23     9        0.000000        0.133985         1
        20        19        22        23     9      180.000000        0.103426         2
        20        19        22        23     9        0.000000        0.248649         3
        20        19        22        23     9      180.000000        0.108088         4
        20        19        22        24     9        0.000000        0.133985         1
        20        19        22        24     9      180.000000        0.103426         2
        20        19        22        24     9        0.000000        0.248649         3
        20        19        22        24     9      180.000000        0.108088         4
        20        19        22        33     9        0.000000       -0.211915         1
        20        19        22        33     9      180.000000        0.084337         2
        20        19        22        33     9        0.000000        0.310482         3
        20        19        22        33     9      180.000000       -0.013171         4
        21        19        22        23     9        0.000000        0.133985         1
        21        19        22        23     9      180.000000        0.103426         2
        21        19        22        23     9        0.000000        0.248649         3
        21        19        22        23     9      180.000000        0.108088         4
        21        19        22        24     9        0.000000        0.133985         1
        21        19        22        24     9      180.000000        0.103426         2
        21        19        22        24     9        0.000000        0.248649         3
        21        19        22        24     9      180.000000        0.108088         4
        21        19        22        33     9        0.000000       -0.211915         1
        21        19        22        33     9      180.000000        0.084337         2
        21        19        22        33     9        0.000000        0.310482         3
        21        19        22        33     9      180.000000       -0.013171         4
        28         7         8        29     9        0.000000       -0.073505         1
        28         7         8        29     9      180.000000       12.928826         2
        28         7         8        29     9        0.000000       -0.785843         3
        28         7         8        29     9      180.000000        0.232743         4

[ dihedrals ] ; impropers
;       ai        aj        ak        al funct           phase               k        pn
         3         2         4        25     4      180.000000       27.893333         2
         3         4        25         2     4      180.000000       27.893333         2
         3        25         2         4     4      180.000000       27.893333         2
         7         6         8        28     4      180.000000        0.289684         2
         7         8        28         6     4      180.000000        0.289684         2
         7        28         6         8     4      180.000000        0.289684         2
        13        12        14        15     4      180.000000        2.020522         2
        13        14        15        12     4      180.000000        2.020522         2
        13        15        12        14     4      180.000000        2.020522         2

[ pairs ]
;       ai        aj funct
         1         7     1
         1         9     1
         1        19     1
         1        25     1
         2         6     1
         2         9     1
         3         6     1
         3         8     1
         3        10     1
         3        26     1
         3        27     1
         4         7     1
         4        11     1
         4        19     1
         4        26     1
         4        27     1
         4        29     1
         5         8     1
         5        10     1
         5        20     1
         5        21     1
         5        22     1
         5        25     1
         5        28     1
         6         9     1
         6        23     1
         6        24     1
         6        26     1
         6        27     1
         6        29     1
         6        33     1
         7        10     1
         7        20     1
         7        21     1
         7        22     1
         8        11     1
         8        19     1
         9        12     1
         9        18     1
         9        25     1
         9        28     1
        10        13     1
        10        16     1
        10        29     1
        10        30     1
        10        32     1
        11        14     1
        11        15     1
        11        17     1
        12        16     1
        12        31     1
        12        32     1
        13        17     1
        13        18     1
        14        16     1
        14        30     1
        14        31     1
        15        30     1
        15        32     1
        17        31     1
        17        32     1
        18        30     1
        18        31     1
        19        28     1
        20        23     1
        20        24     1
        20        33     1
        21        23     1
        21        24     1
        21        33     1
        28        29     1
