; ITP file created by ByteFF-joint-25, 2026-03-16 05:23:48.499946

[ atomtypes ]
;name           bonded.type        at.num        mass        charge   ptype           sigma         epsilon
 p0bf                                  15      0.0000       0.00000       A     3.69096e-01     9.61753e-01    ;  uncertainty sigma = 0.000144, epsilon = 0.018021
 p1bf                                  15      0.0000       0.00000       A     3.69413e-01     9.64648e-01    ;  uncertainty sigma = 0.000136, epsilon = 0.007232
 c2bf                                   6      0.0000       0.00000       A     3.39680e-01     4.50142e-01    ;  uncertainty sigma = 0.000027, epsilon = 0.000643
 o3bf                                   8      0.0000       0.00000       A     3.15606e-01     3.11668e-01    ;  uncertainty sigma = 0.000128, epsilon = 0.009272
 c4bf                                   6      0.0000       0.00000       A     3.39820e-01     4.51796e-01    ;  uncertainty sigma = 0.000008, epsilon = 0.002042
 o5bf                                   8      0.0000       0.00000       A     3.15643e-01     3.02793e-01    ;  uncertainty sigma = 0.000031, epsilon = 0.001872
 c6bf                                   6      0.0000       0.00000       A     3.39787e-01     4.51051e-01    ;  uncertainty sigma = 0.000017, epsilon = 0.000390
 o7bf                                   8      0.0000       0.00000       A     3.24334e-01     3.88075e-01    ;  uncertainty sigma = 0.000016, epsilon = 0.001587
 c8bf                                   6      0.0000       0.00000       A     3.39770e-01     4.50733e-01    ;  uncertainty sigma = 0.000014, epsilon = 0.000876
 o9bf                                   8      0.0000       0.00000       A     3.24341e-01     3.88447e-01    ;  uncertainty sigma = 0.000020, epsilon = 0.000615
 c10bf                                  6      0.0000       0.00000       A     3.39792e-01     4.51176e-01    ;  uncertainty sigma = 0.000037, epsilon = 0.000685
 n11bf                                  7      0.0000       0.00000       A     3.27143e-01     4.89260e-01    ;  uncertainty sigma = 0.000052, epsilon = 0.005670
 o12bf                                  8      0.0000       0.00000       A     3.05188e-01     6.12622e-01    ;  uncertainty sigma = 0.000159, epsilon = 0.006848
 o13bf                                  8      0.0000       0.00000       A     3.04879e-01     6.15323e-01    ;  uncertainty sigma = 0.000094, epsilon = 0.003064
 c14bf                                  6      0.0000       0.00000       A     3.31499e-01     4.11675e-01    ;  uncertainty sigma = 0.000019, epsilon = 0.001424
 n15bf                                  7      0.0000       0.00000       A     3.36810e-01     4.66840e-01    ;  uncertainty sigma = 0.000062, epsilon = 0.003163
 o16bf                                  8      0.0000       0.00000       A     3.05188e-01     6.12622e-01    ;  uncertainty sigma = 0.000159, epsilon = 0.006848
 o17bf                                  8      0.0000       0.00000       A     3.04879e-01     6.15323e-01    ;  uncertainty sigma = 0.000094, epsilon = 0.003064
 n18bf                                  7      0.0000       0.00000       A     3.38472e-01     3.93820e-01    ;  uncertainty sigma = 0.000021, epsilon = 0.002504
 o19bf                                  8      0.0000       0.00000       A     3.15330e-01     3.09880e-01    ;  uncertainty sigma = 0.000154, epsilon = 0.018313
 o20bf                                  8      0.0000       0.00000       A     3.04879e-01     6.15323e-01    ;  uncertainty sigma = 0.000094, epsilon = 0.003064
 c21bf                                  6      0.0000       0.00000       A     3.31523e-01     4.12849e-01    ;  uncertainty sigma = 0.000015, epsilon = 0.000269
 c22bf                                  6      0.0000       0.00000       A     3.31523e-01     4.13126e-01    ;  uncertainty sigma = 0.000018, epsilon = 0.001142
 c23bf                                  6      0.0000       0.00000       A     3.31523e-01     4.13347e-01    ;  uncertainty sigma = 0.000012, epsilon = 0.000831
 o24bf                                  8      0.0000       0.00000       A     3.04805e-01     6.11957e-01    ;  uncertainty sigma = 0.000016, epsilon = 0.000905
 n25bf                                  7      0.0000       0.00000       A     3.38427e-01     3.93600e-01    ;  uncertainty sigma = 0.000009, epsilon = 0.000661
 c26bf                                  6      0.0000       0.00000       A     3.31529e-01     4.13740e-01    ;  uncertainty sigma = 0.000006, epsilon = 0.001774
 n27bf                                  7      0.0000       0.00000       A     3.20616e-01     8.52254e-01    ;  uncertainty sigma = 0.000037, epsilon = 0.003371
 h28bf                                  1      0.0000       0.00000       A     1.10682e-01     4.16195e-02    ;  uncertainty sigma = 0.000043, epsilon = 0.001326
 h29bf                                  1      0.0000       0.00000       A     5.39015e-02     1.94745e-02    ;  uncertainty sigma = 0.000107, epsilon = 0.000582
 h30bf                                  1      0.0000       0.00000       A     5.38661e-02     1.93480e-02    ;  uncertainty sigma = 0.000095, epsilon = 0.000584
 h31bf                                  1      0.0000       0.00000       A     2.44732e-01     6.73339e-02    ;  uncertainty sigma = 0.000050, epsilon = 0.000748
 h32bf                                  1      0.0000       0.00000       A     2.24658e-01     8.64826e-02    ;  uncertainty sigma = 0.000206, epsilon = 0.001396
 h33bf                                  1      0.0000       0.00000       A     2.42248e-01     8.72723e-02    ;  uncertainty sigma = 0.000112, epsilon = 0.001483
 h34bf                                  1      0.0000       0.00000       A     2.42172e-01     8.67530e-02    ;  uncertainty sigma = 0.000079, epsilon = 0.001130
 h35bf                                  1      0.0000       0.00000       A     2.42225e-01     8.67466e-02    ;  uncertainty sigma = 0.000038, epsilon = 0.000698
 h36bf                                  1      0.0000       0.00000       A     1.10686e-01     4.14341e-02    ;  uncertainty sigma = 0.000086, epsilon = 0.000807
 h37bf                                  1      0.0000       0.00000       A     1.10686e-01     4.14341e-02    ;  uncertainty sigma = 0.000086, epsilon = 0.000807
 h38bf                                  1      0.0000       0.00000       A     2.42096e-01     8.64993e-02    ;  uncertainty sigma = 0.000027, epsilon = 0.000711
 h39bf                                  1      0.0000       0.00000       A     2.42096e-01     8.64993e-02    ;  uncertainty sigma = 0.000027, epsilon = 0.000711

[ moleculetype ]
;name             nrexcl
 MOL                   3

[ atoms ]
;       nr            type      resi   res      atom      cgnr      charge          mass ; qtot
         1            p0bf         1   UNL        p0         1     1.45848       30.9740 ; qtot    1.458
         2            p1bf         1   UNL        p1         2     1.32256       30.9740 ; qtot    2.781
         3            c2bf         1   UNL        c2         3     0.17347       12.0110 ; qtot    2.955
         4            o3bf         1   UNL        o3         4    -0.56307       15.9990 ; qtot    2.391
         5            c4bf         1   UNL        c4         5     0.09646       12.0110 ; qtot    2.488
         6            o5bf         1   UNL        o5         6    -0.40781       15.9990 ; qtot    2.080
         7            c6bf         1   UNL        c6         7     0.10736       12.0110 ; qtot    2.187
         8            o7bf         1   UNL        o7         8    -0.59266       15.9990 ; qtot    1.595
         9            c8bf         1   UNL        c8         9     0.09918       12.0110 ; qtot    1.694
        10            o9bf         1   UNL        o9        10    -0.58938       15.9990 ; qtot    1.105
        11           c10bf         1   UNL       c10        11     0.24651       12.0110 ; qtot    1.351
        12           n11bf         1   UNL       n11        12    -0.53456       14.0070 ; qtot    0.817
        13           o12bf         1   UNL       o12        13    -0.90020       15.9990 ; qtot   -0.084
        14           o13bf         1   UNL       o13        14    -0.94524       15.9990 ; qtot   -1.029
        15           c14bf         1   UNL       c14        15     0.69987       12.0110 ; qtot   -0.329
        16           n15bf         1   UNL       n15        16    -0.89831       14.0070 ; qtot   -1.227
        17           o16bf         1   UNL       o16        17    -0.90020       15.9990 ; qtot   -2.128
        18           o17bf         1   UNL       o17        18    -0.94524       15.9990 ; qtot   -3.073
        19           n18bf         1   UNL       n18        19    -0.68468       14.0070 ; qtot   -3.757
        20           o19bf         1   UNL       o19        20    -0.78425       15.9990 ; qtot   -4.542
        21           o20bf         1   UNL       o20        21    -0.94524       15.9990 ; qtot   -5.487
        22           c21bf         1   UNL       c21        22     0.13022       12.0110 ; qtot   -5.357
        23           c22bf         1   UNL       c22        23     0.16730       12.0110 ; qtot   -5.189
        24           c23bf         1   UNL       c23        24     0.66155       12.0110 ; qtot   -4.528
        25           o24bf         1   UNL       o24        25    -0.57313       15.9990 ; qtot   -5.101
        26           n25bf         1   UNL       n25        26    -0.60625       14.0070 ; qtot   -5.707
        27           c26bf         1   UNL       c26        27     0.42876       12.0110 ; qtot   -5.279
        28           n27bf         1   UNL       n27        28    -0.22412       14.0070 ; qtot   -5.503
        29           h28bf         1   UNL       h28        29     0.32512        1.0080 ; qtot   -5.178
        30           h29bf         1   UNL       h29        30     0.43039        1.0080 ; qtot   -4.747
        31           h30bf         1   UNL       h30        31     0.42442        1.0080 ; qtot   -4.323
        32           h31bf         1   UNL       h31        32     0.07655        1.0080 ; qtot   -4.246
        33           h32bf         1   UNL       h32        33     0.10493        1.0080 ; qtot   -4.141
        34           h33bf         1   UNL       h33        34     0.08117        1.0080 ; qtot   -4.060
        35           h34bf         1   UNL       h34        35     0.07483        1.0080 ; qtot   -3.985
        36           h35bf         1   UNL       h35        36     0.07672        1.0080 ; qtot   -3.908
        37           h36bf         1   UNL       h36        37     0.41970        1.0080 ; qtot   -3.489
        38           h37bf         1   UNL       h37        38     0.41970        1.0080 ; qtot   -3.069
        39           h38bf         1   UNL       h38        39     0.03454        1.0080 ; qtot   -3.035
        40           h39bf         1   UNL       h39        40     0.03455        1.0080 ; qtot   -3.000

[ bonds ]
;       ai        aj funct               r               k
         1         4     1        0.170082   271869.266650    ;  uncertainty r = 0.000833, k = 90.936381
         1        13     1        0.151988   579432.976855    ;  uncertainty r = 0.000394, k = 30.857794
         1        17     1        0.151988   579432.976855    ;  uncertainty r = 0.000394, k = 30.857794
         1        20     1        0.165150   323719.558154    ;  uncertainty r = 0.002348, k = 101.023533
         2        14     1        0.154912   588616.785352    ;  uncertainty r = 0.000160, k = 16.209443
         2        18     1        0.154912   588616.785352    ;  uncertainty r = 0.000160, k = 16.209443
         2        20     1        0.188784   158813.367920    ;  uncertainty r = 0.003858, k = 188.445163
         2        21     1        0.154912   588616.785352    ;  uncertainty r = 0.000160, k = 16.209443
         3         4     1        0.141095   282887.916455    ;  uncertainty r = 0.000165, k = 57.052303
         3         5     1        0.150901   221231.809082    ;  uncertainty r = 0.000155, k = 14.112244
         3        39     1        0.109781   312249.642090    ;  uncertainty r = 0.000034, k = 10.541146
         3        40     1        0.109781   312249.642090    ;  uncertainty r = 0.000034, k = 10.541146
         5         6     1        0.143904   217515.546777    ;  uncertainty r = 0.000177, k = 28.714949
         5         7     1        0.152717   198107.292578    ;  uncertainty r = 0.000174, k = 10.142947
         5        36     1        0.109756   308461.646045    ;  uncertainty r = 0.000029, k = 4.605375
         6        11     1        0.141054   307445.294629    ;  uncertainty r = 0.000090, k = 75.281846
         7         8     1        0.141397   249958.733252    ;  uncertainty r = 0.000056, k = 7.479164
         7         9     1        0.154018   196144.267749    ;  uncertainty r = 0.000165, k = 23.369061
         7        35     1        0.109438   302280.567480    ;  uncertainty r = 0.000044, k = 3.959661
         8        31     1        0.097062   463405.682227    ;  uncertainty r = 0.000024, k = 2.987742
         9        10     1        0.140519   255382.585449    ;  uncertainty r = 0.000102, k = 16.960833
         9        11     1        0.153191   189888.965576    ;  uncertainty r = 0.000107, k = 12.821070
         9        34     1        0.109406   302728.692676    ;  uncertainty r = 0.000029, k = 5.502575
        10        30     1        0.097106   461230.278027    ;  uncertainty r = 0.000034, k = 0.860348
        11        28     1        0.145257   195349.054932    ;  uncertainty r = 0.000140, k = 23.016537
        11        33     1        0.109358   304859.202637    ;  uncertainty r = 0.000032, k = 6.567298
        12        15     1        0.139385   499006.404590    ;  uncertainty r = 0.000231, k = 22.606503
        12        24     1        0.144315   324286.839502    ;  uncertainty r = 0.000159, k = 15.518048
        12        29     1        0.102402   485194.710059    ;  uncertainty r = 0.000062, k = 11.440434
        15        16     1        0.140359   517459.060156    ;  uncertainty r = 0.000204, k = 18.537775
        15        19     1        0.132335   524028.277246    ;  uncertainty r = 0.000084, k = 8.829099
        16        37     1        0.101813   427768.646094    ;  uncertainty r = 0.000043, k = 5.545135
        16        38     1        0.101813   427768.646094    ;  uncertainty r = 0.000043, k = 5.545135
        19        22     1        0.135911   321633.457227    ;  uncertainty r = 0.000033, k = 28.328656
        22        23     1        0.140140   480400.577441    ;  uncertainty r = 0.000041, k = 10.213841
        22        28     1        0.137948   328191.080469    ;  uncertainty r = 0.000096, k = 16.655225
        23        24     1        0.142501   308185.206836    ;  uncertainty r = 0.000140, k = 35.766452
        23        26     1        0.138175   291488.074316    ;  uncertainty r = 0.000081, k = 12.735757
        24        25     1        0.123774   761602.099805    ;  uncertainty r = 0.000026, k = 10.285920
        26        27     1        0.131657   455492.549219    ;  uncertainty r = 0.000025, k = 11.976610
        27        28     1        0.139298   303888.690332    ;  uncertainty r = 0.000158, k = 4.185922
        27        32     1        0.108257   339576.596387    ;  uncertainty r = 0.000019, k = 2.808962

[ angles ]
;       ai        aj        ak funct           theta             cth
         1         4         3     1      117.104965      314.652365    ;  uncertainty theta = 0.021075, k = 0.503632
         1        20         2     1      145.441711      372.884572    ;  uncertainty theta = 0.051078, k = 0.742463
         3         5         6     1      107.607887      558.162174    ;  uncertainty theta = 0.001882, k = 0.106591
         3         5         7     1      112.213745      507.364841    ;  uncertainty theta = 0.003632, k = 0.221407
         3         5        36     1      108.696091      380.875708    ;  uncertainty theta = 0.003517, k = 0.122530
         4         1        13     1      112.902733      708.895983    ;  uncertainty theta = 0.025904, k = 0.139108
         4         1        17     1      112.902733      708.895983    ;  uncertainty theta = 0.025904, k = 0.139108
         4         1        20     1      101.770218      522.315925    ;  uncertainty theta = 0.021686, k = 0.366076
         4         3         5     1      105.812012      539.931231    ;  uncertainty theta = 0.003802, k = 0.081068
         4         3        39     1      108.866043      439.254817    ;  uncertainty theta = 0.002202, k = 0.158387
         4         3        40     1      108.866043      439.254817    ;  uncertainty theta = 0.002202, k = 0.158387
         5         3        39     1      108.433083      400.805283    ;  uncertainty theta = 0.003435, k = 0.082712
         5         3        40     1      108.433083      400.805283    ;  uncertainty theta = 0.003435, k = 0.082712
         5         6        11     1      112.911026      508.418502    ;  uncertainty theta = 0.004257, k = 0.175100
         5         7         8     1      110.073471      670.624603    ;  uncertainty theta = 0.001583, k = 0.183143
         5         7         9     1      105.899612      761.882995    ;  uncertainty theta = 0.002305, k = 0.140491
         5         7        35     1      109.903404      371.414975    ;  uncertainty theta = 0.001865, k = 0.050079
         6         5         7     1      107.047104      717.173263    ;  uncertainty theta = 0.002176, k = 0.220690
         6         5        36     1      108.867508      478.869736    ;  uncertainty theta = 0.002040, k = 0.094459
         6        11         9     1      108.311462      783.143341    ;  uncertainty theta = 0.003620, k = 0.143269
         6        11        28     1      108.752060      769.251281    ;  uncertainty theta = 0.003131, k = 0.081321
         6        11        33     1      110.082108      487.188801    ;  uncertainty theta = 0.003643, k = 0.068504
         7         5        36     1      108.711853      372.171799    ;  uncertainty theta = 0.002507, k = 0.037379
         7         8        31     1      107.572800      498.816357    ;  uncertainty theta = 0.000810, k = 0.040706
         7         9        10     1      110.560020      770.467486    ;  uncertainty theta = 0.001096, k = 0.163738
         7         9        11     1      105.762428      779.438545    ;  uncertainty theta = 0.002118, k = 0.137387
         7         9        34     1      109.821510      392.320546    ;  uncertainty theta = 0.002174, k = 0.055422
         8         7         9     1      110.668533      735.671642    ;  uncertainty theta = 0.002355, k = 0.129148
         8         7        35     1      108.322266      470.250483    ;  uncertainty theta = 0.002172, k = 0.039959
         9         7        35     1      109.195389      393.061474    ;  uncertainty theta = 0.001473, k = 0.060016
         9        10        30     1      107.424240      518.300470    ;  uncertainty theta = 0.000955, k = 0.121888
         9        11        28     1      111.246704      575.908230    ;  uncertainty theta = 0.004054, k = 0.097239
         9        11        33     1      110.175026      358.944566    ;  uncertainty theta = 0.005818, k = 0.088362
        10         9        11     1      108.833641      671.253837    ;  uncertainty theta = 0.000916, k = 0.028157
        10         9        34     1      108.508728      476.206248    ;  uncertainty theta = 0.001456, k = 0.112416
        11         9        34     1      108.970169      364.122917    ;  uncertainty theta = 0.001588, k = 0.138769
        11        28        22     1      119.019211      363.686679    ;  uncertainty theta = 0.005525, k = 0.126468
        11        28        27     1      121.750259      362.669728    ;  uncertainty theta = 0.006830, k = 0.143959
        12        15        16     1      124.806839      917.270368    ;  uncertainty theta = 0.012756, k = 0.359289
        12        15        19     1      122.434593      629.740712    ;  uncertainty theta = 0.009737, k = 0.071294
        12        24        23     1      106.250198      365.292197    ;  uncertainty theta = 0.018930, k = 0.895503
        12        24        25     1      124.205215      813.845203    ;  uncertainty theta = 0.003701, k = 0.265660
        13         1        17     1      128.082397      893.451651    ;  uncertainty theta = 0.005035, k = 0.122960
        13         1        20     1      115.819046      623.675457    ;  uncertainty theta = 0.010501, k = 0.366865
        14         2        18     1      123.697754      835.577092    ;  uncertainty theta = 0.008198, k = 0.196552
        14         2        20     1      107.323013      615.260660    ;  uncertainty theta = 0.018967, k = 0.139289
        14         2        21     1      123.697754      835.577092    ;  uncertainty theta = 0.008198, k = 0.196552
        15        12        24     1      122.757668      467.494678    ;  uncertainty theta = 0.005812, k = 0.231797
        15        12        29     1      117.995071      351.948036    ;  uncertainty theta = 0.005507, k = 0.126371
        15        16        37     1      117.332016      430.223075    ;  uncertainty theta = 0.000908, k = 0.046677
        15        16        38     1      117.332016      430.223075    ;  uncertainty theta = 0.000908, k = 0.046677
        15        19        22     1      106.341049      439.667369    ;  uncertainty theta = 0.008609, k = 0.207999
        16        15        19     1      127.119896      826.367835    ;  uncertainty theta = 0.005888, k = 0.254758
        17         1        20     1      115.819046      623.675457    ;  uncertainty theta = 0.010501, k = 0.366865
        18         2        20     1      107.323013      615.260660    ;  uncertainty theta = 0.018967, k = 0.139289
        18         2        21     1      123.697754      835.577092    ;  uncertainty theta = 0.008198, k = 0.196552
        19        22        23     1      130.866959      508.711381    ;  uncertainty theta = 0.005823, k = 0.314443
        19        22        28     1      123.202637      458.585610    ;  uncertainty theta = 0.002796, k = 0.107553
        20         2        21     1      107.323013      615.260660    ;  uncertainty theta = 0.018967, k = 0.139289
        22        23        24     1      122.906837      438.102486    ;  uncertainty theta = 0.015422, k = 0.097286
        22        23        26     1      110.319870      796.179780    ;  uncertainty theta = 0.006137, k = 0.180881
        22        28        27     1      105.180931      910.113594    ;  uncertainty theta = 0.004604, k = 0.226404
        23        22        28     1      107.081711      617.203715    ;  uncertainty theta = 0.005553, k = 0.311667
        23        24        25     1      128.776337      444.470516    ;  uncertainty theta = 0.010373, k = 0.136327
        23        26        27     1      106.625099      844.226319    ;  uncertainty theta = 0.004402, k = 0.154479
        24        12        29     1      115.066345      344.981321    ;  uncertainty theta = 0.004397, k = 0.264498
        24        23        26     1      120.878929      398.509592    ;  uncertainty theta = 0.006569, k = 0.188901
        26        27        28     1      114.027428      960.846892    ;  uncertainty theta = 0.002676, k = 0.123079
        26        27        32     1      124.359459      269.838760    ;  uncertainty theta = 0.004257, k = 0.170953
        28        11        33     1      106.330399      456.074131    ;  uncertainty theta = 0.004748, k = 0.223438
        28        27        32     1      118.125916      272.587638    ;  uncertainty theta = 0.004408, k = 0.085027
        37        16        38     1      108.735863      293.860689    ;  uncertainty theta = 0.001786, k = 0.043497
        39         3        40     1      107.194176      328.627005    ;  uncertainty theta = 0.003684, k = 0.164257

[ dihedrals ] ; propers for gromacs 4.5 or higher, use funct 9
;       ai        aj        ak        al funct           phase               k        pn
         1         4         3         5     9        0.000000       -7.029115         1    ;  uncertainty k = 2.840033
         1         4         3         5     9      180.000000        0.376394         2    ;  uncertainty k = 1.625696
         1         4         3         5     9        0.000000        0.014121         3    ;  uncertainty k = 0.514130
         1         4         3         5     9      180.000000        0.196171         4    ;  uncertainty k = 0.348643
         1         4         3        39     9        0.000000        4.031573         1    ;  uncertainty k = 1.659253
         1         4         3        39     9      180.000000        2.210581         2    ;  uncertainty k = 1.394698
         1         4         3        39     9        0.000000       -0.056199         3    ;  uncertainty k = 0.339178
         1         4         3        39     9      180.000000       -0.123386         4    ;  uncertainty k = 0.305851
         1         4         3        40     9        0.000000        4.031573         1    ;  uncertainty k = 1.659253
         1         4         3        40     9      180.000000        2.210581         2    ;  uncertainty k = 1.394698
         1         4         3        40     9        0.000000       -0.056199         3    ;  uncertainty k = 0.339178
         1         4         3        40     9      180.000000       -0.123386         4    ;  uncertainty k = 0.305851
         1        20         2        14     9        0.000000      -34.618656         1    ;  uncertainty k = 10.402065
         1        20         2        14     9      180.000000        5.698468         2    ;  uncertainty k = 1.943537
         1        20         2        14     9        0.000000        0.128361         3    ;  uncertainty k = 1.030207
         1        20         2        14     9      180.000000       -1.396144         4    ;  uncertainty k = 0.612193
         1        20         2        18     9        0.000000      -34.618656         1    ;  uncertainty k = 10.402065
         1        20         2        18     9      180.000000        5.698468         2    ;  uncertainty k = 1.943537
         1        20         2        18     9        0.000000        0.128361         3    ;  uncertainty k = 1.030207
         1        20         2        18     9      180.000000       -1.396144         4    ;  uncertainty k = 0.612193
         1        20         2        21     9        0.000000      -34.618656         1    ;  uncertainty k = 10.402065
         1        20         2        21     9      180.000000        5.698468         2    ;  uncertainty k = 1.943537
         1        20         2        21     9        0.000000        0.128361         3    ;  uncertainty k = 1.030207
         1        20         2        21     9      180.000000       -1.396144         4    ;  uncertainty k = 0.612193
         2        20         1         4     9        0.000000      -26.796727         1    ;  uncertainty k = 6.741500
         2        20         1         4     9      180.000000       -1.907440         2    ;  uncertainty k = 2.622610
         2        20         1         4     9        0.000000        1.302171         3    ;  uncertainty k = 0.623435
         2        20         1         4     9      180.000000       -0.611894         4    ;  uncertainty k = 0.886195
         2        20         1        13     9        0.000000      -39.296384         1    ;  uncertainty k = 5.026387
         2        20         1        13     9      180.000000        1.604502         2    ;  uncertainty k = 2.148121
         2        20         1        13     9        0.000000        1.292350         3    ;  uncertainty k = 1.027928
         2        20         1        13     9      180.000000       -1.603657         4    ;  uncertainty k = 0.401624
         2        20         1        17     9        0.000000      -39.296384         1    ;  uncertainty k = 5.026387
         2        20         1        17     9      180.000000        1.604502         2    ;  uncertainty k = 2.148121
         2        20         1        17     9        0.000000        1.292350         3    ;  uncertainty k = 1.027928
         2        20         1        17     9      180.000000       -1.603657         4    ;  uncertainty k = 0.401624
         3         4         1        13     9        0.000000      -11.104741         1    ;  uncertainty k = 3.527821
         3         4         1        13     9      180.000000        2.985160         2    ;  uncertainty k = 0.655754
         3         4         1        13     9        0.000000        0.077837         3    ;  uncertainty k = 0.358070
         3         4         1        13     9      180.000000       -0.154894         4    ;  uncertainty k = 0.254991
         3         4         1        17     9        0.000000      -11.104741         1    ;  uncertainty k = 3.527821
         3         4         1        17     9      180.000000        2.985160         2    ;  uncertainty k = 0.655754
         3         4         1        17     9        0.000000        0.077837         3    ;  uncertainty k = 0.358070
         3         4         1        17     9      180.000000       -0.154894         4    ;  uncertainty k = 0.254991
         3         4         1        20     9        0.000000      -11.849533         1    ;  uncertainty k = 2.756538
         3         4         1        20     9      180.000000       -2.930813         2    ;  uncertainty k = 1.468921
         3         4         1        20     9        0.000000        1.004366         3    ;  uncertainty k = 0.529744
         3         4         1        20     9      180.000000       -0.342216         4    ;  uncertainty k = 0.149093
         3         5         6        11     9        0.000000       -0.310736         1    ;  uncertainty k = 2.536595
         3         5         6        11     9      180.000000        1.432082         2    ;  uncertainty k = 1.039942
         3         5         6        11     9        0.000000        0.890776         3    ;  uncertainty k = 0.132892
         3         5         6        11     9      180.000000       -0.390314         4    ;  uncertainty k = 0.256759
         3         5         7         8     9        0.000000       -2.107198         1    ;  uncertainty k = 0.636408
         3         5         7         8     9      180.000000        0.379220         2    ;  uncertainty k = 0.570580
         3         5         7         8     9        0.000000        0.882740         3    ;  uncertainty k = 0.134305
         3         5         7         8     9      180.000000       -0.225819         4    ;  uncertainty k = 0.160194
         3         5         7         9     9        0.000000        1.344259         1    ;  uncertainty k = 3.223506
         3         5         7         9     9      180.000000        0.563724         2    ;  uncertainty k = 1.258260
         3         5         7         9     9        0.000000       -1.037303         3    ;  uncertainty k = 0.208082
         3         5         7         9     9      180.000000       -0.502220         4    ;  uncertainty k = 0.150407
         3         5         7        35     9        0.000000       -0.552333         1    ;  uncertainty k = 1.314100
         3         5         7        35     9      180.000000        0.287007         2    ;  uncertainty k = 0.791875
         3         5         7        35     9        0.000000        0.005985         3    ;  uncertainty k = 0.321665
         3         5         7        35     9      180.000000       -0.233634         4    ;  uncertainty k = 0.027694
         4         3         5         6     9        0.000000       -4.046106         1    ;  uncertainty k = 0.413225
         4         3         5         6     9      180.000000       -3.002835         2    ;  uncertainty k = 0.416297
         4         3         5         6     9        0.000000        3.117190         3    ;  uncertainty k = 0.585752
         4         3         5         6     9      180.000000        0.081360         4    ;  uncertainty k = 0.360126
         4         3         5         7     9        0.000000       -2.975981         1    ;  uncertainty k = 0.705095
         4         3         5         7     9      180.000000        0.241090         2    ;  uncertainty k = 0.547155
         4         3         5         7     9        0.000000        0.747780         3    ;  uncertainty k = 0.223251
         4         3         5         7     9      180.000000       -0.050501         4    ;  uncertainty k = 0.115927
         4         3         5        36     9        0.000000        0.538754         1    ;  uncertainty k = 1.229615
         4         3         5        36     9      180.000000       -0.028550         2    ;  uncertainty k = 0.492656
         4         3         5        36     9        0.000000        0.776019         3    ;  uncertainty k = 0.161097
         4         3         5        36     9      180.000000       -0.160368         4    ;  uncertainty k = 0.153717
         5         6        11         9     9        0.000000       -0.837037         1    ;  uncertainty k = 1.282909
         5         6        11         9     9      180.000000        1.008497         2    ;  uncertainty k = 0.672711
         5         6        11         9     9        0.000000        0.486404         3    ;  uncertainty k = 0.346060
         5         6        11         9     9      180.000000       -0.063227         4    ;  uncertainty k = 0.139978
         5         6        11        28     9        0.000000       -4.003457         1    ;  uncertainty k = 2.266963
         5         6        11        28     9      180.000000        0.467335         2    ;  uncertainty k = 1.628620
         5         6        11        28     9        0.000000        1.225656         3    ;  uncertainty k = 0.525885
         5         6        11        28     9      180.000000       -0.162672         4    ;  uncertainty k = 0.187759
         5         6        11        33     9        0.000000       -2.385607         1    ;  uncertainty k = 1.308524
         5         6        11        33     9      180.000000        2.769076         2    ;  uncertainty k = 0.447655
         5         6        11        33     9        0.000000        1.109706         3    ;  uncertainty k = 0.310503
         5         6        11        33     9      180.000000       -0.166770         4    ;  uncertainty k = 0.128424
         5         7         8        31     9        0.000000       16.840319         1    ;  uncertainty k = 0.195766
         5         7         8        31     9      180.000000       -2.522238         2    ;  uncertainty k = 0.189419
         5         7         8        31     9        0.000000        1.133366         3    ;  uncertainty k = 0.078698
         5         7         8        31     9      180.000000        0.331146         4    ;  uncertainty k = 0.027008
         5         7         9        10     9        0.000000       -4.358535         1    ;  uncertainty k = 1.382596
         5         7         9        10     9      180.000000        2.229046         2    ;  uncertainty k = 0.652517
         5         7         9        10     9        0.000000        0.858860         3    ;  uncertainty k = 0.321069
         5         7         9        10     9      180.000000       -0.036259         4    ;  uncertainty k = 0.062650
         5         7         9        11     9        0.000000        1.496061         1    ;  uncertainty k = 2.508935
         5         7         9        11     9      180.000000        5.948160         2    ;  uncertainty k = 1.673898
         5         7         9        11     9        0.000000       -0.688412         3    ;  uncertainty k = 0.337237
         5         7         9        11     9      180.000000       -1.822543         4    ;  uncertainty k = 0.753035
         5         7         9        34     9        0.000000       -0.272354         1    ;  uncertainty k = 0.774008
         5         7         9        34     9      180.000000        0.112307         2    ;  uncertainty k = 0.463748
         5         7         9        34     9        0.000000        0.158226         3    ;  uncertainty k = 0.124034
         5         7         9        34     9      180.000000        0.097575         4    ;  uncertainty k = 0.120009
         6         5         3        39     9        0.000000       -0.058754         1    ;  uncertainty k = 0.139144
         6         5         3        39     9      180.000000       -0.745434         2    ;  uncertainty k = 0.354571
         6         5         3        39     9        0.000000        0.511655         3    ;  uncertainty k = 0.258611
         6         5         3        39     9      180.000000       -0.056521         4    ;  uncertainty k = 0.069295
         6         5         3        40     9        0.000000       -0.058754         1    ;  uncertainty k = 0.139144
         6         5         3        40     9      180.000000       -0.745434         2    ;  uncertainty k = 0.354571
         6         5         3        40     9        0.000000        0.511655         3    ;  uncertainty k = 0.258611
         6         5         3        40     9      180.000000       -0.056521         4    ;  uncertainty k = 0.069295
         6         5         7         8     9        0.000000       -6.253362         1    ;  uncertainty k = 2.613414
         6         5         7         8     9      180.000000        0.791187         2    ;  uncertainty k = 1.581068
         6         5         7         8     9        0.000000        4.355898         3    ;  uncertainty k = 0.892410
         6         5         7         8     9      180.000000        0.497648         4    ;  uncertainty k = 0.256593
         6         5         7         9     9        0.000000        0.411459         1    ;  uncertainty k = 0.629223
         6         5         7         9     9      180.000000        4.731064         2    ;  uncertainty k = 0.696592
         6         5         7         9     9        0.000000        0.148190         3    ;  uncertainty k = 0.364669
         6         5         7         9     9      180.000000       -0.843352         4    ;  uncertainty k = 0.162384
         6         5         7        35     9        0.000000       -0.477133         1    ;  uncertainty k = 0.501469
         6         5         7        35     9      180.000000        1.575635         2    ;  uncertainty k = 0.577158
         6         5         7        35     9        0.000000        1.290460         3    ;  uncertainty k = 0.294835
         6         5         7        35     9      180.000000        0.342792         4    ;  uncertainty k = 0.181510
         6        11         9         7     9        0.000000       -0.211976         1    ;  uncertainty k = 1.012991
         6        11         9         7     9      180.000000        5.649995         2    ;  uncertainty k = 0.604334
         6        11         9         7     9        0.000000       -0.010072         3    ;  uncertainty k = 0.215933
         6        11         9         7     9      180.000000       -0.700167         4    ;  uncertainty k = 0.426912
         6        11         9        10     9        0.000000       -6.560199         1    ;  uncertainty k = 2.540339
         6        11         9        10     9      180.000000        1.758888         2    ;  uncertainty k = 1.478416
         6        11         9        10     9        0.000000        3.976684         3    ;  uncertainty k = 0.829069
         6        11         9        10     9      180.000000        0.626881         4    ;  uncertainty k = 0.328145
         6        11         9        34     9        0.000000       -0.794150         1    ;  uncertainty k = 0.110575
         6        11         9        34     9      180.000000        2.001696         2    ;  uncertainty k = 0.479490
         6        11         9        34     9        0.000000        1.428163         3    ;  uncertainty k = 0.319236
         6        11         9        34     9      180.000000        0.317559         4    ;  uncertainty k = 0.159932
         6        11        28        22     9        0.000000       -8.637726         1    ;  uncertainty k = 0.835042
         6        11        28        22     9      180.000000       -0.354911         2    ;  uncertainty k = 0.348605
         6        11        28        22     9        0.000000        1.135509         3    ;  uncertainty k = 0.588534
         6        11        28        22     9      180.000000       -0.207921         4    ;  uncertainty k = 0.077007
         6        11        28        27     9        0.000000        3.046208         1    ;  uncertainty k = 1.418998
         6        11        28        27     9      180.000000       -0.359639         2    ;  uncertainty k = 0.447200
         6        11        28        27     9        0.000000        0.480488         3    ;  uncertainty k = 0.320822
         6        11        28        27     9      180.000000        0.004452         4    ;  uncertainty k = 0.112977
         7         5         3        39     9        0.000000       -0.751081         1    ;  uncertainty k = 0.473640
         7         5         3        39     9      180.000000       -0.243975         2    ;  uncertainty k = 0.373536
         7         5         3        39     9        0.000000        0.033276         3    ;  uncertainty k = 0.110934
         7         5         3        39     9      180.000000       -0.283752         4    ;  uncertainty k = 0.091142
         7         5         3        40     9        0.000000       -0.751081         1    ;  uncertainty k = 0.473640
         7         5         3        40     9      180.000000       -0.243975         2    ;  uncertainty k = 0.373536
         7         5         3        40     9        0.000000        0.033276         3    ;  uncertainty k = 0.110934
         7         5         3        40     9      180.000000       -0.283752         4    ;  uncertainty k = 0.091142
         7         5         6        11     9        0.000000        0.954307         1    ;  uncertainty k = 1.581171
         7         5         6        11     9      180.000000       -1.633735         2    ;  uncertainty k = 0.513056
         7         5         6        11     9        0.000000        0.834370         3    ;  uncertainty k = 0.597907
         7         5         6        11     9      180.000000       -0.253005         4    ;  uncertainty k = 0.078941
         7         9        10        30     9        0.000000       16.385714         1    ;  uncertainty k = 0.119749
         7         9        10        30     9      180.000000       -4.820362         2    ;  uncertainty k = 0.313639
         7         9        10        30     9        0.000000        1.027246         3    ;  uncertainty k = 0.111300
         7         9        10        30     9      180.000000        0.197103         4    ;  uncertainty k = 0.113796
         7         9        11        28     9        0.000000        3.254198         1    ;  uncertainty k = 2.633046
         7         9        11        28     9      180.000000       -1.968455         2    ;  uncertainty k = 0.292653
         7         9        11        28     9        0.000000       -0.376775         3    ;  uncertainty k = 0.163393
         7         9        11        28     9      180.000000        0.089636         4    ;  uncertainty k = 0.422400
         7         9        11        33     9        0.000000        1.588407         1    ;  uncertainty k = 0.853756
         7         9        11        33     9      180.000000       -0.753478         2    ;  uncertainty k = 0.259891
         7         9        11        33     9        0.000000       -0.801808         3    ;  uncertainty k = 0.063110
         7         9        11        33     9      180.000000       -0.165636         4    ;  uncertainty k = 0.204329
         8         7         5        36     9        0.000000       -0.478789         1    ;  uncertainty k = 0.600120
         8         7         5        36     9      180.000000        0.138920         2    ;  uncertainty k = 0.350348
         8         7         5        36     9        0.000000        1.001505         3    ;  uncertainty k = 0.136069
         8         7         5        36     9      180.000000        0.021835         4    ;  uncertainty k = 0.068113
         8         7         9        10     9        0.000000       -2.686659         1    ;  uncertainty k = 1.610586
         8         7         9        10     9      180.000000        1.576999         2    ;  uncertainty k = 0.492894
         8         7         9        10     9        0.000000        1.152151         3    ;  uncertainty k = 0.698567
         8         7         9        10     9      180.000000       -0.167065         4    ;  uncertainty k = 0.211682
         8         7         9        11     9        0.000000       -4.236947         1    ;  uncertainty k = 0.842586
         8         7         9        11     9      180.000000        0.966272         2    ;  uncertainty k = 0.588316
         8         7         9        11     9        0.000000        0.498331         3    ;  uncertainty k = 0.292236
         8         7         9        11     9      180.000000       -0.161352         4    ;  uncertainty k = 0.175789
         8         7         9        34     9        0.000000       -0.129640         1    ;  uncertainty k = 0.163003
         8         7         9        34     9      180.000000        0.336922         2    ;  uncertainty k = 0.319622
         8         7         9        34     9        0.000000        1.072178         3    ;  uncertainty k = 0.152110
         8         7         9        34     9      180.000000        0.094566         4    ;  uncertainty k = 0.082864
         9         7         5        36     9        0.000000        1.441095         1    ;  uncertainty k = 0.753143
         9         7         5        36     9      180.000000       -1.213229         2    ;  uncertainty k = 0.308705
         9         7         5        36     9        0.000000       -0.767307         3    ;  uncertainty k = 0.140970
         9         7         5        36     9      180.000000        0.008584         4    ;  uncertainty k = 0.127177
         9         7         8        31     9        0.000000       15.206795         1    ;  uncertainty k = 0.279633
         9         7         8        31     9      180.000000       -5.023107         2    ;  uncertainty k = 0.276633
         9         7         8        31     9        0.000000        1.060328         3    ;  uncertainty k = 0.101913
         9         7         8        31     9      180.000000        0.164004         4    ;  uncertainty k = 0.108169
         9        11        28        22     9        0.000000        0.432048         1    ;  uncertainty k = 1.067686
         9        11        28        22     9      180.000000        0.235659         2    ;  uncertainty k = 0.379499
         9        11        28        22     9        0.000000        0.302303         3    ;  uncertainty k = 0.258046
         9        11        28        22     9      180.000000        0.075620         4    ;  uncertainty k = 0.137696
         9        11        28        27     9        0.000000       -0.508021         1    ;  uncertainty k = 1.404949
         9        11        28        27     9      180.000000        1.154774         2    ;  uncertainty k = 0.260176
         9        11        28        27     9        0.000000        0.487767         3    ;  uncertainty k = 0.219965
         9        11        28        27     9      180.000000       -0.026225         4    ;  uncertainty k = 0.093621
        10         9         7        35     9        0.000000       -0.004604         1    ;  uncertainty k = 0.463475
        10         9         7        35     9      180.000000        0.247319         2    ;  uncertainty k = 0.132433
        10         9         7        35     9        0.000000        1.207732         3    ;  uncertainty k = 0.111700
        10         9         7        35     9      180.000000        0.147874         4    ;  uncertainty k = 0.051729
        10         9        11        28     9        0.000000        2.005801         1    ;  uncertainty k = 1.413984
        10         9        11        28     9      180.000000       -0.608569         2    ;  uncertainty k = 0.616165
        10         9        11        28     9        0.000000        0.917954         3    ;  uncertainty k = 0.354017
        10         9        11        28     9      180.000000        0.317633         4    ;  uncertainty k = 0.245407
        10         9        11        33     9        0.000000       -0.084951         1    ;  uncertainty k = 0.615808
        10         9        11        33     9      180.000000       -0.299282         2    ;  uncertainty k = 0.295514
        10         9        11        33     9        0.000000        0.892876         3    ;  uncertainty k = 0.280885
        10         9        11        33     9      180.000000        0.084040         4    ;  uncertainty k = 0.116307
        11         6         5        36     9        0.000000       -3.042042         1    ;  uncertainty k = 0.750427
        11         6         5        36     9      180.000000        1.487277         2    ;  uncertainty k = 0.395473
        11         6         5        36     9        0.000000        1.268284         3    ;  uncertainty k = 0.226935
        11         6         5        36     9      180.000000        0.012572         4    ;  uncertainty k = 0.083060
        11         9         7        35     9        0.000000        0.198934         1    ;  uncertainty k = 0.959970
        11         9         7        35     9      180.000000       -0.085470         2    ;  uncertainty k = 0.358474
        11         9         7        35     9        0.000000        0.008352         3    ;  uncertainty k = 0.084432
        11         9         7        35     9      180.000000        0.051007         4    ;  uncertainty k = 0.115702
        11         9        10        30     9        0.000000       16.035927         1    ;  uncertainty k = 0.203336
        11         9        10        30     9      180.000000       -3.797599         2    ;  uncertainty k = 0.224685
        11         9        10        30     9        0.000000        0.996262         3    ;  uncertainty k = 0.160057
        11         9        10        30     9      180.000000        0.208315         4    ;  uncertainty k = 0.043357
        11        28        22        19     9        0.000000        1.882492         1    ;  uncertainty k = 1.237193
        11        28        22        19     9      180.000000        5.472777         2    ;  uncertainty k = 1.063060
        11        28        22        19     9        0.000000        1.387112         3    ;  uncertainty k = 0.396045
        11        28        22        19     9      180.000000        0.083562         4    ;  uncertainty k = 0.148084
        11        28        22        23     9        0.000000        1.630018         1    ;  uncertainty k = 0.875699
        11        28        22        23     9      180.000000        5.369182         2    ;  uncertainty k = 1.049722
        11        28        22        23     9        0.000000        2.317133         3    ;  uncertainty k = 0.414450
        11        28        22        23     9      180.000000        0.270529         4    ;  uncertainty k = 0.285447
        11        28        27        26     9        0.000000        2.633046         1    ;  uncertainty k = 1.348750
        11        28        27        26     9      180.000000       10.224933         2    ;  uncertainty k = 0.689439
        11        28        27        26     9        0.000000        3.019838         3    ;  uncertainty k = 0.968174
        11        28        27        26     9      180.000000        0.009125         4    ;  uncertainty k = 0.192141
        11        28        27        32     9        0.000000       -0.381646         1    ;  uncertainty k = 0.530702
        11        28        27        32     9      180.000000        2.918536         2    ;  uncertainty k = 1.088662
        11        28        27        32     9        0.000000        1.055670         3    ;  uncertainty k = 0.331650
        11        28        27        32     9      180.000000        0.258373         4    ;  uncertainty k = 0.118845
        12        15        16        37     9        0.000000       10.913304         1    ;  uncertainty k = 0.956862
        12        15        16        37     9      180.000000        5.127628         2    ;  uncertainty k = 0.267019
        12        15        16        37     9        0.000000        1.358732         3    ;  uncertainty k = 0.090859
        12        15        16        37     9      180.000000        0.134861         4    ;  uncertainty k = 0.178501
        12        15        16        38     9        0.000000       10.913304         1    ;  uncertainty k = 0.956862
        12        15        16        38     9      180.000000        5.127628         2    ;  uncertainty k = 0.267019
        12        15        16        38     9        0.000000        1.358732         3    ;  uncertainty k = 0.090859
        12        15        16        38     9      180.000000        0.134861         4    ;  uncertainty k = 0.178501
        12        15        19        22     9        0.000000       -0.268807         1    ;  uncertainty k = 0.537764
        12        15        19        22     9      180.000000       18.867106         2    ;  uncertainty k = 0.296214
        12        15        19        22     9        0.000000        1.146549         3    ;  uncertainty k = 0.412557
        12        15        19        22     9      180.000000        1.367113         4    ;  uncertainty k = 0.303580
        12        24        23        22     9        0.000000       -3.305101         1    ;  uncertainty k = 2.099846
        12        24        23        22     9      180.000000        4.116595         2    ;  uncertainty k = 0.489027
        12        24        23        22     9        0.000000       -1.035825         3    ;  uncertainty k = 0.365253
        12        24        23        22     9      180.000000        0.322528         4    ;  uncertainty k = 0.205346
        12        24        23        26     9        0.000000       -0.555024         1    ;  uncertainty k = 1.849526
        12        24        23        26     9      180.000000        4.376088         2    ;  uncertainty k = 0.892578
        12        24        23        26     9        0.000000        0.176605         3    ;  uncertainty k = 0.404411
        12        24        23        26     9      180.000000        0.183148         4    ;  uncertainty k = 0.071194
        15        12        24        23     9        0.000000        1.040004         1    ;  uncertainty k = 1.436743
        15        12        24        23     9      180.000000        3.463322         2    ;  uncertainty k = 0.986808
        15        12        24        23     9        0.000000        0.625130         3    ;  uncertainty k = 0.392188
        15        12        24        23     9      180.000000        0.631449         4    ;  uncertainty k = 0.270249
        15        12        24        25     9        0.000000        1.162974         1    ;  uncertainty k = 0.790650
        15        12        24        25     9      180.000000       10.085491         2    ;  uncertainty k = 0.793592
        15        12        24        25     9        0.000000        1.204095         3    ;  uncertainty k = 0.389125
        15        12        24        25     9      180.000000       -0.311185         4    ;  uncertainty k = 0.413226
        15        19        22        23     9        0.000000        0.916262         1    ;  uncertainty k = 1.148724
        15        19        22        23     9      180.000000        5.305024         2    ;  uncertainty k = 1.151612
        15        19        22        23     9        0.000000        0.229571         3    ;  uncertainty k = 0.294904
        15        19        22        23     9      180.000000        0.694829         4    ;  uncertainty k = 0.500224
        15        19        22        28     9        0.000000        0.891610         1    ;  uncertainty k = 1.573104
        15        19        22        28     9      180.000000        7.401296         2    ;  uncertainty k = 0.716653
        15        19        22        28     9        0.000000        0.857693         3    ;  uncertainty k = 0.220325
        15        19        22        28     9      180.000000        0.684833         4    ;  uncertainty k = 0.395841
        16        15        12        24     9        0.000000        1.126602         1    ;  uncertainty k = 1.954657
        16        15        12        24     9      180.000000        7.149234         2    ;  uncertainty k = 0.879054
        16        15        12        24     9        0.000000        0.657025         3    ;  uncertainty k = 0.409760
        16        15        12        24     9      180.000000       -0.036384         4    ;  uncertainty k = 0.404661
        16        15        12        29     9        0.000000        2.591700         1    ;  uncertainty k = 1.685285
        16        15        12        29     9      180.000000        6.031004         2    ;  uncertainty k = 0.716200
        16        15        12        29     9        0.000000        1.607750         3    ;  uncertainty k = 0.605483
        16        15        12        29     9      180.000000       -0.195065         4    ;  uncertainty k = 0.317790
        16        15        19        22     9        0.000000       -0.178992         1    ;  uncertainty k = 1.348381
        16        15        19        22     9      180.000000       19.828037         2    ;  uncertainty k = 0.351951
        16        15        19        22     9        0.000000        2.489369         3    ;  uncertainty k = 0.534618
        16        15        19        22     9      180.000000        1.414194         4    ;  uncertainty k = 0.197066
        19        15        12        24     9        0.000000       -0.009515         1    ;  uncertainty k = 0.766179
        19        15        12        24     9      180.000000        7.635547         2    ;  uncertainty k = 1.114632
        19        15        12        24     9        0.000000       -0.129676         3    ;  uncertainty k = 0.324774
        19        15        12        24     9      180.000000        0.185735         4    ;  uncertainty k = 0.336209
        19        15        12        29     9        0.000000        7.755462         1    ;  uncertainty k = 2.065322
        19        15        12        29     9      180.000000        8.221551         2    ;  uncertainty k = 0.735357
        19        15        12        29     9        0.000000        1.350616         3    ;  uncertainty k = 0.116220
        19        15        12        29     9      180.000000        0.019502         4    ;  uncertainty k = 0.313485
        19        15        16        37     9        0.000000       16.566542         1    ;  uncertainty k = 0.542594
        19        15        16        37     9      180.000000        8.666513         2    ;  uncertainty k = 0.533828
        19        15        16        37     9        0.000000        0.694418         3    ;  uncertainty k = 0.215532
        19        15        16        37     9      180.000000       -0.094345         4    ;  uncertainty k = 0.141385
        19        15        16        38     9        0.000000       16.566542         1    ;  uncertainty k = 0.542594
        19        15        16        38     9      180.000000        8.666513         2    ;  uncertainty k = 0.533828
        19        15        16        38     9        0.000000        0.694418         3    ;  uncertainty k = 0.215532
        19        15        16        38     9      180.000000       -0.094345         4    ;  uncertainty k = 0.141385
        19        22        23        24     9        0.000000       -0.401060         1    ;  uncertainty k = 0.663476
        19        22        23        24     9      180.000000        8.841966         2    ;  uncertainty k = 0.444726
        19        22        23        24     9        0.000000        1.189022         3    ;  uncertainty k = 0.375409
        19        22        23        24     9      180.000000        0.938909         4    ;  uncertainty k = 0.248262
        19        22        23        26     9        0.000000        0.087762         1    ;  uncertainty k = 0.541345
        19        22        23        26     9      180.000000       14.508164         2    ;  uncertainty k = 0.517471
        19        22        23        26     9        0.000000       -0.839945         3    ;  uncertainty k = 0.867017
        19        22        23        26     9      180.000000        1.282488         4    ;  uncertainty k = 0.528797
        19        22        28        27     9        0.000000        1.387748         1    ;  uncertainty k = 2.783025
        19        22        28        27     9      180.000000        8.785748         2    ;  uncertainty k = 1.412230
        19        22        28        27     9        0.000000        0.620194         3    ;  uncertainty k = 0.766413
        19        22        28        27     9      180.000000        0.202186         4    ;  uncertainty k = 0.145704
        22        23        24        25     9        0.000000       -2.406094         1    ;  uncertainty k = 2.105262
        22        23        24        25     9      180.000000        5.107153         2    ;  uncertainty k = 0.925597
        22        23        24        25     9        0.000000        0.081702         3    ;  uncertainty k = 0.777788
        22        23        24        25     9      180.000000       -0.207896         4    ;  uncertainty k = 0.159376
        22        23        26        27     9        0.000000       -0.264444         1    ;  uncertainty k = 1.446994
        22        23        26        27     9      180.000000       14.505682         2    ;  uncertainty k = 0.910211
        22        23        26        27     9        0.000000       -8.551810         3    ;  uncertainty k = 0.680825
        22        23        26        27     9      180.000000        2.444240         4    ;  uncertainty k = 0.197509
        22        28        11        33     9        0.000000        4.345952         1    ;  uncertainty k = 0.892922
        22        28        11        33     9      180.000000        2.038634         2    ;  uncertainty k = 0.305953
        22        28        11        33     9        0.000000        0.183832         3    ;  uncertainty k = 0.259205
        22        28        11        33     9      180.000000        0.048041         4    ;  uncertainty k = 0.110620
        22        28        27        26     9        0.000000        0.031234         1    ;  uncertainty k = 0.441608
        22        28        27        26     9      180.000000       16.458734         2    ;  uncertainty k = 0.524385
        22        28        27        26     9        0.000000       -7.618077         3    ;  uncertainty k = 1.588344
        22        28        27        26     9      180.000000        0.868118         4    ;  uncertainty k = 0.567485
        22        28        27        32     9        0.000000        0.667644         1    ;  uncertainty k = 0.998227
        22        28        27        32     9      180.000000        7.606959         2    ;  uncertainty k = 0.659033
        22        28        27        32     9        0.000000        1.272575         3    ;  uncertainty k = 0.187635
        22        28        27        32     9      180.000000        0.136077         4    ;  uncertainty k = 0.096767
        23        22        28        27     9        0.000000       -0.347799         1    ;  uncertainty k = 1.363841
        23        22        28        27     9      180.000000       11.157587         2    ;  uncertainty k = 1.646038
        23        22        28        27     9        0.000000       -8.068849         3    ;  uncertainty k = 1.382093
        23        22        28        27     9      180.000000        1.486414         4    ;  uncertainty k = 0.580855
        23        24        12        29     9        0.000000        2.246893         1    ;  uncertainty k = 2.859280
        23        24        12        29     9      180.000000        4.107154         2    ;  uncertainty k = 0.957325
        23        24        12        29     9        0.000000        1.237936         3    ;  uncertainty k = 0.555195
        23        24        12        29     9      180.000000       -0.104847         4    ;  uncertainty k = 0.141787
        23        26        27        28     9        0.000000       -0.272512         1    ;  uncertainty k = 0.385341
        23        26        27        28     9      180.000000       25.958821         2    ;  uncertainty k = 0.240747
        23        26        27        28     9        0.000000       -7.164118         3    ;  uncertainty k = 0.915073
        23        26        27        28     9      180.000000        2.138677         4    ;  uncertainty k = 0.300025
        23        26        27        32     9        0.000000       -0.369548         1    ;  uncertainty k = 0.995765
        23        26        27        32     9      180.000000       18.978238         2    ;  uncertainty k = 0.477529
        23        26        27        32     9        0.000000        1.504207         3    ;  uncertainty k = 0.229743
        23        26        27        32     9      180.000000        1.072722         4    ;  uncertainty k = 0.394421
        24        23        22        28     9        0.000000       -0.512257         1    ;  uncertainty k = 0.854386
        24        23        22        28     9      180.000000        7.480757         2    ;  uncertainty k = 0.691040
        24        23        22        28     9        0.000000       -0.293627         3    ;  uncertainty k = 0.553903
        24        23        22        28     9      180.000000        1.244211         4    ;  uncertainty k = 0.442489
        24        23        26        27     9        0.000000        0.586459         1    ;  uncertainty k = 0.614819
        24        23        26        27     9      180.000000        9.742285         2    ;  uncertainty k = 0.706934
        24        23        26        27     9        0.000000        0.974434         3    ;  uncertainty k = 0.467910
        24        23        26        27     9      180.000000        1.131474         4    ;  uncertainty k = 0.421591
        25        24        12        29     9        0.000000        1.212960         1    ;  uncertainty k = 2.780902
        25        24        12        29     9      180.000000        7.620687         2    ;  uncertainty k = 1.153579
        25        24        12        29     9        0.000000        0.698440         3    ;  uncertainty k = 0.521097
        25        24        12        29     9      180.000000        0.037156         4    ;  uncertainty k = 0.175680
        25        24        23        26     9        0.000000       -2.622048         1    ;  uncertainty k = 1.292672
        25        24        23        26     9      180.000000        6.726436         2    ;  uncertainty k = 0.534352
        25        24        23        26     9        0.000000        0.712651         3    ;  uncertainty k = 0.352086
        25        24        23        26     9      180.000000       -0.257073         4    ;  uncertainty k = 0.140932
        26        23        22        28     9        0.000000       -0.185164         1    ;  uncertainty k = 0.435573
        26        23        22        28     9      180.000000       14.866990         2    ;  uncertainty k = 0.878174
        26        23        22        28     9        0.000000       -5.219913         3    ;  uncertainty k = 0.722308
        26        23        22        28     9      180.000000        1.673026         4    ;  uncertainty k = 0.684363
        27        28        11        33     9        0.000000       -5.420258         1    ;  uncertainty k = 0.886102
        27        28        11        33     9      180.000000        1.227211         2    ;  uncertainty k = 0.215925
        27        28        11        33     9        0.000000        0.614916         3    ;  uncertainty k = 0.237104
        27        28        11        33     9      180.000000        0.172054         4    ;  uncertainty k = 0.102266
        28        11         9        34     9        0.000000        1.577462         1    ;  uncertainty k = 0.480015
        28        11         9        34     9      180.000000       -0.439972         2    ;  uncertainty k = 0.261667
        28        11         9        34     9        0.000000        0.737973         3    ;  uncertainty k = 0.175895
        28        11         9        34     9      180.000000       -0.074939         4    ;  uncertainty k = 0.091746
        30        10         9        34     9        0.000000       14.358760         1    ;  uncertainty k = 0.061836
        30        10         9        34     9      180.000000       -0.648857         2    ;  uncertainty k = 0.269462
        30        10         9        34     9        0.000000        0.477890         3    ;  uncertainty k = 0.122074
        30        10         9        34     9      180.000000        0.299145         4    ;  uncertainty k = 0.093366
        31         8         7        35     9        0.000000       14.683963         1    ;  uncertainty k = 0.153847
        31         8         7        35     9      180.000000       -1.314193         2    ;  uncertainty k = 0.181296
        31         8         7        35     9        0.000000        0.450376         3    ;  uncertainty k = 0.142761
        31         8         7        35     9      180.000000        0.304701         4    ;  uncertainty k = 0.082959
        33        11         9        34     9        0.000000       -0.320906         1    ;  uncertainty k = 0.529280
        33        11         9        34     9      180.000000       -0.830612         2    ;  uncertainty k = 0.348707
        33        11         9        34     9        0.000000        0.465556         3    ;  uncertainty k = 0.239271
        33        11         9        34     9      180.000000       -0.005135         4    ;  uncertainty k = 0.078458
        34         9         7        35     9        0.000000        0.904511         1    ;  uncertainty k = 0.976749
        34         9         7        35     9      180.000000       -1.084750         2    ;  uncertainty k = 0.329869
        34         9         7        35     9        0.000000        0.594227         3    ;  uncertainty k = 0.218612
        34         9         7        35     9      180.000000        0.013412         4    ;  uncertainty k = 0.078786
        35         7         5        36     9        0.000000        0.401030         1    ;  uncertainty k = 0.627909
        35         7         5        36     9      180.000000       -0.907045         2    ;  uncertainty k = 0.194228
        35         7         5        36     9        0.000000        0.222960         3    ;  uncertainty k = 0.219437
        35         7         5        36     9      180.000000       -0.009689         4    ;  uncertainty k = 0.059939
        36         5         3        39     9        0.000000       -0.289279         1    ;  uncertainty k = 0.474621
        36         5         3        39     9      180.000000       -0.739069         2    ;  uncertainty k = 0.338885
        36         5         3        39     9        0.000000        0.209640         3    ;  uncertainty k = 0.063888
        36         5         3        39     9      180.000000        0.032748         4    ;  uncertainty k = 0.045826
        36         5         3        40     9        0.000000       -0.289279         1    ;  uncertainty k = 0.474621
        36         5         3        40     9      180.000000       -0.739069         2    ;  uncertainty k = 0.338885
        36         5         3        40     9        0.000000        0.209640         3    ;  uncertainty k = 0.063888
        36         5         3        40     9      180.000000        0.032748         4    ;  uncertainty k = 0.045826

[ dihedrals ] ; impropers
;       ai        aj        ak        al funct           phase               k        pn
        12        15        24        29     4      180.000000        0.789679         2    ;  uncertainty k = 0.990681
        12        24        29        15     4      180.000000        0.789679         2    ;  uncertainty k = 0.990681
        12        29        15        24     4      180.000000        0.789679         2    ;  uncertainty k = 0.990681
        15        12        16        19     4      180.000000       37.165270         2    ;  uncertainty k = 0.090089
        15        16        19        12     4      180.000000       37.165270         2    ;  uncertainty k = 0.090089
        15        19        12        16     4      180.000000       37.165270         2    ;  uncertainty k = 0.090089
        16        15        37        38     4      180.000000        0.349414         2    ;  uncertainty k = 0.781313
        16        37        38        15     4      180.000000        0.349414         2    ;  uncertainty k = 0.781313
        16        38        15        37     4      180.000000        0.349414         2    ;  uncertainty k = 0.781313
        22        19        23        28     4      180.000000        9.433442         2    ;  uncertainty k = 0.230376
        22        23        28        19     4      180.000000        9.433442         2    ;  uncertainty k = 0.230376
        22        28        19        23     4      180.000000        9.433442         2    ;  uncertainty k = 0.230376
        23        22        24        26     4      180.000000        0.320724         2    ;  uncertainty k = 0.465538
        23        24        26        22     4      180.000000        0.320724         2    ;  uncertainty k = 0.465538
        23        26        22        24     4      180.000000        0.320724         2    ;  uncertainty k = 0.465538
        24        12        23        25     4      180.000000       49.125775         2    ;  uncertainty k = 0.035634
        24        23        25        12     4      180.000000       49.125775         2    ;  uncertainty k = 0.035634
        24        25        12        23     4      180.000000       49.125775         2    ;  uncertainty k = 0.035634
        27        26        28        32     4      180.000000        3.971132         2    ;  uncertainty k = 0.132770
        27        28        32        26     4      180.000000        3.971132         2    ;  uncertainty k = 0.132770
        27        32        26        28     4      180.000000        3.971132         2    ;  uncertainty k = 0.132770

[ pairs ]
;       ai        aj funct
         1         5     1
         1        14     1
         1        18     1
         1        21     1
         1        39     1
         1        40     1
         2         4     1
         2        13     1
         2        17     1
         3         8     1
         3         9     1
         3        11     1
         3        13     1
         3        17     1
         3        20     1
         3        35     1
         4         6     1
         4         7     1
         4        36     1
         5        10     1
         5        28     1
         5        31     1
         5        33     1
         5        34     1
         6         8     1
         6        10     1
         6        22     1
         6        27     1
         6        34     1
         6        35     1
         6        39     1
         6        40     1
         7        28     1
         7        30     1
         7        33     1
         7        39     1
         7        40     1
         8        10     1
         8        11     1
         8        34     1
         8        36     1
         9        22     1
         9        27     1
         9        31     1
         9        36     1
        10        28     1
        10        33     1
        10        35     1
        11        19     1
        11        23     1
        11        26     1
        11        30     1
        11        32     1
        11        35     1
        11        36     1
        12        22     1
        12        26     1
        12        37     1
        12        38     1
        15        23     1
        15        25     1
        15        28     1
        16        22     1
        16        24     1
        16        29     1
        19        24     1
        19        26     1
        19        27     1
        19        29     1
        19        37     1
        19        38     1
        22        25     1
        22        32     1
        22        33     1
        23        29     1
        23        32     1
        24        27     1
        24        28     1
        25        26     1
        25        29     1
        27        33     1
        28        34     1
        30        34     1
        31        35     1
        33        34     1
        34        35     1
        35        36     1
        36        39     1
        36        40     1
