Generated by PDBParser (exclude clash < 1.000 A)
405
    1SOL     OW    1   2.207   0.613   3.161
    1SOL    HW1    2   2.143   0.565   3.222
    1SOL    HW2    3   2.250   0.544   3.101
    2SOL     OW    4   1.977   2.677   4.065
    2SOL    HW1    5   1.956   2.703   4.160
    2SOL    HW2    6   2.002   2.580   4.060
    3SOL     OW    7   0.502   3.414   3.608
    3SOL    HW1    8   0.442   3.333   3.611
    3SOL    HW2    9   0.460   3.483   3.549
    4SOL     OW   10   2.848   2.415   2.813
    4SOL    HW1   11   2.884   2.323   2.834
    4SOL    HW2   12   2.904   2.484   2.861
    5SOL     OW   13   0.545   2.407   3.611
    5SOL    HW1   14   0.532   2.398   3.511
    5SOL    HW2   15   0.497   2.331   3.656
    6SOL     OW   16   2.960   3.045   3.049
    6SOL    HW1   17   2.997   2.951   3.052
    6SOL    HW2   18   2.872   3.043   3.001
    7SOL     OW   19   2.641   1.882   2.165
    7SOL    HW1   20   2.685   1.972   2.170
    7SOL    HW2   21   2.609   1.858   2.257
    8SOL     OW   22   1.706   1.312   2.398
    8SOL    HW1   23   1.750   1.325   2.488
    8SOL    HW2   24   1.749   1.373   2.332
    9SOL     OW   25   2.482   1.292   1.773
    9SOL    HW1   26   2.420   1.234   1.828
    9SOL    HW2   27   2.538   1.233   1.713
   10SOL     OW   28   0.517   2.311   3.347
   10SOL    HW1   29   0.544   2.221   3.384
   10SOL    HW2   30   0.579   2.334   3.272
   11SOL     OW   31   0.684   2.293   3.104
   11SOL    HW1   32   0.598   2.258   3.066
   11SOL    HW2   33   0.705   2.381   3.061
   12SOL     OW   34   3.470   1.854   3.077
   12SOL    HW1   35   3.398   1.816   3.018
   12SOL    HW2   36   3.426   1.912   3.148
   13SOL     OW   37   3.565   1.966   2.827
   13SOL    HW1   38   3.517   1.961   2.915
   13SOL    HW2   39   3.577   2.064   2.803
   14SOL     OW   40   2.991   1.326   3.071
   14SOL    HW1   41   2.950   1.418   3.078
   14SOL    HW2   42   3.028   1.313   2.978
   15SOL     OW   43   2.120   0.629   4.930
   15SOL    HW1   44   2.126   0.544   4.876
   15SOL    HW2   45   2.049   0.618   5.001
   16SOL     OW   46   0.571   1.938   3.191
   16SOL    HW1   47   0.608   1.984   3.273
   16SOL    HW2   48   0.472   1.956   3.187
   17SOL     OW   49   0.745   3.540   3.766
   17SOL    HW1   50   0.662   3.511   3.715
   17SOL    HW2   51   0.726   3.629   3.808
   18SOL     OW   52   3.671   0.667   3.266
   18SOL    HW1   53   3.699   0.744   3.325
   18SOL    HW2   54   3.751   0.632   3.216
   19SOL     OW   55   3.843   0.508   3.101
   19SOL    HW1   56   3.921   0.455   3.136
   19SOL    HW2   57   3.840   0.498   3.001
   20SOL     OW   58   1.689   3.091   4.198
   20SOL    HW1   59   1.607   3.150   4.204
   20SOL    HW2   60   1.762   3.141   4.151
   21SOL     OW   61   1.654   3.054   2.897
   21SOL    HW1   62   1.718   3.105   2.955
   21SOL    HW2   63   1.703   3.017   2.817
   22SOL     OW   64   1.160   2.534   2.925
   22SOL    HW1   65   1.134   2.439   2.903
   22SOL    HW2   66   1.111   2.596   2.864
   23SOL     OW   67   0.395   2.197   3.727
   23SOL    HW1   68   0.327   2.244   3.785
   23SOL    HW2   69   0.350   2.120   3.682
   24SOL     OW   70   1.744   1.013   2.390
   24SOL    HW1   71   1.729   1.113   2.384
   24SOL    HW2   72   1.843   0.995   2.395
   25SOL     OW   73   1.490   3.438   3.939
   25SOL    HW1   74   1.423   3.378   3.895
   25SOL    HW2   75   1.572   3.444   3.882
   26SOL     OW   76   1.586   0.999   3.314
   26SOL    HW1   77   1.661   1.042   3.365
   26SOL    HW2   78   1.598   1.020   3.216
   27SOL     OW   79   3.804   2.121   4.338
   27SOL    HW1   80   3.796   2.023   4.316
   27SOL    HW2   81   3.887   2.158   4.295
   28SOL     OW   82   3.830  -0.275   3.164
   28SOL    HW1   83   3.851  -0.223   3.081
   28SOL    HW2   84   3.821  -0.208   3.241
   29SOL     OW   85   4.158   0.674   2.450
   29SOL    HW1   86   4.115   0.586   2.472
   29SOL    HW2   87   4.217   0.701   2.527
   30SOL     OW   88   1.503   0.828   4.123
   30SOL    HW1   89   1.439   0.867   4.056
   30SOL    HW2   90   1.581   0.786   4.074
   31SOL     OW   91   2.177   3.393   3.507
   31SOL    HW1   92   2.125   3.316   3.546
   31SOL    HW2   93   2.267   3.360   3.477
   32SOL     OW   94   2.815   2.905   3.932
   32SOL    HW1   95   2.809   2.921   3.833
   32SOL    HW2   96   2.827   2.806   3.948
   33SOL     OW   97   3.970   1.927   3.639
   33SOL    HW1   98   4.004   1.863   3.709
   33SOL    HW2   99   4.030   1.922   3.558
   34SOL     OW  100   4.011   0.000   3.328
   34SOL    HW1  101   4.016   0.102   3.323
   34SOL    HW2  102   3.936  -0.025   3.392
   35SOL     OW  103   3.126   0.496   2.911
   35SOL    HW1  104   3.100   0.526   2.818
   35SOL    HW2  105   3.145   0.398   2.908
   36SOL     OW  106   3.352   2.222   2.644
   36SOL    HW1  107   3.313   2.129   2.641
   36SOL    HW2  108   3.279   2.287   2.668
   37SOL     OW  109   3.092   0.050   4.735
   37SOL    HW1  110   3.018  -0.011   4.703
   37SOL    HW2  111   3.090   0.055   4.835
   38SOL     OW  112   3.615   0.607   1.908
   38SOL    HW1  113   3.550   0.530   1.919
   38SOL    HW2  114   3.652   0.602   1.815
   39SOL     OW  115   1.800   2.460   2.567
   39SOL    HW1  116   1.731   2.391   2.544
   39SOL    HW2  117   1.891   2.419   2.555
   40SOL     OW  118   1.937   2.982   4.075
   40SOL    HW1  119   1.895   2.937   4.154
   40SOL    HW2  120   1.918   2.927   3.993
   41SOL     OW  121   2.623   0.905   5.013
   41SOL    HW1  122   2.626   0.949   5.103
   41SOL    HW2  123   2.717   0.899   4.977
   42SOL     OW  124   1.657   1.145   4.728
   42SOL    HW1  125   1.752   1.157   4.759
   42SOL    HW2  126   1.597   1.141   4.809
   43SOL     OW  127   3.321   0.043   4.588
   43SOL    HW1  128   3.364  -0.046   4.610
   43SOL    HW2  129   3.243   0.057   4.651
   44SOL     OW  130   3.509   1.061   1.361
   44SOL    HW1  131   3.583   1.048   1.295
   44SOL    HW2  132   3.452   0.978   1.362
   45SOL     OW  133   1.734   0.623   3.391
   45SOL    HW1  134   1.734   0.543   3.331
   45SOL    HW2  135   1.797   0.692   3.353
   46SOL     OW  136   2.950   1.842   5.112
   46SOL    HW1  137   3.028   1.841   5.174
   46SOL    HW2  138   2.865   1.846   5.166
   47SOL     OW  139   2.305   0.870   4.983
   47SOL    HW1  140   2.269   0.776   4.988
   47SOL    HW2  141   2.404   0.869   5.004
   48SOL     OW  142   2.710   1.368   1.548
   48SOL    HW1  143   2.705   1.271   1.580
   48SOL    HW2  144   2.671   1.370   1.455
   49SOL     OW  145   0.281   3.009   3.572
   49SOL    HW1  146   0.358   2.955   3.607
   49SOL    HW2  147   0.215   2.946   3.530
   50SOL     OW  148   4.050   1.870   1.860
   50SOL    HW1  149   4.036   1.847   1.957
   50SOL    HW2  150   4.149   1.879   1.843
   51SOL     OW  151   2.417   0.289   2.205
   51SOL    HW1  152   2.354   0.227   2.157
   51SOL    HW2  153   2.498   0.237   2.233
   52SOL     OW  154   1.939   3.344   3.847
   52SOL    HW1  155   1.988   3.421   3.887
   52SOL    HW2  156   1.988   3.311   3.766
   53SOL     OW  157   2.817   0.460   2.153
   53SOL    HW1  158   2.741   0.458   2.087
   53SOL    HW2  159   2.885   0.391   2.125
   54SOL     OW  160   2.065   2.868   4.894
   54SOL    HW1  161   1.965   2.880   4.881
   54SOL    HW2  162   2.083   2.870   4.993
   55SOL     OW  163   2.841   2.317   4.712
   55SOL    HW1  164   2.871   2.400   4.665
   55SOL    HW2  165   2.920   2.273   4.758
   56SOL     OW  166   4.000   1.749   3.873
   56SOL    HW1  167   3.939   1.669   3.874
   56SOL    HW2  168   3.990   1.799   3.959
   57SOL     OW  169   2.681   1.837   5.234
   57SOL    HW1  170   2.615   1.838   5.158
   57SOL    HW2  171   2.632   1.824   5.321
   58SOL     OW  172   1.998   0.674   3.574
   58SOL    HW1  173   2.023   0.727   3.657
   58SOL    HW2  174   1.972   0.738   3.501
   59SOL     OW  175   3.436   2.859   3.413
   59SOL    HW1  176   3.471   2.850   3.508
   59SOL    HW2  177   3.505   2.905   3.358
   60SOL     OW  178   3.780   1.846   4.295
   60SOL    HW1  179   3.735   1.789   4.226
   60SOL    HW2  180   3.808   1.787   4.372
   61SOL     OW  181   2.216   2.822   4.275
   61SOL    HW1  182   2.161   2.756   4.222
   61SOL    HW2  183   2.191   2.914   4.246
   62SOL     OW  184   0.237   2.352   3.289
   62SOL    HW1  185   0.332   2.359   3.322
   62SOL    HW2  186   0.189   2.438   3.308
   63SOL     OW  187   2.537   2.598   4.617
   63SOL    HW1  188   2.635   2.583   4.596
   63SOL    HW2  189   2.495   2.508   4.635
   64SOL     OW  190   3.228  -0.022   3.139
   64SOL    HW1  191   3.290  -0.039   3.216
   64SOL    HW2  192   3.281  -0.022   3.054
   65SOL     OW  193   2.882  -0.090   4.621
   65SOL    HW1  194   2.900  -0.177   4.574
   65SOL    HW2  195   2.794  -0.097   4.669
   66SOL     OW  196   2.235   0.630   3.480
   66SOL    HW1  197   2.143   0.653   3.515
   66SOL    HW2  198   2.239   0.650   3.382
   67SOL     OW  199   0.801   3.341   4.194
   67SOL    HW1  200   0.801   3.294   4.105
   67SOL    HW2  201   0.740   3.419   4.190
   68SOL     OW  202   3.612   2.244   2.756
   68SOL    HW1  203   3.582   2.256   2.852
   68SOL    HW2  204   3.531   2.251   2.697
   69SOL     OW  205   3.795   1.029   3.234
   69SOL    HW1  206   3.882   1.020   3.284
   69SOL    HW2  207   3.743   1.107   3.273
   70SOL     OW  208   2.993   1.017   4.973
   70SOL    HW1  209   3.029   1.013   5.066
   70SOL    HW2  210   3.067   1.048   4.913
   71SOL     OW  211   2.963  -0.063   3.644
   71SOL    HW1  212   3.063  -0.057   3.638
   71SOL    HW2  213   2.939  -0.133   3.711
   72SOL     OW  214   1.074   1.630   4.426
   72SOL    HW1  215   1.041   1.662   4.517
   72SOL    HW2  216   1.130   1.704   4.385
   73SOL     OW  217   2.111  -0.050   4.343
   73SOL    HW1  218   2.186  -0.041   4.276
   73SOL    HW2  219   2.100  -0.147   4.365
   74SOL     OW  220   2.616   2.335   4.909
   74SOL    HW1  221   2.652   2.310   4.819
   74SOL    HW2  222   2.693   2.364   4.967
   75SOL     OW  223   1.573   1.508   4.606
   75SOL    HW1  224   1.487   1.489   4.655
   75SOL    HW2  225   1.557   1.493   4.508
   76SOL     OW  226   1.177   3.229   4.232
   76SOL    HW1  227   1.124   3.148   4.200
   76SOL    HW2  228   1.118   3.310   4.225
   77SOL     OW  229   1.322   2.921   5.002
   77SOL    HW1  230   1.322   2.925   5.102
   77SOL    HW2  231   1.325   2.824   4.975
   78SOL     OW  232   3.869   1.416   4.235
   78SOL    HW1  233   3.879   1.465   4.322
   78SOL    HW2  234   3.773   1.420   4.207
   79SOL     OW  235   2.068   0.276   2.844
   79SOL    HW1  236   2.017   0.324   2.917
   79SOL    HW2  237   2.089   0.344   2.772
   80SOL     OW  238   1.451   2.659   2.849
   80SOL    HW1  239   1.440   2.757   2.872
   80SOL    HW2  240   1.377   2.608   2.893
   81SOL     OW  241   1.483   2.734   5.256
   81SOL    HW1  242   1.545   2.755   5.332
   81SOL    HW2  243   1.441   2.645   5.271
   82SOL     OW  244   2.716  -0.130   4.051
   82SOL    HW1  245   2.814  -0.130   4.027
   82SOL    HW2  246   2.665  -0.078   3.980
   83SOL     OW  247   2.862   0.597   1.542
   83SOL    HW1  248   2.830   0.608   1.448
   83SOL    HW2  249   2.841   0.505   1.574
   84SOL     OW  250   3.027   2.180   4.846
   84SOL    HW1  251   2.995   2.123   4.921
   84SOL    HW2  252   3.126   2.158   4.830
   85SOL     OW  253   0.975   1.395   4.315
   85SOL    HW1  254   1.024   1.478   4.348
   85SOL    HW2  255   0.886   1.392   4.361
   86SOL     OW  256   1.216   1.833   4.337
   86SOL    HW1  257   1.220   1.905   4.267
   86SOL    HW2  258   1.212   1.876   4.428
   87SOL     OW  259   2.808   0.367   1.760
   87SOL    HW1  260   2.892   0.373   1.816
   87SOL    HW2  261   2.729   0.375   1.820
   88SOL     OW  262   2.807   2.758   2.723
   88SOL    HW1  263   2.883   2.747   2.789
   88SOL    HW2  264   2.772   2.667   2.702
   89SOL     OW  265   1.388   2.427   2.594
   89SOL    HW1  266   1.468   2.390   2.643
   89SOL    HW2  267   1.387   2.526   2.606
   90SOL     OW  268   3.343   1.065   4.569
   90SOL    HW1  269   3.283   1.143   4.549
   90SOL    HW2  270   3.362   1.063   4.667
   91SOL     OW  271   3.937  -0.185   3.729
   91SOL    HW1  272   3.904  -0.117   3.660
   91SOL    HW2  273   4.030  -0.210   3.705
   92SOL     OW  274   1.291   0.777   2.943
   92SOL    HW1  275   1.387   0.746   2.958
   92SOL    HW2  276   1.230   0.698   2.955
   93SOL     OW  277   1.803   0.640   5.192
   93SOL    HW1  278   1.746   0.648   5.108
   93SOL    HW2  279   1.743   0.644   5.272
   94SOL     OW  280   3.402  -0.219   4.666
   94SOL    HW1  281   3.399  -0.279   4.747
   94SOL    HW2  282   3.485  -0.241   4.613
   95SOL     OW  283   2.923   1.509   1.659
   95SOL    HW1  284   2.852   1.449   1.618
   95SOL    HW2  285   2.944   1.582   1.593
   96SOL     OW  286   1.630   2.429   2.826
   96SOL    HW1  287   1.587   2.518   2.847
   96SOL    HW2  288   1.700   2.442   2.756
   97SOL     OW  289   1.840   1.491   4.855
   97SOL    HW1  290   1.837   1.391   4.847
   97SOL    HW2  291   1.918   1.516   4.913
   98SOL     OW  292   1.711   0.378   2.733
   98SOL    HW1  293   1.704   0.443   2.810
   98SOL    HW2  294   1.789   0.318   2.748
   99SOL     OW  295   3.544   1.766   4.633
   99SOL    HW1  296   3.531   1.830   4.710
   99SOL    HW2  297   3.471   1.698   4.637
  100SOL     OW  298   0.044   2.791   3.930
  100SOL    HW1  299   0.074   2.718   3.870
  100SOL    HW2  300   0.091   2.780   4.018
  101SOL     OW  301   4.054   2.200   2.376
  101SOL    HW1  302   4.090   2.141   2.303
  101SOL    HW2  303   4.030   2.289   2.336
  102SOL     OW  304   1.943   0.441   3.014
  102SOL    HW1  305   1.857   0.490   2.988
  102SOL    HW2  306   1.969   0.469   3.106
  103SOL     OW  307   0.413   2.677   4.602
  103SOL    HW1  308   0.399   2.603   4.668
  103SOL    HW2  309   0.456   2.755   4.649
  104SOL     OW  310   3.587  -0.303   3.301
  104SOL    HW1  311   3.646  -0.225   3.326
  104SOL    HW2  312   3.635  -0.353   3.227
  105SOL     OW  313   1.318   0.528   2.597
  105SOL    HW1  314   1.276   0.447   2.557
  105SOL    HW2  315   1.401   0.500   2.646
  106SOL     OW  316   3.375   0.460   1.652
  106SOL    HW1  317   3.412   0.433   1.743
  106SOL    HW2  318   3.320   0.383   1.618
  107SOL     OW  319   1.788   0.540   3.697
  107SOL    HW1  320   1.817   0.557   3.792
  107SOL    HW2  321   1.855   0.582   3.635
  108SOL     OW  322   1.091   1.209   4.138
  108SOL    HW1  323   1.058   1.268   4.214
  108SOL    HW2  324   1.019   1.206   4.069
  109SOL     OW  325   3.858   1.544   4.517
  109SOL    HW1  326   3.908   1.501   4.592
  109SOL    HW2  327   3.783   1.599   4.556
  110SOL     OW  328  -0.246   2.105   4.043
  110SOL    HW1  329  -0.167   2.043   4.045
  110SOL    HW2  330  -0.293   2.095   3.955
  111SOL     OW  331   2.600   0.104   3.107
  111SOL    HW1  332   2.584   0.122   3.204
  111SOL    HW2  333   2.563   0.014   3.083
  112SOL     OW  334   4.267   0.482   1.976
  112SOL    HW1  335   4.193   0.548   1.993
  112SOL    HW2  336   4.337   0.525   1.918
  113SOL     OW  337   4.139   1.203   4.071
  113SOL    HW1  338   4.075   1.230   4.143
  113SOL    HW2  339   4.200   1.281   4.052
  114SOL     OW  340   5.095   2.066   2.818
  114SOL    HW1  341   5.048   2.013   2.747
  114SOL    HW2  342   5.194   2.067   2.800
  115SOL     OW  343   3.729  -0.385   3.624
  115SOL    HW1  344   3.790  -0.317   3.666
  115SOL    HW2  345   3.723  -0.367   3.526
  116SOL     OW  346   0.891   3.030   4.394
  116SOL    HW1  347   0.931   3.026   4.301
  116SOL    HW2  348   0.803   2.983   4.393
  117SOL     OW  349   4.726   1.429   2.179
  117SOL    HW1  350   4.803   1.454   2.239
  117SOL    HW2  351   4.745   1.340   2.138
  118SOL     OW  352   2.035   0.186   2.177
  118SOL    HW1  353   2.022   0.261   2.243
  118SOL    HW2  354   2.020   0.099   2.224
  119SOL     OW  355   3.405  -0.064   3.352
  119SOL    HW1  356   3.455  -0.151   3.344
  119SOL    HW2  357   3.472   0.011   3.359
  120SOL     OW  358   3.976   2.336   3.198
  120SOL    HW1  359   3.880   2.345   3.228
  120SOL    HW2  360   4.030   2.407   3.243
  121SOL     OW  361   4.115   0.819   3.266
  121SOL    HW1  362   4.141   0.723   3.252
  121SOL    HW2  363   4.148   0.875   3.189
  122SOL     OW  364   3.496   2.411   4.911
  122SOL    HW1  365   3.554   2.417   4.830
  122SOL    HW2  366   3.448   2.323   4.910
  123SOL     OW  367   4.157   1.848   3.422
  123SOL    HW1  368   4.143   1.750   3.444
  123SOL    HW2  369   4.243   1.879   3.463
  124SOL     OW  370   0.606   2.853   4.201
  124SOL    HW1  371   0.703   2.865   4.172
  124SOL    HW2  372   0.549   2.857   4.119
  125SOL     OW  373   4.328   1.435   1.594
  125SOL    HW1  374   4.407   1.494   1.615
  125SOL    HW2  375   4.336   1.403   1.499
  126SOL     OW  376   4.181   1.031   2.742
  126SOL    HW1  377   4.237   0.955   2.777
  126SOL    HW2  378   4.222   1.118   2.775
  127SOL     OW  379   4.524   0.999   2.804
  127SOL    HW1  380   4.452   1.069   2.812
  127SOL    HW2  381   4.574   1.014   2.718
  128SOL     OW  382   2.304   3.028   4.721
  128SOL    HW1  383   2.361   3.090   4.774
  128SOL    HW2  384   2.219   3.011   4.772
  129SOL     OW  385   1.455   3.247   4.185
  129SOL    HW1  386   1.357   3.239   4.207
  129SOL    HW2  387   1.468   3.324   4.122
  130SOL     OW  388   1.393   0.556   4.578
  130SOL    HW1  389   1.445   0.589   4.659
  130SOL    HW2  390   1.309   0.512   4.611
  131SOL     OW  391   3.030  -0.365   3.271
  131SOL    HW1  392   3.107  -0.375   3.334
  131SOL    HW2  393   3.065  -0.360   3.177
  132SOL     OW  394   4.743   0.972   4.014
  132SOL    HW1  395   4.805   1.016   4.078
  132SOL    HW2  396   4.796   0.935   3.937
  133SOL     OW  397   1.208   0.632   3.321
  133SOL    HW1  398   1.149   0.556   3.292
  133SOL    HW2  399   1.199   0.707   3.255
  134SOL     OW  400   3.833   0.469   2.812
  134SOL    HW1  401   3.736   0.456   2.788
  134SOL    HW2  402   3.878   0.379   2.807
  135SOL     OW  403  -0.103   2.300   3.437
  135SOL    HW1  404  -0.104   2.400   3.436
  135SOL    HW2  405  -0.020   2.269   3.390
    6.3322    6.3322    6.3322
