; ITP file created by ByteFF-ML, 2026-02-21 08:19:37.647257

[ atomtypes ]
;name           bonded.type        at.num        mass        charge   ptype           sigma         epsilon
 o0bf                                   8      0.0000       0.00000       A     3.04351e-01     6.11346e-01
 c1bf                                   6      0.0000       0.00000       A     3.31270e-01     4.08495e-01
 o2bf                                   8      0.0000       0.00000       A     3.04351e-01     6.11346e-01
 c3bf                                   6      0.0000       0.00000       A     3.31580e-01     4.10578e-01
 c4bf                                   6      0.0000       0.00000       A     3.31606e-01     4.10911e-01
 c5bf                                   6      0.0000       0.00000       A     3.31468e-01     4.12919e-01
 c6bf                                   6      0.0000       0.00000       A     3.31479e-01     4.12975e-01
 c7bf                                   6      0.0000       0.00000       A     3.31507e-01     4.12945e-01
 c8bf                                   6      0.0000       0.00000       A     3.31448e-01     4.12303e-01
 c9bf                                   6      0.0000       0.00000       A     3.31417e-01     4.11727e-01
 c10bf                                  6      0.0000       0.00000       A     3.31209e-01     4.12534e-01
 c11bf                                  6      0.0000       0.00000       A     3.39740e-01     4.50819e-01
 c12bf                                  6      0.0000       0.00000       A     3.39825e-01     4.50762e-01
 c13bf                                  6      0.0000       0.00000       A     3.39732e-01     4.51004e-01
 o14bf                                  8      0.0000       0.00000       A     3.15868e-01     3.04538e-01
 c15bf                                  6      0.0000       0.00000       A     3.31247e-01     4.13237e-01
 c16bf                                  6      0.0000       0.00000       A     3.31456e-01     4.14320e-01
 c17bf                                  6      0.0000       0.00000       A     3.31517e-01     4.13508e-01
 c18bf                                  6      0.0000       0.00000       A     3.31600e-01     4.13008e-01
 c19bf                                  6      0.0000       0.00000       A     3.31488e-01     4.12914e-01
 c20bf                                  6      0.0000       0.00000       A     3.31519e-01     4.12713e-01
 h21bf                                  1      0.0000       0.00000       A     2.62509e-01     6.71594e-02
 h22bf                                  1      0.0000       0.00000       A     2.62453e-01     6.74531e-02
 h23bf                                  1      0.0000       0.00000       A     2.62437e-01     6.74722e-02
 h24bf                                  1      0.0000       0.00000       A     2.62476e-01     6.69056e-02
 h25bf                                  1      0.0000       0.00000       A     2.59715e-01     8.74790e-02
 h26bf                                  1      0.0000       0.00000       A     2.59715e-01     8.74790e-02
 h27bf                                  1      0.0000       0.00000       A     2.60066e-01     8.68629e-02
 h28bf                                  1      0.0000       0.00000       A     2.60066e-01     8.68629e-02
 h29bf                                  1      0.0000       0.00000       A     2.42089e-01     8.76721e-02
 h30bf                                  1      0.0000       0.00000       A     2.42089e-01     8.76721e-02
 h31bf                                  1      0.0000       0.00000       A     2.62474e-01     6.69136e-02
 n32bf                                  7      0.0000       0.00000       A     3.20469e-01     8.58390e-01
 h33bf                                  1      0.0000       0.00000       A     1.10720e-01     4.23341e-02
 h34bf                                  1      0.0000       0.00000       A     2.62489e-01     6.72695e-02
 h35bf                                  1      0.0000       0.00000       A     2.62458e-01     6.72983e-02
 h36bf                                  1      0.0000       0.00000       A     2.62594e-01     6.76749e-02
 f37bf                                  9      0.0000       0.00000       A     3.03607e-01     3.48585e-01
 c38bf                                  6      0.0000       0.00000       A     3.39734e-01     4.50936e-01
 f39bf                                  9      0.0000       0.00000       A     3.03607e-01     3.48585e-01
 f40bf                                  9      0.0000       0.00000       A     3.03608e-01     3.48585e-01

[ moleculetype ]
;name             nrexcl
 29                    3

[ atoms ]
;       nr            type      resi   res      atom      cgnr      charge          mass ; qtot
         1            o0bf         1   UNL        o0         1    -0.72437       15.9990 ; qtot   -0.724
         2            c1bf         1   UNL        c1         2     0.71536       12.0110 ; qtot   -0.009
         3            o2bf         1   UNL        o2         3    -0.72437       15.9990 ; qtot   -0.733
         4            c3bf         1   UNL        c3         4    -0.12874       12.0110 ; qtot   -0.862
         5            c4bf         1   UNL        c4         5    -0.06274       12.0110 ; qtot   -0.925
         6            c5bf         1   UNL        c5         6    -0.14509       12.0110 ; qtot   -1.070
         7            c6bf         1   UNL        c6         7    -0.09062       12.0110 ; qtot   -1.161
         8            c7bf         1   UNL        c7         8    -0.14599       12.0110 ; qtot   -1.307
         9            c8bf         1   UNL        c8         9    -0.06647       12.0110 ; qtot   -1.373
        10            c9bf         1   UNL        c9        10    -0.10957       12.0110 ; qtot   -1.483
        11           c10bf         1   UNL       c10        11    -0.19497       12.0110 ; qtot   -1.678
        12           c11bf         1   UNL       c11        12    -0.00891       12.0110 ; qtot   -1.686
        13           c12bf         1   UNL       c12        13    -0.08957       12.0110 ; qtot   -1.776
        14           c13bf         1   UNL       c13        14     0.16714       12.0110 ; qtot   -1.609
        15           o14bf         1   UNL       o14        15    -0.34712       15.9990 ; qtot   -1.956
        16           c15bf         1   UNL       c15        16     0.19330       12.0110 ; qtot   -1.763
        17           c16bf         1   UNL       c16        17    -0.22388       12.0110 ; qtot   -1.987
        18           c17bf         1   UNL       c17        18    -0.02971       12.0110 ; qtot   -2.016
        19           c18bf         1   UNL       c18        19    -0.15066       12.0110 ; qtot   -2.167
        20           c19bf         1   UNL       c19        20    -0.05257       12.0110 ; qtot   -2.220
        21           c20bf         1   UNL       c20        21    -0.19894       12.0110 ; qtot   -2.418
        22           h21bf         1   UNL       h21        22     0.11536        1.0080 ; qtot   -2.303
        23           h22bf         1   UNL       h22        23     0.11184        1.0080 ; qtot   -2.191
        24           h23bf         1   UNL       h23        24     0.11224        1.0080 ; qtot   -2.079
        25           h24bf         1   UNL       h24        25     0.11869        1.0080 ; qtot   -1.960
        26           h25bf         1   UNL       h25        26     0.04567        1.0080 ; qtot   -1.915
        27           h26bf         1   UNL       h26        27     0.04567        1.0080 ; qtot   -1.869
        28           h27bf         1   UNL       h27        28     0.05519        1.0080 ; qtot   -1.814
        29           h28bf         1   UNL       h28        29     0.05519        1.0080 ; qtot   -1.759
        30           h29bf         1   UNL       h29        30     0.04404        1.0080 ; qtot   -1.715
        31           h30bf         1   UNL       h30        31     0.04404        1.0080 ; qtot   -1.671
        32           h31bf         1   UNL       h31        32     0.12620        1.0080 ; qtot   -1.544
        33           n32bf         1   UNL       n32        33    -0.23318       14.0070 ; qtot   -1.778
        34           h33bf         1   UNL       h33        34     0.36278        1.0080 ; qtot   -1.415
        35           h34bf         1   UNL       h34        35     0.11458        1.0080 ; qtot   -1.300
        36           h35bf         1   UNL       h35        36     0.12685        1.0080 ; qtot   -1.173
        37           h36bf         1   UNL       h36        37     0.13491        1.0080 ; qtot   -1.038
        38           f37bf         1   UNL       f37        38    -0.10513       18.9980 ; qtot   -1.144
        39           c38bf         1   UNL       c38        39     0.35381       12.0110 ; qtot   -0.790
        40           f39bf         1   UNL       f39        40    -0.10513       18.9980 ; qtot   -0.895
        41           f40bf         1   UNL       f40        41    -0.10513       18.9980 ; qtot   -1.000

[ bonds ]
;       ai        aj funct               r               k
         1         2     1        0.126246   477087.239648
         2         3     1        0.126246   477087.239648
         2         4     1        0.153400   125645.617041
         4        11     1        0.138965   327323.865771
         4        33     1        0.138505   264560.367188
         5         6     1        0.140170   306119.305762
         5        10     1        0.143187   232474.419336
         5        33     1        0.137011   296448.938721
         6         7     1        0.139356   324716.603516
         6        22     1        0.108648   317710.778467
         7         8     1        0.141322   279766.924170
         7        23     1        0.108613   319631.935205
         8         9     1        0.139211   326075.535254
         8        24     1        0.108624   318958.700391
         9        10     1        0.140988   296604.944922
         9        25     1        0.108582   319566.943262
        10        11     1        0.144259   230612.483154
        11        12     1        0.150445   207387.031226
        12        13     1        0.154309   174651.010718
        12        26     1        0.109425   295733.235693
        12        27     1        0.109425   295733.235693
        13        14     1        0.152498   192532.298999
        13        28     1        0.109516   297606.178369
        13        29     1        0.109516   297606.178369
        14        15     1        0.143737   181214.801172
        14        30     1        0.109668   290156.365137
        14        31     1        0.109668   290156.365137
        15        16     1        0.136002   278073.532910
        16        17     1        0.141150   263313.287988
        16        21     1        0.140282   286058.578418
        17        18     1        0.139691   308741.813672
        17        39     1        0.150765   186766.951807
        18        19     1        0.139668   314364.753174
        18        37     1        0.108487   323214.255371
        19        20     1        0.139764   309474.141357
        19        36     1        0.108516   323660.337598
        20        21     1        0.139872   314075.060205
        20        35     1        0.108625   319370.792725
        21        32     1        0.108320   325215.445410
        33        34     1        0.101568   409831.840137
        38        39     1        0.135856   221180.888086
        39        40     1        0.135856   221180.888086
        39        41     1        0.135856   221180.888086

[ angles ]
;       ai        aj        ak funct           theta             cth
         1         2         3     1      129.890915      711.082981
         1         2         4     1      114.963943      332.710740
         2         4        11     1      135.663651      350.727714
         2         4        33     1      115.605225      381.001510
         3         2         4     1      114.963943      332.710740
         4        11        10     1      106.575829      405.326820
         4        11        12     1      127.327011      428.528720
         4        33         5     1      110.661705      412.354440
         4        33        34     1      117.847610      382.259468
         5         6         7     1      117.701210      791.646496
         5         6        22     1      121.289551      440.177345
         5        10         9     1      118.560951      742.089118
         5        10        11     1      107.585289      271.643978
         5        33        34     1      131.290939      307.571563
         6         5        10     1      122.120865      633.320696
         6         5        33     1      131.222183      478.691487
         6         7         8     1      121.218521      629.331416
         6         7        23     1      119.387344      434.126071
         7         6        22     1      121.092140      440.849769
         7         8         9     1      121.054970      638.915493
         7         8        24     1      119.239258      447.408528
         8         7        23     1      119.397072      440.561614
         8         9        10     1      119.297623      725.558372
         8         9        25     1      120.503197      431.554931
         9         8        24     1      119.770569      439.261009
         9        10        11     1      134.133453      413.767632
        10         5        33     1      106.946518      176.571539
        10         9        25     1      120.298561      433.490133
        10        11        12     1      125.788147      461.612620
        11         4        33     1      108.726097      284.224995
        11        12        13     1      112.795059      547.868165
        11        12        26     1      109.126892      490.517563
        11        12        27     1      109.126892      490.517563
        12        13        14     1      112.606834      592.230976
        12        13        28     1      109.492508      484.680227
        12        13        29     1      109.492508      484.680227
        13        12        26     1      108.938232      484.895664
        13        12        27     1      108.938232      484.895664
        13        14        15     1      109.333542      621.897563
        13        14        30     1      110.730484      494.836144
        13        14        31     1      110.730484      494.836144
        14        13        28     1      108.800034      511.277796
        14        13        29     1      108.800034      511.277796
        14        15        16     1      119.119446      506.758462
        15        14        30     1      108.679016      458.485441
        15        14        31     1      108.679016      458.485441
        15        16        17     1      116.744362      540.747589
        15        16        21     1      124.167503      547.162000
        16        17        18     1      119.929161      678.934697
        16        17        39     1      119.885757      759.016646
        16        21        20     1      119.966942      760.099867
        16        21        32     1      120.559402      438.711610
        17        16        21     1      119.253822      603.810267
        17        18        19     1      120.654930      668.412961
        17        18        37     1      119.121689      406.677030
        17        39        38     1      112.184769      580.030686
        17        39        40     1      112.184769      580.030686
        17        39        41     1      112.184769      580.030686
        18        17        39     1      120.145676      545.581317
        18        19        20     1      119.247520      697.259616
        18        19        36     1      120.132835      443.536496
        19        18        37     1      120.328262      426.245319
        19        20        21     1      120.774559      680.404805
        19        20        35     1      120.115036      431.736053
        20        19        36     1      120.603981      440.311095
        20        21        32     1      119.497948      440.228547
        21        20        35     1      119.163986      431.065449
        26        12        27     1      106.761887      356.396313
        28        13        29     1      107.017380      359.666787
        30        14        31     1      107.961380      344.669928
        38        39        40     1      106.575302      698.024261
        38        39        41     1      106.575302      698.024261
        40        39        41     1      106.575302      698.024325

[ dihedrals ] ; propers for gromacs 4.5 or higher, use funct 9
;       ai        aj        ak        al funct           phase               k        pn
         1         2         4        11     9        0.000000       -5.848196         1
         1         2         4        11     9      180.000000        2.034170         2
         1         2         4        11     9        0.000000       -0.165345         3
         1         2         4        11     9      180.000000        0.106470         4
         1         2         4        33     9        0.000000        6.314815         1
         1         2         4        33     9      180.000000        2.991276         2
         1         2         4        33     9        0.000000        0.807549         3
         1         2         4        33     9      180.000000        0.524419         4
         2         4        11        10     9        0.000000        0.407151         1
         2         4        11        10     9      180.000000       14.821666         2
         2         4        11        10     9        0.000000       -0.971338         3
         2         4        11        10     9      180.000000       -0.840499         4
         2         4        11        12     9        0.000000        0.171018         1
         2         4        11        12     9      180.000000       12.352449         2
         2         4        11        12     9        0.000000        0.301653         3
         2         4        11        12     9      180.000000       -0.783839         4
         2         4        33         5     9        0.000000       -0.541694         1
         2         4        33         5     9      180.000000        7.269044         2
         2         4        33         5     9        0.000000        0.535650         3
         2         4        33         5     9      180.000000       -0.257959         4
         2         4        33        34     9        0.000000       -0.060045         1
         2         4        33        34     9      180.000000        3.229365         2
         2         4        33        34     9        0.000000        0.283770         3
         2         4        33        34     9      180.000000        0.035855         4
         3         2         4        11     9        0.000000       -5.848196         1
         3         2         4        11     9      180.000000        2.034170         2
         3         2         4        11     9        0.000000       -0.165345         3
         3         2         4        11     9      180.000000        0.106470         4
         3         2         4        33     9        0.000000        6.314815         1
         3         2         4        33     9      180.000000        2.991276         2
         3         2         4        33     9        0.000000        0.807549         3
         3         2         4        33     9      180.000000        0.524419         4
         4        11        10         5     9        0.000000        0.059700         1
         4        11        10         5     9      180.000000       24.840541         2
         4        11        10         5     9        0.000000       -7.948559         3
         4        11        10         5     9      180.000000       -0.272064         4
         4        11        10         9     9        0.000000       -0.230767         1
         4        11        10         9     9      180.000000        4.359253         2
         4        11        10         9     9        0.000000       -0.639085         3
         4        11        10         9     9      180.000000        0.332474         4
         4        11        12        13     9        0.000000       -0.762663         1
         4        11        12        13     9      180.000000       -0.478729         2
         4        11        12        13     9        0.000000        0.120672         3
         4        11        12        13     9      180.000000       -0.050471         4
         4        11        12        26     9        0.000000        0.040229         1
         4        11        12        26     9      180.000000        0.070747         2
         4        11        12        26     9        0.000000       -0.344602         3
         4        11        12        26     9      180.000000        0.138807         4
         4        11        12        27     9        0.000000        0.040229         1
         4        11        12        27     9      180.000000        0.070747         2
         4        11        12        27     9        0.000000       -0.344602         3
         4        11        12        27     9      180.000000        0.138807         4
         4        33         5         6     9        0.000000        0.303827         1
         4        33         5         6     9      180.000000        4.550438         2
         4        33         5         6     9        0.000000        0.320222         3
         4        33         5         6     9      180.000000        0.136045         4
         4        33         5        10     9        0.000000       -0.267390         1
         4        33         5        10     9      180.000000       18.058715         2
         4        33         5        10     9        0.000000       -4.023647         3
         4        33         5        10     9      180.000000       -0.911935         4
         5         6         7         8     9        0.000000       -0.113626         1
         5         6         7         8     9      180.000000       21.530658         2
         5         6         7         8     9        0.000000       -1.714097         3
         5         6         7         8     9      180.000000       -0.570669         4
         5         6         7        23     9        0.000000        0.025567         1
         5         6         7        23     9      180.000000       16.325681         2
         5         6         7        23     9        0.000000       -0.701049         3
         5         6         7        23     9      180.000000       -0.066530         4
         5        10         9         8     9        0.000000        0.097901         1
         5        10         9         8     9      180.000000       19.194673         2
         5        10         9         8     9        0.000000       -1.707494         3
         5        10         9         8     9      180.000000       -0.440949         4
         5        10         9        25     9        0.000000        0.374264         1
         5        10         9        25     9      180.000000       13.045364         2
         5        10         9        25     9        0.000000       -0.146126         3
         5        10         9        25     9      180.000000        0.020637         4
         5        10        11        12     9        0.000000        1.148513         1
         5        10        11        12     9      180.000000       11.219891         2
         5        10        11        12     9        0.000000        0.713387         3
         5        10        11        12     9      180.000000       -0.325165         4
         5        33         4        11     9        0.000000       -0.001192         1
         5        33         4        11     9      180.000000       20.210571         2
         5        33         4        11     9        0.000000       -4.953607         3
         5        33         4        11     9      180.000000       -0.860756         4
         6         5        10         9     9        0.000000       -0.036515         1
         6         5        10         9     9      180.000000        9.944162         2
         6         5        10         9     9        0.000000       -1.355781         3
         6         5        10         9     9      180.000000        0.026608         4
         6         5        10        11     9        0.000000       -0.115361         1
         6         5        10        11     9      180.000000       10.689383         2
         6         5        10        11     9        0.000000       -2.544923         3
         6         5        10        11     9      180.000000        0.091706         4
         6         5        33        34     9        0.000000        0.027967         1
         6         5        33        34     9      180.000000        0.904266         2
         6         5        33        34     9        0.000000        0.266755         3
         6         5        33        34     9      180.000000       -0.055017         4
         6         7         8         9     9        0.000000        0.085716         1
         6         7         8         9     9      180.000000       17.178660         2
         6         7         8         9     9        0.000000       -1.420086         3
         6         7         8         9     9      180.000000       -0.309722         4
         6         7         8        24     9        0.000000        0.054100         1
         6         7         8        24     9      180.000000       13.653214         2
         6         7         8        24     9        0.000000       -0.711990         3
         6         7         8        24     9      180.000000        0.142296         4
         7         6         5        10     9        0.000000       -0.077956         1
         7         6         5        10     9      180.000000       17.305936         2
         7         6         5        10     9        0.000000       -1.495089         3
         7         6         5        10     9      180.000000       -0.342318         4
         7         6         5        33     9        0.000000        0.203655         1
         7         6         5        33     9      180.000000       16.361366         2
         7         6         5        33     9        0.000000       -0.221954         3
         7         6         5        33     9      180.000000       -0.348842         4
         7         8         9        10     9        0.000000       -0.127468         1
         7         8         9        10     9      180.000000       21.310594         2
         7         8         9        10     9        0.000000       -1.734983         3
         7         8         9        10     9      180.000000       -0.527673         4
         7         8         9        25     9        0.000000        0.032670         1
         7         8         9        25     9      180.000000       15.346210         2
         7         8         9        25     9        0.000000       -0.603448         3
         7         8         9        25     9      180.000000        0.127241         4
         8         7         6        22     9        0.000000        0.092707         1
         8         7         6        22     9      180.000000       14.929351         2
         8         7         6        22     9        0.000000       -0.522639         3
         8         7         6        22     9      180.000000        0.113419         4
         8         9        10        11     9        0.000000       -0.094464         1
         8         9        10        11     9      180.000000       14.058062         2
         8         9        10        11     9        0.000000       -0.928158         3
         8         9        10        11     9      180.000000       -0.193889         4
         9         8         7        23     9        0.000000        0.058801         1
         9         8         7        23     9      180.000000       13.405421         2
         9         8         7        23     9        0.000000       -0.757106         3
         9         8         7        23     9      180.000000        0.161000         4
         9        10         5        33     9        0.000000        0.098310         1
         9        10         5        33     9      180.000000       10.836978         2
         9        10         5        33     9        0.000000       -1.802469         3
         9        10         5        33     9      180.000000       -0.093939         4
         9        10        11        12     9        0.000000       -0.440081         1
         9        10        11        12     9      180.000000        5.384506         2
         9        10        11        12     9        0.000000        0.167749         3
         9        10        11        12     9      180.000000        0.241046         4
        10         5         6        22     9        0.000000        0.191639         1
        10         5         6        22     9      180.000000       11.778428         2
        10         5         6        22     9        0.000000       -0.112599         3
        10         5         6        22     9      180.000000       -0.028965         4
        10         5        33        34     9        0.000000        0.660544         1
        10         5        33        34     9      180.000000        1.565184         2
        10         5        33        34     9        0.000000        0.554703         3
        10         5        33        34     9      180.000000        0.160968         4
        10         9         8        24     9        0.000000        0.020215         1
        10         9         8        24     9      180.000000       16.122637         2
        10         9         8        24     9        0.000000       -0.557272         3
        10         9         8        24     9      180.000000       -0.082829         4
        10        11         4        33     9        0.000000       -0.269618         1
        10        11         4        33     9      180.000000       32.307342         2
        10        11         4        33     9        0.000000       -6.139104         3
        10        11         4        33     9      180.000000       -0.336367         4
        10        11        12        13     9        0.000000       -0.771543         1
        10        11        12        13     9      180.000000       -0.164164         2
        10        11        12        13     9        0.000000        0.272102         3
        10        11        12        13     9      180.000000        0.041434         4
        10        11        12        26     9        0.000000        0.085264         1
        10        11        12        26     9      180.000000        0.092043         2
        10        11        12        26     9        0.000000        0.301666         3
        10        11        12        26     9      180.000000        0.085541         4
        10        11        12        27     9        0.000000        0.085264         1
        10        11        12        27     9      180.000000        0.092043         2
        10        11        12        27     9        0.000000        0.301666         3
        10        11        12        27     9      180.000000        0.085541         4
        11         4        33        34     9        0.000000        2.056222         1
        11         4        33        34     9      180.000000        2.032207         2
        11         4        33        34     9        0.000000        0.994371         3
        11         4        33        34     9      180.000000        0.086240         4
        11        10         5        33     9        0.000000       -0.184496         1
        11        10         5        33     9      180.000000       20.114318         2
        11        10         5        33     9        0.000000       -6.567274         3
        11        10         5        33     9      180.000000       -0.385168         4
        11        10         9        25     9        0.000000       -0.083573         1
        11        10         9        25     9      180.000000       10.550967         2
        11        10         9        25     9        0.000000       -0.092864         3
        11        10         9        25     9      180.000000        0.077841         4
        11        12        13        14     9        0.000000       -1.134539         1
        11        12        13        14     9      180.000000       -0.185189         2
        11        12        13        14     9        0.000000        0.420665         3
        11        12        13        14     9      180.000000       -0.020074         4
        11        12        13        28     9        0.000000        0.174405         1
        11        12        13        28     9      180.000000        0.000426         2
        11        12        13        28     9        0.000000        0.595883         3
        11        12        13        28     9      180.000000        0.017036         4
        11        12        13        29     9        0.000000        0.174405         1
        11        12        13        29     9      180.000000        0.000426         2
        11        12        13        29     9        0.000000        0.595883         3
        11        12        13        29     9      180.000000        0.017036         4
        12        11         4        33     9        0.000000        0.597618         1
        12        11         4        33     9      180.000000       19.383907         2
        12        11         4        33     9        0.000000       -0.027506         3
        12        11         4        33     9      180.000000       -1.380854         4
        12        13        14        15     9        0.000000       -1.368269         1
        12        13        14        15     9      180.000000       -0.409082         2
        12        13        14        15     9        0.000000        0.458922         3
        12        13        14        15     9      180.000000        0.003548         4
        12        13        14        30     9        0.000000        0.046203         1
        12        13        14        30     9      180.000000        0.046104         2
        12        13        14        30     9        0.000000        0.652930         3
        12        13        14        30     9      180.000000        0.040678         4
        12        13        14        31     9        0.000000        0.046203         1
        12        13        14        31     9      180.000000        0.046104         2
        12        13        14        31     9        0.000000        0.652930         3
        12        13        14        31     9      180.000000        0.040678         4
        13        14        15        16     9        0.000000        0.064425         1
        13        14        15        16     9      180.000000        0.299644         2
        13        14        15        16     9        0.000000        0.589467         3
        13        14        15        16     9      180.000000        0.032566         4
        14        13        12        26     9        0.000000       -0.117087         1
        14        13        12        26     9      180.000000        0.052757         2
        14        13        12        26     9        0.000000        0.494705         3
        14        13        12        26     9      180.000000        0.024753         4
        14        13        12        27     9        0.000000       -0.117087         1
        14        13        12        27     9      180.000000        0.052757         2
        14        13        12        27     9        0.000000        0.494705         3
        14        13        12        27     9      180.000000        0.024753         4
        14        15        16        17     9        0.000000       -3.820762         1
        14        15        16        17     9      180.000000        6.700863         2
        14        15        16        17     9        0.000000       -0.583646         3
        14        15        16        17     9      180.000000        0.397456         4
        14        15        16        21     9        0.000000        1.827065         1
        14        15        16        21     9      180.000000        5.489917         2
        14        15        16        21     9        0.000000        0.294569         3
        14        15        16        21     9      180.000000        0.169656         4
        15        14        13        28     9        0.000000        0.024370         1
        15        14        13        28     9      180.000000        0.124297         2
        15        14        13        28     9        0.000000        0.489545         3
        15        14        13        28     9      180.000000        0.064672         4
        15        14        13        29     9        0.000000        0.024370         1
        15        14        13        29     9      180.000000        0.124297         2
        15        14        13        29     9        0.000000        0.489545         3
        15        14        13        29     9      180.000000        0.064672         4
        15        16        17        18     9        0.000000        0.398839         1
        15        16        17        18     9      180.000000       15.386254         2
        15        16        17        18     9        0.000000        0.556192         3
        15        16        17        18     9      180.000000       -0.164264         4
        15        16        17        39     9        0.000000        0.351051         1
        15        16        17        39     9      180.000000       15.126326         2
        15        16        17        39     9        0.000000        0.392809         3
        15        16        17        39     9      180.000000       -0.392394         4
        15        16        21        20     9        0.000000        0.702891         1
        15        16        21        20     9      180.000000       18.095769         2
        15        16        21        20     9        0.000000        0.578456         3
        15        16        21        20     9      180.000000       -0.388331         4
        15        16        21        32     9        0.000000        0.129802         1
        15        16        21        32     9      180.000000       13.768069         2
        15        16        21        32     9        0.000000       -0.028346         3
        15        16        21        32     9      180.000000        0.238987         4
        16        15        14        30     9        0.000000       -0.042097         1
        16        15        14        30     9      180.000000       -0.052441         2
        16        15        14        30     9        0.000000        0.770794         3
        16        15        14        30     9      180.000000       -0.053625         4
        16        15        14        31     9        0.000000       -0.042097         1
        16        15        14        31     9      180.000000       -0.052441         2
        16        15        14        31     9        0.000000        0.770794         3
        16        15        14        31     9      180.000000       -0.053625         4
        16        17        18        19     9        0.000000       -0.223073         1
        16        17        18        19     9      180.000000       18.964691         2
        16        17        18        19     9        0.000000       -1.768701         3
        16        17        18        19     9      180.000000       -0.501388         4
        16        17        18        37     9        0.000000        0.161179         1
        16        17        18        37     9      180.000000       14.685554         2
        16        17        18        37     9        0.000000       -0.625441         3
        16        17        18        37     9      180.000000       -0.045543         4
        16        17        39        38     9        0.000000        0.179132         1
        16        17        39        38     9      180.000000        0.260525         2
        16        17        39        38     9        0.000000        0.380030         3
        16        17        39        38     9      180.000000       -0.044480         4
        16        17        39        40     9        0.000000        0.179132         1
        16        17        39        40     9      180.000000        0.260525         2
        16        17        39        40     9        0.000000        0.380030         3
        16        17        39        40     9      180.000000       -0.044480         4
        16        17        39        41     9        0.000000        0.179132         1
        16        17        39        41     9      180.000000        0.260525         2
        16        17        39        41     9        0.000000        0.380030         3
        16        17        39        41     9      180.000000       -0.044480         4
        16        21        20        19     9        0.000000       -0.030396         1
        16        21        20        19     9      180.000000       18.732896         2
        16        21        20        19     9        0.000000       -1.704686         3
        16        21        20        19     9      180.000000       -0.460399         4
        16        21        20        35     9        0.000000        0.090312         1
        16        21        20        35     9      180.000000       14.670562         2
        16        21        20        35     9        0.000000       -0.635747         3
        16        21        20        35     9      180.000000        0.025267         4
        17        16        21        20     9        0.000000       -0.212453         1
        17        16        21        20     9      180.000000       15.903871         2
        17        16        21        20     9        0.000000       -1.137999         3
        17        16        21        20     9      180.000000       -0.280943         4
        17        16        21        32     9        0.000000        0.019702         1
        17        16        21        32     9      180.000000       12.663387         2
        17        16        21        32     9        0.000000       -0.434977         3
        17        16        21        32     9      180.000000        0.123937         4
        17        18        19        20     9        0.000000        0.021164         1
        17        18        19        20     9      180.000000       19.203186         2
        17        18        19        20     9        0.000000       -1.946642         3
        17        18        19        20     9      180.000000       -0.486263         4
        17        18        19        36     9        0.000000        0.020734         1
        17        18        19        36     9      180.000000       15.077061         2
        17        18        19        36     9        0.000000       -0.809357         3
        17        18        19        36     9      180.000000       -0.018796         4
        18        17        16        21     9        0.000000        0.187549         1
        18        17        16        21     9      180.000000       13.226145         2
        18        17        16        21     9        0.000000       -0.532672         3
        18        17        16        21     9      180.000000       -0.091157         4
        18        17        39        38     9        0.000000       -0.035576         1
        18        17        39        38     9      180.000000        0.109034         2
        18        17        39        38     9        0.000000       -0.245801         3
        18        17        39        38     9      180.000000        0.011295         4
        18        17        39        40     9        0.000000       -0.035576         1
        18        17        39        40     9      180.000000        0.109034         2
        18        17        39        40     9        0.000000       -0.245801         3
        18        17        39        40     9      180.000000        0.011295         4
        18        17        39        41     9        0.000000       -0.035576         1
        18        17        39        41     9      180.000000        0.109034         2
        18        17        39        41     9        0.000000       -0.245801         3
        18        17        39        41     9      180.000000        0.011295         4
        18        19        20        21     9        0.000000        0.061401         1
        18        19        20        21     9      180.000000       18.530485         2
        18        19        20        21     9        0.000000       -1.678915         3
        18        19        20        21     9      180.000000       -0.312950         4
        18        19        20        35     9        0.000000        0.061425         1
        18        19        20        35     9      180.000000       14.853039         2
        18        19        20        35     9        0.000000       -0.761543         3
        18        19        20        35     9      180.000000        0.097668         4
        19        18        17        39     9        0.000000        0.241616         1
        19        18        17        39     9      180.000000       16.453842         2
        19        18        17        39     9        0.000000       -0.242124         3
        19        18        17        39     9      180.000000       -0.434428         4
        19        20        21        32     9        0.000000        0.046029         1
        19        20        21        32     9      180.000000       14.221367         2
        19        20        21        32     9        0.000000       -0.707541         3
        19        20        21        32     9      180.000000        0.237260         4
        20        19        18        37     9        0.000000       -0.017365         1
        20        19        18        37     9      180.000000       14.772924         2
        20        19        18        37     9        0.000000       -0.798919         3
        20        19        18        37     9      180.000000        0.154563         4
        21        16        17        39     9        0.000000        0.058301         1
        21        16        17        39     9      180.000000       12.067118         2
        21        16        17        39     9        0.000000        0.067055         3
        21        16        17        39     9      180.000000       -0.104813         4
        21        20        19        36     9        0.000000        0.042760         1
        21        20        19        36     9      180.000000       14.534302         2
        21        20        19        36     9        0.000000       -0.717647         3
        21        20        19        36     9      180.000000        0.148029         4
        22         6         5        33     9        0.000000       -0.075257         1
        22         6         5        33     9      180.000000       11.465431         2
        22         6         5        33     9        0.000000       -0.064460         3
        22         6         5        33     9      180.000000        0.061567         4
        22         6         7        23     9        0.000000       -0.093298         1
        22         6         7        23     9      180.000000       12.220920         2
        22         6         7        23     9        0.000000       -0.649140         3
        22         6         7        23     9      180.000000        0.227119         4
        23         7         8        24     9        0.000000       -0.083847         1
        23         7         8        24     9      180.000000       10.869171         2
        23         7         8        24     9        0.000000       -0.488292         3
        23         7         8        24     9      180.000000        0.188957         4
        24         8         9        25     9        0.000000       -0.175107         1
        24         8         9        25     9      180.000000       12.479385         2
        24         8         9        25     9        0.000000       -0.668013         3
        24         8         9        25     9      180.000000        0.273644         4
        26        12        13        28     9        0.000000        0.021539         1
        26        12        13        28     9      180.000000        0.036431         2
        26        12        13        28     9        0.000000        0.611780         3
        26        12        13        28     9      180.000000       -0.014647         4
        26        12        13        29     9        0.000000        0.021539         1
        26        12        13        29     9      180.000000        0.036431         2
        26        12        13        29     9        0.000000        0.611780         3
        26        12        13        29     9      180.000000       -0.014647         4
        27        12        13        28     9        0.000000        0.021539         1
        27        12        13        28     9      180.000000        0.036431         2
        27        12        13        28     9        0.000000        0.611780         3
        27        12        13        28     9      180.000000       -0.014647         4
        27        12        13        29     9        0.000000        0.021539         1
        27        12        13        29     9      180.000000        0.036431         2
        27        12        13        29     9        0.000000        0.611780         3
        27        12        13        29     9      180.000000       -0.014647         4
        28        13        14        30     9        0.000000       -0.008939         1
        28        13        14        30     9      180.000000       -0.016107         2
        28        13        14        30     9        0.000000        0.669947         3
        28        13        14        30     9      180.000000       -0.051199         4
        28        13        14        31     9        0.000000       -0.008939         1
        28        13        14        31     9      180.000000       -0.016107         2
        28        13        14        31     9        0.000000        0.669947         3
        28        13        14        31     9      180.000000       -0.051199         4
        29        13        14        30     9        0.000000       -0.008939         1
        29        13        14        30     9      180.000000       -0.016107         2
        29        13        14        30     9        0.000000        0.669947         3
        29        13        14        30     9      180.000000       -0.051199         4
        29        13        14        31     9        0.000000       -0.008939         1
        29        13        14        31     9      180.000000       -0.016107         2
        29        13        14        31     9        0.000000        0.669947         3
        29        13        14        31     9      180.000000       -0.051199         4
        32        21        20        35     9        0.000000       -0.089220         1
        32        21        20        35     9      180.000000       11.650746         2
        32        21        20        35     9        0.000000       -0.630778         3
        32        21        20        35     9      180.000000        0.323183         4
        35        20        19        36     9        0.000000       -0.026600         1
        35        20        19        36     9      180.000000       11.726741         2
        35        20        19        36     9        0.000000       -0.591622         3
        35        20        19        36     9      180.000000        0.277265         4
        36        19        18        37     9        0.000000       -0.192080         1
        36        19        18        37     9      180.000000       11.484541         2
        36        19        18        37     9        0.000000       -0.815976         3
        36        19        18        37     9      180.000000        0.340926         4
        37        18        17        39     9        0.000000        0.057221         1
        37        18        17        39     9      180.000000       12.258796         2
        37        18        17        39     9        0.000000       -0.364985         3
        37        18        17        39     9      180.000000        0.143770         4

[ dihedrals ] ; impropers
;       ai        aj        ak        al funct           phase               k        pn
         2         1         3         4     4      180.000000       27.893333         2
         2         3         4         1     4      180.000000       27.893333         2
         2         4         1         3     4      180.000000       27.893333         2

[ pairs ]
;       ai        aj funct
         1        11     1
         1        33     1
         2         5     1
         2        10     1
         2        12     1
         2        34     1
         3        11     1
         3        33     1
         4         6     1
         4         9     1
         4        13     1
         4        26     1
         4        27     1
         5         8     1
         5        12     1
         5        23     1
         5        25     1
         6         9     1
         6        11     1
         6        24     1
         6        34     1
         7        10     1
         7        25     1
         7        33     1
         8        11     1
         8        22     1
         9        12     1
         9        23     1
         9        33     1
        10        13     1
        10        22     1
        10        24     1
        10        26     1
        10        27     1
        10        34     1
        11        14     1
        11        25     1
        11        28     1
        11        29     1
        11        34     1
        12        15     1
        12        30     1
        12        31     1
        12        33     1
        13        16     1
        14        17     1
        14        21     1
        14        26     1
        14        27     1
        15        18     1
        15        20     1
        15        28     1
        15        29     1
        15        32     1
        15        39     1
        16        19     1
        16        30     1
        16        31     1
        16        35     1
        16        37     1
        16        38     1
        16        40     1
        16        41     1
        17        20     1
        17        32     1
        17        36     1
        18        21     1
        18        35     1
        18        38     1
        18        40     1
        18        41     1
        19        32     1
        19        39     1
        20        37     1
        21        36     1
        21        39     1
        22        23     1
        22        33     1
        23        24     1
        24        25     1
        26        28     1
        26        29     1
        27        28     1
        27        29     1
        28        30     1
        28        31     1
        29        30     1
        29        31     1
        32        35     1
        35        36     1
        36        37     1
        37        39     1
