; ITP file created by ByteFF-ML, 2026-02-21 08:21:14.240370

[ atomtypes ]
;name           bonded.type        at.num        mass        charge   ptype           sigma         epsilon
 o0bf                                   8      0.0000       0.00000       A     3.04351e-01     6.11346e-01
 c1bf                                   6      0.0000       0.00000       A     3.31270e-01     4.08495e-01
 o2bf                                   8      0.0000       0.00000       A     3.04351e-01     6.11346e-01
 c3bf                                   6      0.0000       0.00000       A     3.31580e-01     4.10578e-01
 c4bf                                   6      0.0000       0.00000       A     3.31606e-01     4.10911e-01
 c5bf                                   6      0.0000       0.00000       A     3.31468e-01     4.12919e-01
 c6bf                                   6      0.0000       0.00000       A     3.31479e-01     4.12975e-01
 c7bf                                   6      0.0000       0.00000       A     3.31507e-01     4.12945e-01
 c8bf                                   6      0.0000       0.00000       A     3.31448e-01     4.12303e-01
 c9bf                                   6      0.0000       0.00000       A     3.31417e-01     4.11727e-01
 c10bf                                  6      0.0000       0.00000       A     3.31209e-01     4.12534e-01
 c11bf                                  6      0.0000       0.00000       A     3.39740e-01     4.50819e-01
 c12bf                                  6      0.0000       0.00000       A     3.39825e-01     4.50762e-01
 c13bf                                  6      0.0000       0.00000       A     3.39714e-01     4.51040e-01
 o14bf                                  8      0.0000       0.00000       A     3.15849e-01     3.05258e-01
 c15bf                                  6      0.0000       0.00000       A     3.31427e-01     4.13345e-01
 c16bf                                  6      0.0000       0.00000       A     3.31559e-01     4.12380e-01
 c17bf                                  6      0.0000       0.00000       A     3.31437e-01     4.13012e-01
 c18bf                                  6      0.0000       0.00000       A     3.31470e-01     4.13128e-01
 c19bf                                  6      0.0000       0.00000       A     3.31437e-01     4.13012e-01
 c20bf                                  6      0.0000       0.00000       A     3.31559e-01     4.12380e-01
 h21bf                                  1      0.0000       0.00000       A     2.62509e-01     6.71594e-02
 h22bf                                  1      0.0000       0.00000       A     2.62453e-01     6.74531e-02
 h23bf                                  1      0.0000       0.00000       A     2.62437e-01     6.74722e-02
 h24bf                                  1      0.0000       0.00000       A     2.62476e-01     6.69056e-02
 h25bf                                  1      0.0000       0.00000       A     2.59715e-01     8.74790e-02
 h26bf                                  1      0.0000       0.00000       A     2.59715e-01     8.74790e-02
 h27bf                                  1      0.0000       0.00000       A     2.60066e-01     8.68629e-02
 h28bf                                  1      0.0000       0.00000       A     2.60066e-01     8.68629e-02
 h29bf                                  1      0.0000       0.00000       A     2.42089e-01     8.76721e-02
 h30bf                                  1      0.0000       0.00000       A     2.42089e-01     8.76721e-02
 h31bf                                  1      0.0000       0.00000       A     2.62494e-01     6.68897e-02
 h32bf                                  1      0.0000       0.00000       A     2.62494e-01     6.68897e-02
 n33bf                                  7      0.0000       0.00000       A     3.20469e-01     8.58390e-01
 h34bf                                  1      0.0000       0.00000       A     1.10720e-01     4.23341e-02
 h35bf                                  1      0.0000       0.00000       A     2.62516e-01     6.71482e-02
 cl36bf                                17      0.0000       0.00000       A     3.46712e-01     1.10479e+00
 h37bf                                  1      0.0000       0.00000       A     2.62516e-01     6.71482e-02

[ moleculetype ]
;name             nrexcl
 33                    3

[ atoms ]
;       nr            type      resi   res      atom      cgnr      charge          mass ; qtot
         1            o0bf         1   UNL        o0         1    -0.72437       15.9990 ; qtot   -0.724
         2            c1bf         1   UNL        c1         2     0.71536       12.0110 ; qtot   -0.009
         3            o2bf         1   UNL        o2         3    -0.72437       15.9990 ; qtot   -0.733
         4            c3bf         1   UNL        c3         4    -0.12874       12.0110 ; qtot   -0.862
         5            c4bf         1   UNL        c4         5    -0.06274       12.0110 ; qtot   -0.925
         6            c5bf         1   UNL        c5         6    -0.14509       12.0110 ; qtot   -1.070
         7            c6bf         1   UNL        c6         7    -0.09062       12.0110 ; qtot   -1.161
         8            c7bf         1   UNL        c7         8    -0.14599       12.0110 ; qtot   -1.307
         9            c8bf         1   UNL        c8         9    -0.06647       12.0110 ; qtot   -1.373
        10            c9bf         1   UNL        c9        10    -0.10957       12.0110 ; qtot   -1.483
        11           c10bf         1   UNL       c10        11    -0.19497       12.0110 ; qtot   -1.678
        12           c11bf         1   UNL       c11        12    -0.00891       12.0110 ; qtot   -1.686
        13           c12bf         1   UNL       c12        13    -0.08976       12.0110 ; qtot   -1.776
        14           c13bf         1   UNL       c13        14     0.16312       12.0110 ; qtot   -1.613
        15           o14bf         1   UNL       o14        15    -0.35080       15.9990 ; qtot   -1.964
        16           c15bf         1   UNL       c15        16     0.13962       12.0110 ; qtot   -1.824
        17           c16bf         1   UNL       c16        17    -0.16165       12.0110 ; qtot   -1.986
        18           c17bf         1   UNL       c17        18    -0.06565       12.0110 ; qtot   -2.052
        19           c18bf         1   UNL       c18        19     0.08779       12.0110 ; qtot   -1.964
        20           c19bf         1   UNL       c19        20    -0.06565       12.0110 ; qtot   -2.029
        21           c20bf         1   UNL       c20        21    -0.16165       12.0110 ; qtot   -2.191
        22           h21bf         1   UNL       h21        22     0.11536        1.0080 ; qtot   -2.076
        23           h22bf         1   UNL       h22        23     0.11184        1.0080 ; qtot   -1.964
        24           h23bf         1   UNL       h23        24     0.11224        1.0080 ; qtot   -1.852
        25           h24bf         1   UNL       h24        25     0.11869        1.0080 ; qtot   -1.733
        26           h25bf         1   UNL       h25        26     0.04567        1.0080 ; qtot   -1.687
        27           h26bf         1   UNL       h26        27     0.04567        1.0080 ; qtot   -1.642
        28           h27bf         1   UNL       h27        28     0.05519        1.0080 ; qtot   -1.586
        29           h28bf         1   UNL       h28        29     0.05519        1.0080 ; qtot   -1.531
        30           h29bf         1   UNL       h29        30     0.04441        1.0080 ; qtot   -1.487
        31           h30bf         1   UNL       h30        31     0.04441        1.0080 ; qtot   -1.442
        32           h31bf         1   UNL       h31        32     0.12903        1.0080 ; qtot   -1.313
        33           h32bf         1   UNL       h32        33     0.12903        1.0080 ; qtot   -1.184
        34           n33bf         1   UNL       n33        34    -0.23318       14.0070 ; qtot   -1.418
        35           h34bf         1   UNL       h34        35     0.36278        1.0080 ; qtot   -1.055
        36           h35bf         1   UNL       h35        36     0.13260        1.0080 ; qtot   -0.922
        37          cl36bf         1   UNL      cl36        37    -0.21044       35.4530 ; qtot   -1.133
        38           h37bf         1   UNL       h37        38     0.13262        1.0080 ; qtot   -1.000

[ bonds ]
;       ai        aj funct               r               k
         1         2     1        0.126246   477087.239648
         2         3     1        0.126246   477087.239648
         2         4     1        0.153400   125645.617041
         4        11     1        0.138965   327323.865771
         4        34     1        0.138505   264560.367188
         5         6     1        0.140170   306119.305762
         5        10     1        0.143187   232474.419336
         5        34     1        0.137011   296448.938721
         6         7     1        0.139356   324716.603516
         6        22     1        0.108648   317710.778467
         7         8     1        0.141322   279766.924170
         7        23     1        0.108613   319631.935205
         8         9     1        0.139211   326075.535254
         8        24     1        0.108624   318958.700391
         9        10     1        0.140988   296604.944922
         9        25     1        0.108582   319566.943262
        10        11     1        0.144259   230612.483154
        11        12     1        0.150445   207387.031226
        12        13     1        0.154309   174651.010718
        12        26     1        0.109425   295733.235693
        12        27     1        0.109425   295733.261230
        13        14     1        0.152499   192439.969580
        13        28     1        0.109516   297606.178369
        13        29     1        0.109516   297606.178369
        14        15     1        0.143259   188225.452734
        14        30     1        0.109678   290005.185449
        14        31     1        0.109678   290005.185449
        15        16     1        0.136638   270351.621777
        16        17     1        0.140310   287289.467090
        16        21     1        0.140310   287289.467090
        17        18     1        0.139668   319087.152051
        17        32     1        0.108406   324562.972266
        18        19     1        0.139580   301828.867090
        18        38     1        0.108480   324450.583447
        19        20     1        0.139580   301828.867090
        19        37     1        0.175851   148359.764966
        20        21     1        0.139668   319087.152051
        20        36     1        0.108480   324450.583447
        21        33     1        0.108406   324562.972266
        34        35     1        0.101568   409831.840137

[ angles ]
;       ai        aj        ak funct           theta             cth
         1         2         3     1      129.890915      711.082981
         1         2         4     1      114.963943      332.710740
         2         4        11     1      135.663651      350.727714
         2         4        34     1      115.605225      381.001510
         3         2         4     1      114.963943      332.710740
         4        11        10     1      106.575829      405.326820
         4        11        12     1      127.327011      428.528720
         4        34         5     1      110.661705      412.354440
         4        34        35     1      117.847610      382.259468
         5         6         7     1      117.701210      791.646496
         5         6        22     1      121.289551      440.177345
         5        10         9     1      118.560951      742.089118
         5        10        11     1      107.585289      271.643978
         5        34        35     1      131.290939      307.571563
         6         5        10     1      122.120865      633.320696
         6         5        34     1      131.222183      478.691487
         6         7         8     1      121.218521      629.331416
         6         7        23     1      119.387344      434.126071
         7         6        22     1      121.092140      440.849769
         7         8         9     1      121.054970      638.915493
         7         8        24     1      119.239258      447.408528
         8         7        23     1      119.397072      440.561614
         8         9        10     1      119.297623      725.558372
         8         9        25     1      120.503197      431.554931
         9         8        24     1      119.770569      439.261009
         9        10        11     1      134.133453      413.767632
        10         5        34     1      106.946518      176.571539
        10         9        25     1      120.298561      433.490133
        10        11        12     1      125.788147      461.612620
        11         4        34     1      108.726097      284.224995
        11        12        13     1      112.795059      547.868165
        11        12        26     1      109.126892      490.517563
        11        12        27     1      109.126892      490.517563
        12        13        14     1      112.616066      592.567044
        12        13        28     1      109.492508      484.680227
        12        13        29     1      109.492508      484.680227
        13        12        26     1      108.938232      484.895664
        13        12        27     1      108.938232      484.895664
        13        14        15     1      109.533730      622.135825
        13        14        30     1      110.734940      494.618152
        13        14        31     1      110.734940      494.618152
        14        13        28     1      108.792709      511.357823
        14        13        29     1      108.792709      511.357823
        14        15        16     1      118.843307      524.427365
        15        14        30     1      108.912476      459.708222
        15        14        31     1      108.912476      459.708222
        15        16        17     1      120.597672      562.964682
        15        16        21     1      120.597672      562.964682
        16        17        18     1      120.126221      748.074186
        16        17        32     1      120.242577      432.996405
        16        21        20     1      120.126221      748.074186
        16        21        33     1      120.242577      432.996405
        17        16        21     1      119.526123      574.487601
        17        18        19     1      119.731018      622.558081
        17        18        38     1      120.218460      415.826370
        18        17        32     1      119.583450      428.207591
        18        19        20     1      120.556129      605.476117
        18        19        37     1      119.675919      377.280881
        19        18        38     1      120.146927      417.827203
        19        20        21     1      119.731018      622.558081
        19        20        36     1      120.146927      417.827203
        20        19        37     1      119.675919      377.280881
        20        21        33     1      119.583450      428.207527
        21        20        36     1      120.218460      415.826370
        26        12        27     1      106.761887      356.396250
        28        13        29     1      107.017380      359.666787
        30        14        31     1      107.963120      344.594115

[ dihedrals ] ; propers for gromacs 4.5 or higher, use funct 9
;       ai        aj        ak        al funct           phase               k        pn
         1         2         4        11     9        0.000000       -5.848196         1
         1         2         4        11     9      180.000000        2.034170         2
         1         2         4        11     9        0.000000       -0.165345         3
         1         2         4        11     9      180.000000        0.106470         4
         1         2         4        34     9        0.000000        6.314815         1
         1         2         4        34     9      180.000000        2.991276         2
         1         2         4        34     9        0.000000        0.807549         3
         1         2         4        34     9      180.000000        0.524419         4
         2         4        11        10     9        0.000000        0.407151         1
         2         4        11        10     9      180.000000       14.821666         2
         2         4        11        10     9        0.000000       -0.971338         3
         2         4        11        10     9      180.000000       -0.840499         4
         2         4        11        12     9        0.000000        0.171018         1
         2         4        11        12     9      180.000000       12.352449         2
         2         4        11        12     9        0.000000        0.301653         3
         2         4        11        12     9      180.000000       -0.783839         4
         2         4        34         5     9        0.000000       -0.541694         1
         2         4        34         5     9      180.000000        7.269044         2
         2         4        34         5     9        0.000000        0.535650         3
         2         4        34         5     9      180.000000       -0.257959         4
         2         4        34        35     9        0.000000       -0.060045         1
         2         4        34        35     9      180.000000        3.229365         2
         2         4        34        35     9        0.000000        0.283770         3
         2         4        34        35     9      180.000000        0.035855         4
         3         2         4        11     9        0.000000       -5.848196         1
         3         2         4        11     9      180.000000        2.034170         2
         3         2         4        11     9        0.000000       -0.165345         3
         3         2         4        11     9      180.000000        0.106470         4
         3         2         4        34     9        0.000000        6.314815         1
         3         2         4        34     9      180.000000        2.991276         2
         3         2         4        34     9        0.000000        0.807549         3
         3         2         4        34     9      180.000000        0.524419         4
         4        11        10         5     9        0.000000        0.059700         1
         4        11        10         5     9      180.000000       24.840541         2
         4        11        10         5     9        0.000000       -7.948559         3
         4        11        10         5     9      180.000000       -0.272064         4
         4        11        10         9     9        0.000000       -0.230767         1
         4        11        10         9     9      180.000000        4.359253         2
         4        11        10         9     9        0.000000       -0.639085         3
         4        11        10         9     9      180.000000        0.332474         4
         4        11        12        13     9        0.000000       -0.762663         1
         4        11        12        13     9      180.000000       -0.478729         2
         4        11        12        13     9        0.000000        0.120672         3
         4        11        12        13     9      180.000000       -0.050471         4
         4        11        12        26     9        0.000000        0.040229         1
         4        11        12        26     9      180.000000        0.070747         2
         4        11        12        26     9        0.000000       -0.344602         3
         4        11        12        26     9      180.000000        0.138807         4
         4        11        12        27     9        0.000000        0.040229         1
         4        11        12        27     9      180.000000        0.070747         2
         4        11        12        27     9        0.000000       -0.344602         3
         4        11        12        27     9      180.000000        0.138807         4
         4        34         5         6     9        0.000000        0.303827         1
         4        34         5         6     9      180.000000        4.550438         2
         4        34         5         6     9        0.000000        0.320222         3
         4        34         5         6     9      180.000000        0.136045         4
         4        34         5        10     9        0.000000       -0.267390         1
         4        34         5        10     9      180.000000       18.058715         2
         4        34         5        10     9        0.000000       -4.023647         3
         4        34         5        10     9      180.000000       -0.911935         4
         5         6         7         8     9        0.000000       -0.113626         1
         5         6         7         8     9      180.000000       21.530658         2
         5         6         7         8     9        0.000000       -1.714097         3
         5         6         7         8     9      180.000000       -0.570669         4
         5         6         7        23     9        0.000000        0.025567         1
         5         6         7        23     9      180.000000       16.325681         2
         5         6         7        23     9        0.000000       -0.701049         3
         5         6         7        23     9      180.000000       -0.066530         4
         5        10         9         8     9        0.000000        0.097901         1
         5        10         9         8     9      180.000000       19.194673         2
         5        10         9         8     9        0.000000       -1.707494         3
         5        10         9         8     9      180.000000       -0.440949         4
         5        10         9        25     9        0.000000        0.374264         1
         5        10         9        25     9      180.000000       13.045364         2
         5        10         9        25     9        0.000000       -0.146126         3
         5        10         9        25     9      180.000000        0.020637         4
         5        10        11        12     9        0.000000        1.148513         1
         5        10        11        12     9      180.000000       11.219891         2
         5        10        11        12     9        0.000000        0.713387         3
         5        10        11        12     9      180.000000       -0.325165         4
         5        34         4        11     9        0.000000       -0.001192         1
         5        34         4        11     9      180.000000       20.210571         2
         5        34         4        11     9        0.000000       -4.953607         3
         5        34         4        11     9      180.000000       -0.860756         4
         6         5        10         9     9        0.000000       -0.036515         1
         6         5        10         9     9      180.000000        9.944162         2
         6         5        10         9     9        0.000000       -1.355781         3
         6         5        10         9     9      180.000000        0.026608         4
         6         5        10        11     9        0.000000       -0.115361         1
         6         5        10        11     9      180.000000       10.689383         2
         6         5        10        11     9        0.000000       -2.544923         3
         6         5        10        11     9      180.000000        0.091706         4
         6         5        34        35     9        0.000000        0.027967         1
         6         5        34        35     9      180.000000        0.904266         2
         6         5        34        35     9        0.000000        0.266755         3
         6         5        34        35     9      180.000000       -0.055017         4
         6         7         8         9     9        0.000000        0.085716         1
         6         7         8         9     9      180.000000       17.178660         2
         6         7         8         9     9        0.000000       -1.420086         3
         6         7         8         9     9      180.000000       -0.309722         4
         6         7         8        24     9        0.000000        0.054100         1
         6         7         8        24     9      180.000000       13.653214         2
         6         7         8        24     9        0.000000       -0.711990         3
         6         7         8        24     9      180.000000        0.142296         4
         7         6         5        10     9        0.000000       -0.077956         1
         7         6         5        10     9      180.000000       17.305936         2
         7         6         5        10     9        0.000000       -1.495089         3
         7         6         5        10     9      180.000000       -0.342318         4
         7         6         5        34     9        0.000000        0.203655         1
         7         6         5        34     9      180.000000       16.361366         2
         7         6         5        34     9        0.000000       -0.221954         3
         7         6         5        34     9      180.000000       -0.348842         4
         7         8         9        10     9        0.000000       -0.127468         1
         7         8         9        10     9      180.000000       21.310594         2
         7         8         9        10     9        0.000000       -1.734983         3
         7         8         9        10     9      180.000000       -0.527673         4
         7         8         9        25     9        0.000000        0.032670         1
         7         8         9        25     9      180.000000       15.346210         2
         7         8         9        25     9        0.000000       -0.603448         3
         7         8         9        25     9      180.000000        0.127241         4
         8         7         6        22     9        0.000000        0.092707         1
         8         7         6        22     9      180.000000       14.929351         2
         8         7         6        22     9        0.000000       -0.522639         3
         8         7         6        22     9      180.000000        0.113419         4
         8         9        10        11     9        0.000000       -0.094464         1
         8         9        10        11     9      180.000000       14.058062         2
         8         9        10        11     9        0.000000       -0.928158         3
         8         9        10        11     9      180.000000       -0.193889         4
         9         8         7        23     9        0.000000        0.058801         1
         9         8         7        23     9      180.000000       13.405421         2
         9         8         7        23     9        0.000000       -0.757106         3
         9         8         7        23     9      180.000000        0.161000         4
         9        10         5        34     9        0.000000        0.098310         1
         9        10         5        34     9      180.000000       10.836978         2
         9        10         5        34     9        0.000000       -1.802469         3
         9        10         5        34     9      180.000000       -0.093939         4
         9        10        11        12     9        0.000000       -0.440081         1
         9        10        11        12     9      180.000000        5.384506         2
         9        10        11        12     9        0.000000        0.167749         3
         9        10        11        12     9      180.000000        0.241046         4
        10         5         6        22     9        0.000000        0.191639         1
        10         5         6        22     9      180.000000       11.778428         2
        10         5         6        22     9        0.000000       -0.112599         3
        10         5         6        22     9      180.000000       -0.028965         4
        10         5        34        35     9        0.000000        0.660544         1
        10         5        34        35     9      180.000000        1.565184         2
        10         5        34        35     9        0.000000        0.554703         3
        10         5        34        35     9      180.000000        0.160968         4
        10         9         8        24     9        0.000000        0.020215         1
        10         9         8        24     9      180.000000       16.122637         2
        10         9         8        24     9        0.000000       -0.557272         3
        10         9         8        24     9      180.000000       -0.082829         4
        10        11         4        34     9        0.000000       -0.269618         1
        10        11         4        34     9      180.000000       32.307342         2
        10        11         4        34     9        0.000000       -6.139104         3
        10        11         4        34     9      180.000000       -0.336367         4
        10        11        12        13     9        0.000000       -0.771543         1
        10        11        12        13     9      180.000000       -0.164164         2
        10        11        12        13     9        0.000000        0.272102         3
        10        11        12        13     9      180.000000        0.041434         4
        10        11        12        26     9        0.000000        0.085264         1
        10        11        12        26     9      180.000000        0.092043         2
        10        11        12        26     9        0.000000        0.301666         3
        10        11        12        26     9      180.000000        0.085541         4
        10        11        12        27     9        0.000000        0.085264         1
        10        11        12        27     9      180.000000        0.092043         2
        10        11        12        27     9        0.000000        0.301666         3
        10        11        12        27     9      180.000000        0.085541         4
        11         4        34        35     9        0.000000        2.056222         1
        11         4        34        35     9      180.000000        2.032207         2
        11         4        34        35     9        0.000000        0.994371         3
        11         4        34        35     9      180.000000        0.086240         4
        11        10         5        34     9        0.000000       -0.184496         1
        11        10         5        34     9      180.000000       20.114318         2
        11        10         5        34     9        0.000000       -6.567274         3
        11        10         5        34     9      180.000000       -0.385168         4
        11        10         9        25     9        0.000000       -0.083573         1
        11        10         9        25     9      180.000000       10.550967         2
        11        10         9        25     9        0.000000       -0.092864         3
        11        10         9        25     9      180.000000        0.077841         4
        11        12        13        14     9        0.000000       -1.037924         1
        11        12        13        14     9      180.000000       -0.195500         2
        11        12        13        14     9        0.000000        0.433131         3
        11        12        13        14     9      180.000000       -0.016638         4
        11        12        13        28     9        0.000000        0.174405         1
        11        12        13        28     9      180.000000        0.000426         2
        11        12        13        28     9        0.000000        0.595883         3
        11        12        13        28     9      180.000000        0.017036         4
        11        12        13        29     9        0.000000        0.174405         1
        11        12        13        29     9      180.000000        0.000426         2
        11        12        13        29     9        0.000000        0.595883         3
        11        12        13        29     9      180.000000        0.017036         4
        12        11         4        34     9        0.000000        0.597618         1
        12        11         4        34     9      180.000000       19.383907         2
        12        11         4        34     9        0.000000       -0.027506         3
        12        11         4        34     9      180.000000       -1.380854         4
        12        13        14        15     9        0.000000       -1.388328         1
        12        13        14        15     9      180.000000       -0.342551         2
        12        13        14        15     9        0.000000        0.472783         3
        12        13        14        15     9      180.000000        0.017330         4
        12        13        14        30     9        0.000000        0.052659         1
        12        13        14        30     9      180.000000        0.052843         2
        12        13        14        30     9        0.000000        0.650860         3
        12        13        14        30     9      180.000000        0.042224         4
        12        13        14        31     9        0.000000        0.052659         1
        12        13        14        31     9      180.000000        0.052843         2
        12        13        14        31     9        0.000000        0.650860         3
        12        13        14        31     9      180.000000        0.042224         4
        13        14        15        16     9        0.000000        0.370542         1
        13        14        15        16     9      180.000000        0.157063         2
        13        14        15        16     9        0.000000        0.689475         3
        13        14        15        16     9      180.000000        0.024053         4
        14        13        12        26     9        0.000000       -0.117826         1
        14        13        12        26     9      180.000000        0.051843         2
        14        13        12        26     9        0.000000        0.500191         3
        14        13        12        26     9      180.000000        0.024620         4
        14        13        12        27     9        0.000000       -0.117826         1
        14        13        12        27     9      180.000000        0.051843         2
        14        13        12        27     9        0.000000        0.500191         3
        14        13        12        27     9      180.000000        0.024620         4
        14        15        16        17     9        0.000000       -0.021073         1
        14        15        16        17     9      180.000000        5.086879         2
        14        15        16        17     9        0.000000        0.200305         3
        14        15        16        17     9      180.000000        0.308305         4
        14        15        16        21     9        0.000000       -0.021074         1
        14        15        16        21     9      180.000000        5.086878         2
        14        15        16        21     9        0.000000        0.200306         3
        14        15        16        21     9      180.000000        0.308305         4
        15        14        13        28     9        0.000000        0.060676         1
        15        14        13        28     9      180.000000        0.168541         2
        15        14        13        28     9        0.000000        0.485495         3
        15        14        13        28     9      180.000000        0.072558         4
        15        14        13        29     9        0.000000        0.060676         1
        15        14        13        29     9      180.000000        0.168541         2
        15        14        13        29     9        0.000000        0.485495         3
        15        14        13        29     9      180.000000        0.072558         4
        15        16        17        18     9        0.000000        0.478455         1
        15        16        17        18     9      180.000000       17.379912         2
        15        16        17        18     9        0.000000        0.428718         3
        15        16        17        18     9      180.000000       -0.265808         4
        15        16        17        32     9        0.000000        0.114859         1
        15        16        17        32     9      180.000000       12.892930         2
        15        16        17        32     9        0.000000       -0.104605         3
        15        16        17        32     9      180.000000        0.273195         4
        15        16        21        20     9        0.000000        0.478455         1
        15        16        21        20     9      180.000000       17.379910         2
        15        16        21        20     9        0.000000        0.428718         3
        15        16        21        20     9      180.000000       -0.265808         4
        15        16        21        33     9        0.000000        0.114858         1
        15        16        21        33     9      180.000000       12.892931         2
        15        16        21        33     9        0.000000       -0.104605         3
        15        16        21        33     9      180.000000        0.273194         4
        16        15        14        30     9        0.000000       -0.195440         1
        16        15        14        30     9      180.000000        0.032296         2
        16        15        14        30     9        0.000000        0.828361         3
        16        15        14        30     9      180.000000       -0.048257         4
        16        15        14        31     9        0.000000       -0.195440         1
        16        15        14        31     9      180.000000        0.032296         2
        16        15        14        31     9        0.000000        0.828361         3
        16        15        14        31     9      180.000000       -0.048257         4
        16        17        18        19     9        0.000000       -0.165123         1
        16        17        18        19     9      180.000000       18.899885         2
        16        17        18        19     9        0.000000       -1.564938         3
        16        17        18        19     9      180.000000       -0.494423         4
        16        17        18        38     9        0.000000        0.038926         1
        16        17        18        38     9      180.000000       14.528774         2
        16        17        18        38     9        0.000000       -0.508457         3
        16        17        18        38     9      180.000000        0.095408         4
        16        21        20        19     9        0.000000       -0.165123         1
        16        21        20        19     9      180.000000       18.899885         2
        16        21        20        19     9        0.000000       -1.564938         3
        16        21        20        19     9      180.000000       -0.494423         4
        16        21        20        36     9        0.000000        0.038926         1
        16        21        20        36     9      180.000000       14.528774         2
        16        21        20        36     9        0.000000       -0.508457         3
        16        21        20        36     9      180.000000        0.095408         4
        17        16        21        20     9        0.000000       -0.097209         1
        17        16        21        20     9      180.000000       15.854201         2
        17        16        21        20     9        0.000000       -0.875621         3
        17        16        21        20     9      180.000000       -0.184685         4
        17        16        21        33     9        0.000000        0.108514         1
        17        16        21        33     9      180.000000       12.487904         2
        17        16        21        33     9        0.000000       -0.454762         3
        17        16        21        33     9      180.000000        0.184011         4
        17        18        19        20     9        0.000000       -0.079510         1
        17        18        19        20     9      180.000000       17.635840         2
        17        18        19        20     9        0.000000       -1.318033         3
        17        18        19        20     9      180.000000       -0.361467         4
        17        18        19        37     9        0.000000        0.286377         1
        17        18        19        37     9      180.000000       18.809376         2
        17        18        19        37     9        0.000000        0.176582         3
        17        18        19        37     9      180.000000       -0.518326         4
        18        17        16        21     9        0.000000       -0.097209         1
        18        17        16        21     9      180.000000       15.854202         2
        18        17        16        21     9        0.000000       -0.875621         3
        18        17        16        21     9      180.000000       -0.184685         4
        18        19        20        21     9        0.000000       -0.079509         1
        18        19        20        21     9      180.000000       17.635838         2
        18        19        20        21     9        0.000000       -1.318033         3
        18        19        20        21     9      180.000000       -0.361468         4
        18        19        20        36     9        0.000000        0.001570         1
        18        19        20        36     9      180.000000       13.404320         2
        18        19        20        36     9        0.000000       -0.600999         3
        18        19        20        36     9      180.000000        0.114619         4
        19        18        17        32     9        0.000000        0.130272         1
        19        18        17        32     9      180.000000       14.007853         2
        19        18        17        32     9        0.000000       -0.500484         3
        19        18        17        32     9      180.000000        0.185890         4
        19        20        21        33     9        0.000000        0.130272         1
        19        20        21        33     9      180.000000       14.007853         2
        19        20        21        33     9        0.000000       -0.500484         3
        19        20        21        33     9      180.000000        0.185890         4
        20        19        18        38     9        0.000000        0.001570         1
        20        19        18        38     9      180.000000       13.404320         2
        20        19        18        38     9        0.000000       -0.600999         3
        20        19        18        38     9      180.000000        0.114619         4
        21        16        17        32     9        0.000000        0.108515         1
        21        16        17        32     9      180.000000       12.487904         2
        21        16        17        32     9        0.000000       -0.454762         3
        21        16        17        32     9      180.000000        0.184012         4
        21        20        19        37     9        0.000000        0.286377         1
        21        20        19        37     9      180.000000       18.809376         2
        21        20        19        37     9        0.000000        0.176582         3
        21        20        19        37     9      180.000000       -0.518326         4
        22         6         5        34     9        0.000000       -0.075257         1
        22         6         5        34     9      180.000000       11.465431         2
        22         6         5        34     9        0.000000       -0.064460         3
        22         6         5        34     9      180.000000        0.061567         4
        22         6         7        23     9        0.000000       -0.093298         1
        22         6         7        23     9      180.000000       12.220920         2
        22         6         7        23     9        0.000000       -0.649140         3
        22         6         7        23     9      180.000000        0.227119         4
        23         7         8        24     9        0.000000       -0.083847         1
        23         7         8        24     9      180.000000       10.869171         2
        23         7         8        24     9        0.000000       -0.488292         3
        23         7         8        24     9      180.000000        0.188957         4
        24         8         9        25     9        0.000000       -0.175107         1
        24         8         9        25     9      180.000000       12.479385         2
        24         8         9        25     9        0.000000       -0.668013         3
        24         8         9        25     9      180.000000        0.273644         4
        26        12        13        28     9        0.000000        0.021539         1
        26        12        13        28     9      180.000000        0.036431         2
        26        12        13        28     9        0.000000        0.611780         3
        26        12        13        28     9      180.000000       -0.014647         4
        26        12        13        29     9        0.000000        0.021539         1
        26        12        13        29     9      180.000000        0.036431         2
        26        12        13        29     9        0.000000        0.611780         3
        26        12        13        29     9      180.000000       -0.014647         4
        27        12        13        28     9        0.000000        0.021539         1
        27        12        13        28     9      180.000000        0.036431         2
        27        12        13        28     9        0.000000        0.611780         3
        27        12        13        28     9      180.000000       -0.014647         4
        27        12        13        29     9        0.000000        0.021539         1
        27        12        13        29     9      180.000000        0.036431         2
        27        12        13        29     9        0.000000        0.611780         3
        27        12        13        29     9      180.000000       -0.014647         4
        28        13        14        30     9        0.000000       -0.001071         1
        28        13        14        30     9      180.000000       -0.020825         2
        28        13        14        30     9        0.000000        0.671101         3
        28        13        14        30     9      180.000000       -0.051737         4
        28        13        14        31     9        0.000000       -0.001071         1
        28        13        14        31     9      180.000000       -0.020825         2
        28        13        14        31     9        0.000000        0.671101         3
        28        13        14        31     9      180.000000       -0.051737         4
        29        13        14        30     9        0.000000       -0.001071         1
        29        13        14        30     9      180.000000       -0.020825         2
        29        13        14        30     9        0.000000        0.671101         3
        29        13        14        30     9      180.000000       -0.051737         4
        29        13        14        31     9        0.000000       -0.001071         1
        29        13        14        31     9      180.000000       -0.020825         2
        29        13        14        31     9        0.000000        0.671101         3
        29        13        14        31     9      180.000000       -0.051737         4
        32        17        18        38     9        0.000000       -0.201453         1
        32        17        18        38     9      180.000000       11.891948         2
        32        17        18        38     9        0.000000       -0.705956         3
        32        17        18        38     9      180.000000        0.292173         4
        33        21        20        36     9        0.000000       -0.201452         1
        33        21        20        36     9      180.000000       11.891948         2
        33        21        20        36     9        0.000000       -0.705955         3
        33        21        20        36     9      180.000000        0.292173         4
        36        20        19        37     9        0.000000        0.193492         1
        36        20        19        37     9      180.000000       13.071750         2
        36        20        19        37     9        0.000000       -0.115002         3
        36        20        19        37     9      180.000000        0.254173         4
        37        19        18        38     9        0.000000        0.193492         1
        37        19        18        38     9      180.000000       13.071751         2
        37        19        18        38     9        0.000000       -0.115002         3
        37        19        18        38     9      180.000000        0.254173         4

[ dihedrals ] ; impropers
;       ai        aj        ak        al funct           phase               k        pn
         2         1         3         4     4      180.000000       27.893333         2
         2         3         4         1     4      180.000000       27.893333         2
         2         4         1         3     4      180.000000       27.893333         2
        16        15        17        21     4      180.000000        0.490399         2
        16        17        21        15     4      180.000000        0.490399         2
        16        21        15        17     4      180.000000        0.490399         2

[ pairs ]
;       ai        aj funct
         1        11     1
         1        34     1
         2         5     1
         2        10     1
         2        12     1
         2        35     1
         3        11     1
         3        34     1
         4         6     1
         4         9     1
         4        13     1
         4        26     1
         4        27     1
         5         8     1
         5        12     1
         5        23     1
         5        25     1
         6         9     1
         6        11     1
         6        24     1
         6        35     1
         7        10     1
         7        25     1
         7        34     1
         8        11     1
         8        22     1
         9        12     1
         9        23     1
         9        34     1
        10        13     1
        10        22     1
        10        24     1
        10        26     1
        10        27     1
        10        35     1
        11        14     1
        11        25     1
        11        28     1
        11        29     1
        11        35     1
        12        15     1
        12        30     1
        12        31     1
        12        34     1
        13        16     1
        14        17     1
        14        21     1
        14        26     1
        14        27     1
        15        18     1
        15        20     1
        15        28     1
        15        29     1
        15        32     1
        15        33     1
        16        19     1
        16        30     1
        16        31     1
        16        36     1
        16        38     1
        17        20     1
        17        33     1
        17        37     1
        18        21     1
        18        36     1
        19        32     1
        19        33     1
        20        38     1
        21        32     1
        21        37     1
        22        23     1
        22        34     1
        23        24     1
        24        25     1
        26        28     1
        26        29     1
        27        28     1
        27        29     1
        28        30     1
        28        31     1
        29        30     1
        29        31     1
        32        38     1
        33        36     1
        36        37     1
        37        38     1
